 Gaussian 16, Revision A.03,
 Gaussian 16:  EM64L-G16RevA.03 25-Dec-2016

 -------------
 #p 6-31g* mp2
 -------------

 ------------------------------------------------------
 Input file generated by CHIRIPA (05-May-2021 14:57:22)
 ------------------------------------------------------
 Symbolic Z-matrix:
 Charge =  0 Multiplicity = 1

                         Standard orientation:
 ---------------------------------------------------------------------
 Center     Atomic      Atomic             Coordinates (Angstroms)
 Number     Number       Type             X           Y           Z
 ---------------------------------------------------------------------
      1          6           0        0.975090    0.158051   -0.356268
      2          6           0        1.532329   -0.920221    0.338956
      3          6           0        2.919003   -1.039408    0.471155
      4          6           0        3.722376   -0.057773   -0.107010
      5          6           0        3.197282    1.028224   -0.805706
      6          6           0        1.807877    1.127123   -0.925377
      7          1           0       -0.103172    0.242758   -0.454098
      8          1           0        0.888013   -1.674307    0.781964
      9          1           0        3.376955   -1.863856    1.004056
     10          1           0        3.865251    1.764221   -1.236454
     11          1           0        1.377902    1.965604   -1.465854
     12          7           0        5.191832   -0.173212    0.026312
     13          8           0        5.877921    0.704875   -0.492226
     14          8           0        5.629677   -1.139595    0.646822
     15          6           0       -4.036578   -2.348072   -0.470556
     16          6           0       -4.772005   -1.296740   -1.027662
     17          6           0       -4.472537    0.029617   -0.702635
     18          6           0       -3.426403    0.269497    0.186945
     19          6           0       -2.675322   -0.756366    0.758585
     20          6           0       -2.992424   -2.075012    0.419222
     21          1           0       -4.276061   -3.375424   -0.728613
     22          1           0       -5.583446   -1.505826   -1.718959
     23          1           0       -5.025684    0.862589   -1.119296
     24          1           0       -1.872108   -0.516579    1.444710
     25          1           0       -2.419585   -2.889492    0.853411
     26          7           0       -3.100036    1.669570    0.538625
     27          8           0       -2.173603    1.854427    1.324874
     28          8           0       -3.776842    2.555579    0.021365
 ---------------------------------------------------------------------

 SCF Done:  E(RHF) =  -868.337598736     A.U. after   16 cycles
 E2 =    -0.2601007940D+01 EUMP2 =    -0.87093860667554D+03

 The electronic state is 1-A.
 Alpha  occ. eigenvalues --  -20.61898 -20.61883 -20.60611 -20.60600 -15.86929
 Alpha  occ. eigenvalues --  -15.85664 -11.32352 -11.30990 -11.28941 -11.28828
 Alpha  occ. eigenvalues --  -11.28554 -11.27932 -11.27826 -11.27639 -11.27537
 Alpha  occ. eigenvalues --  -11.27259 -11.26685 -11.26474  -1.60968  -1.59686
 Alpha  occ. eigenvalues --   -1.40517  -1.39240  -1.20503  -1.19170  -1.09868
 Alpha  occ. eigenvalues --   -1.08562  -1.05901  -1.04584  -0.96701  -0.95402
 Alpha  occ. eigenvalues --   -0.87287  -0.85985  -0.83522  -0.82249  -0.78592
 Alpha  occ. eigenvalues --   -0.77308  -0.73129  -0.72332  -0.71885  -0.71573
 Alpha  occ. eigenvalues --   -0.71008  -0.70240  -0.66132  -0.65869  -0.64830
 Alpha  occ. eigenvalues --   -0.64627  -0.63223  -0.61943  -0.56339  -0.55142
 Alpha  occ. eigenvalues --   -0.54150  -0.53949  -0.52887  -0.52690  -0.49905
 Alpha  occ. eigenvalues --   -0.49891  -0.48640  -0.48639  -0.45891  -0.44655
 Alpha  occ. eigenvalues --   -0.38444  -0.37502  -0.37108  -0.36187
 Alpha virt. eigenvalues --    0.03904   0.05255   0.10008   0.11435   0.15395
 Alpha virt. eigenvalues --    0.16752   0.19365   0.21923   0.25085   0.27127
 Alpha virt. eigenvalues --    0.27935   0.28816   0.29892   0.31425   0.31764

 Mulliken charges:
               1
     1  C   -0.165169
     2  C   -0.221329
     3  C   -0.170216
     4  C    0.157802
     5  C   -0.170145
     6  C   -0.218553
     7  H    0.227670
     8  H    0.211055
     9  H    0.273673
    10  H    0.276021
    11  H    0.227787
    12  N    0.488197
    13  O   -0.460068
    14  O   -0.461989
    15  C   -0.169980
    16  C   -0.217205
    17  C   -0.170373
    18  C    0.157885
    19  C   -0.185021
    20  C   -0.218178
    21  H    0.230111
    22  H    0.228023
    23  H    0.278767
    24  H    0.275988
    25  H    0.224368
    26  N    0.486743
    27  O   -0.460458
    28  O   -0.455407
 Sum of Mulliken charges =  -0.00000

 Dipole moment (field-independent basis, Debye):
    X=             -6.7002    Y=             -4.4244    Z=             -1.8305  Tot=              8.2352
 Quadrupole moment (field-independent basis, Debye-Ang):
   XX=           -132.3508   YY=           -103.8094   ZZ=           -103.1323
   XY=             18.3296   XZ=              5.3166   YZ=             -4.8684

 Normal termination of Gaussian 16 at Thu May  6 19:32:58 2021.
