 Gaussian 16, Revision A.03,
 Gaussian 16:  EM64L-G16RevA.03 25-Dec-2016

 -------------
 #p 6-31g* mp2
 -------------

 ------------------------------------------------------
 Input file generated by CHIRIPA (05-May-2021 14:57:25)
 ------------------------------------------------------
 Symbolic Z-matrix:
 Charge =  0 Multiplicity = 1

                         Standard orientation:
 ---------------------------------------------------------------------
 Center     Atomic      Atomic             Coordinates (Angstroms)
 Number     Number       Type             X           Y           Z
 ---------------------------------------------------------------------
      1          6           0       -5.268803    0.780089   -0.884690
      2          6           0       -5.248071    0.524098    0.490287
      3          6           0       -4.106688   -0.009677    1.095990
      4          6           0       -2.998857   -0.276611    0.293028
      5          6           0       -2.988673   -0.032572   -1.079427
      6          6           0       -4.141026    0.501428   -1.663785
      7          1           0       -6.159718    1.194825   -1.346924
      8          1           0       -6.122456    0.739520    1.097814
      9          1           0       -4.063425   -0.217571    2.158217
     10          1           0       -2.101643   -0.257745   -1.658990
     11          1           0       -4.154275    0.699215   -2.731843
     12          7           0       -1.784719   -0.841814    0.922960
     13          8           0       -0.821720   -1.068178    0.193556
     14          8           0       -1.819066   -1.047754    2.134177
     15          6           0        3.170934    2.650143    0.340518
     16          6           0        2.213671    2.108898   -0.523902
     17          6           0        2.219638    0.743563   -0.824524
     18          6           0        3.201671   -0.055010   -0.240420
     19          6           0        4.168841    0.454508    0.624602
     20          6           0        4.143750    1.822679    0.911006
     21          1           0        3.158870    3.711868    0.568527
     22          1           0        1.456986    2.749127   -0.968403
     23          1           0        1.490403    0.298312   -1.490396
     24          1           0        4.910674   -0.208894    1.052388
     25          1           0        4.888414    2.240266    1.582675
     26          7           0        3.218112   -1.501931   -0.551148
     27          8           0        4.093811   -2.184208   -0.023622
     28          8           0        2.354987   -1.926351   -1.316342
 ---------------------------------------------------------------------

 SCF Done:  E(RHF) =  -868.337223542     A.U. after   16 cycles
 E2 =    -0.2600170886D+01 EUMP2 =    -0.87093739442877D+03

 The electronic state is 1-A.
 Alpha  occ. eigenvalues --  -20.60808 -20.60789 -20.59715 -20.59654 -15.85842
 Alpha  occ. eigenvalues --  -15.84744 -11.31312 -11.30231 -11.27903 -11.27875
 Alpha  occ. eigenvalues --  -11.27638 -11.26928 -11.26909 -11.26884 -11.26839
 Alpha  occ. eigenvalues --  -11.26710 -11.25949 -11.25936  -1.59868  -1.58743
 Alpha  occ. eigenvalues --   -1.39420  -1.38296  -1.19491  -1.18449  -1.08864
 Alpha  occ. eigenvalues --   -1.07833  -1.04908  -1.03897  -0.95682  -0.94643
 Alpha  occ. eigenvalues --   -0.86299  -0.85291  -0.82510  -0.81491  -0.77553
 Alpha  occ. eigenvalues --   -0.76489  -0.72059  -0.71197  -0.70981  -0.70594
 Alpha  occ. eigenvalues --   -0.70032  -0.69599  -0.65139  -0.64907  -0.64126
 Alpha  occ. eigenvalues --   -0.63938  -0.62255  -0.61250  -0.55398  -0.54441
 Alpha  occ. eigenvalues --   -0.53234  -0.52998  -0.52192  -0.52020  -0.48825
 Alpha  occ. eigenvalues --   -0.48814  -0.47751  -0.47708  -0.44799  -0.43668
 Alpha  occ. eigenvalues --   -0.37475  -0.36520  -0.36448  -0.35480
 Alpha virt. eigenvalues --    0.04965   0.06091   0.11132   0.12165   0.16460
 Alpha virt. eigenvalues --    0.17513   0.21030   0.22131   0.26456   0.27550
 Alpha virt. eigenvalues --    0.28316   0.29188   0.30653   0.31528   0.32267

 Mulliken charges:
               1
     1  C   -0.171149
     2  C   -0.218479
     3  C   -0.171120
     4  C    0.158756
     5  C   -0.172793
     6  C   -0.218705
     7  H    0.225777
     8  H    0.223788
     9  H    0.276180
    10  H    0.274632
    11  H    0.223398
    12  N    0.488996
    13  O   -0.458753
    14  O   -0.459545
    15  C   -0.170779
    16  C   -0.220666
    17  C   -0.158299
    18  C    0.160495
    19  C   -0.170144
    20  C   -0.219107
    21  H    0.221304
    22  H    0.216600
    23  H    0.275945
    24  H    0.274067
    25  H    0.220161
    26  N    0.490077
    27  O   -0.464997
    28  O   -0.455642
 Sum of Mulliken charges =  -0.00000

 Dipole moment (field-independent basis, Debye):
    X=             -4.5165    Y=              6.8735    Z=             -1.1116  Tot=              8.2994
 Quadrupole moment (field-independent basis, Debye-Ang):
   XX=            -76.7352   YY=           -108.3416   ZZ=           -101.6658
   XY=             10.6220   XZ=              9.4076   YZ=             -0.4110

 Normal termination of Gaussian 16 at Thu May  6 01:55:41 2021.
