 Gaussian 16, Revision A.03,
 Gaussian 16:  EM64L-G16RevA.03 25-Dec-2016

 -------------
 #p 6-31g* mp2
 -------------

 ------------------------------------------------------
 Input file generated by CHIRIPA (05-May-2021 14:51:13)
 ------------------------------------------------------
 Symbolic Z-matrix:
 Charge =  0 Multiplicity = 1

                         Standard orientation:
 ---------------------------------------------------------------------
 Center     Atomic      Atomic             Coordinates (Angstroms)
 Number     Number       Type             X           Y           Z
 ---------------------------------------------------------------------
      1          6           0        4.817060   -0.673161    0.089780
      2          6           0        6.167944    0.043146    0.090261
      3          6           0        7.326441   -0.880031    0.468975
      4          1           0        4.636058   -1.101645    1.085061
      5          1           0        4.858164   -1.518082   -0.611515
      6          1           0        6.123861    0.887299    0.790317
      7          1           0        6.345665    0.470138   -0.905083
      8          1           0        7.399010   -1.715646   -0.234645
      9          1           0        7.175945   -1.296115    1.470387
     10          1           0        8.282597   -0.347500    0.463035
     11          6           0        3.649078    0.236607   -0.286876
     12          6           0        2.298194   -0.479701   -0.287358
     13          6           0        1.139697    0.443476   -0.666072
     14          1           0        3.607974    1.081527    0.414419
     15          1           0        3.830081    0.665090   -1.282158
     16          1           0        2.120474   -0.906693    0.707986
     17          1           0        2.342278   -1.323854   -0.987414
     18          1           0        1.290193    0.859561   -1.667484
     19          1           0        1.067129    1.279091    0.037549
     20          1           0        0.183541   -0.089055   -0.660131
     21          6           0       -4.621702   -0.325133   -0.271725
     22          6           0       -5.702514   -0.987237    0.583525
     23          6           0       -6.471330   -2.072226   -0.171137
     24          1           0       -5.086612    0.108704   -1.167598
     25          1           0       -3.920838   -1.094320   -0.624619
     26          1           0       -6.400347   -0.216835    0.935841
     27          1           0       -5.235004   -1.419381    1.477561
     28          1           0       -5.791955   -2.861394   -0.509164
     29          1           0       -6.963919   -1.652016   -1.053962
     30          1           0       -7.238954   -2.532276    0.458918
     31          6           0       -3.844436    0.761687    0.468821
     32          6           0       -2.763625    1.423790   -0.386428
     33          6           0       -1.994808    2.508780    0.368233
     34          1           0       -4.545300    1.530875    0.821716
     35          1           0       -3.379526    0.327850    1.364695
     36          1           0       -3.231134    1.855934   -1.280464
     37          1           0       -2.065792    0.653389   -0.738744
     38          1           0       -1.502219    2.088570    1.251059
     39          1           0       -2.674184    3.297949    0.706261
     40          1           0       -1.227184    2.968830   -0.261821
 ---------------------------------------------------------------------

 SCF Done:  E(RHF) =  -470.732850620     A.U. after   11 cycles
 E2 =    -0.1582906681D+01 EUMP2 =    -0.47231575730047D+03

 The electronic state is 1-A.
 Alpha  occ. eigenvalues --  -11.21606 -11.21604 -11.21583 -11.21502 -11.21410
 Alpha  occ. eigenvalues --  -11.21370 -11.21351 -11.21306 -11.21075 -11.21057
 Alpha  occ. eigenvalues --  -11.21044 -11.20979  -1.08438  -1.08386  -1.03559
 Alpha  occ. eigenvalues --   -1.03457  -0.96030  -0.95888  -0.87027  -0.86928
 Alpha  occ. eigenvalues --   -0.79611  -0.79539  -0.78252  -0.78200  -0.65079
 Alpha  occ. eigenvalues --   -0.65020  -0.61019  -0.60849  -0.59417  -0.59223
 Alpha  occ. eigenvalues --   -0.57602  -0.57540  -0.55384  -0.55119  -0.52721
 Alpha  occ. eigenvalues --   -0.52617  -0.52426  -0.52302  -0.50014  -0.49775
 Alpha  occ. eigenvalues --   -0.47991  -0.47794  -0.46656  -0.46534  -0.45788
 Alpha  occ. eigenvalues --   -0.45746  -0.45714  -0.45672  -0.43768  -0.43696
 Alpha virt. eigenvalues --    0.21649   0.23024   0.23604   0.24930   0.26201
 Alpha virt. eigenvalues --    0.26563   0.26967   0.27274   0.27781   0.29170
 Alpha virt. eigenvalues --    0.30370   0.31253   0.31428   0.31839   0.32279

 Mulliken charges:
               1
     1  C   -0.298211
     2  C   -0.299628
     3  C   -0.475700
     4  H    0.149587
     5  H    0.149509
     6  H    0.151965
     7  H    0.151953
     8  H    0.155173
     9  H    0.155165
    10  H    0.160278
    11  C   -0.298707
    12  C   -0.299841
    13  C   -0.480256
    14  H    0.149606
    15  H    0.149651
    16  H    0.151570
    17  H    0.151652
    18  H    0.154871
    19  H    0.158758
    20  H    0.163162
    21  C   -0.298130
    22  C   -0.299591
    23  C   -0.475685
    24  H    0.149686
    25  H    0.148940
    26  H    0.151941
    27  H    0.151837
    28  H    0.155101
    29  H    0.155165
    30  H    0.160181
    31  C   -0.298123
    32  C   -0.305029
    33  C   -0.475164
    34  H    0.149352
    35  H    0.149258
    36  H    0.151573
    37  H    0.157503
    38  H    0.154695
    39  H    0.154074
    40  H    0.161859
 Sum of Mulliken charges =  -0.00000

 Dipole moment (field-independent basis, Debye):
    X=              0.0218    Y=              0.0120    Z=             -0.0075  Tot=              0.0260
 Quadrupole moment (field-independent basis, Debye-Ang):
   XX=            -85.7735   YY=            -85.2175   ZZ=            -83.9481
   XY=             -0.4895   XZ=             -0.3895   YZ=             -0.1959

 Normal termination of Gaussian 16 at Wed May  5 15:20:53 2021.
