 Gaussian 16, Revision A.03,
 Gaussian 16:  EM64L-G16RevA.03 25-Dec-2016

 -------------
 #p 6-31g* mp2
 -------------

 ------------------------------------------------------
 Input file generated by CHIRIPA (05-May-2021 14:53:17)
 ------------------------------------------------------
 Symbolic Z-matrix:
 Charge =  0 Multiplicity = 1

                         Standard orientation:
 ---------------------------------------------------------------------
 Center     Atomic      Atomic             Coordinates (Angstroms)
 Number     Number       Type             X           Y           Z
 ---------------------------------------------------------------------
      1          6           0        3.787422    0.295791    0.986413
      2          6           0        2.459803    0.985402    0.670423
      3          6           0        1.675333    1.361976    1.927640
      4          1           0        3.592041   -0.606230    1.582341
      5          1           0        4.396979    0.959699    1.614951
      6          1           0        1.853498    0.320954    0.041521
      7          1           0        2.658352    1.885782    0.075015
      8          1           0        2.257712    2.044385    2.555138
      9          1           0        1.448285    0.470665    2.521453
     10          1           0        0.729765    1.853651    1.678607
     11          6           0        4.583143   -0.086796   -0.260256
     12          6           0        5.910762   -0.776407    0.055733
     13          6           0        6.695231   -1.152981   -1.201483
     14          1           0        3.973585   -0.750704   -0.888795
     15          1           0        4.778523    0.815225   -0.856184
     16          1           0        5.712213   -1.676787    0.651141
     17          1           0        6.517067   -0.111959    0.684636
     18          1           0        6.922279   -0.261670   -1.795297
     19          1           0        6.112852   -1.835389   -1.828982
     20          1           0        7.640800   -1.644655   -0.952451
     21          6           0       -1.178167    1.029129   -1.153936
     22          6           0       -1.117141   -0.267469   -0.632754
     23          6           0       -2.269703   -0.892723   -0.147772
     24          6           0       -3.471958   -0.189024   -0.199519
     25          6           0       -3.565037    1.103721   -0.712780
     26          6           0       -2.399766    1.709387   -1.192218
     27          1           0       -0.277893    1.507233   -1.528529
     28          1           0       -0.169806   -0.798165   -0.601765
     29          1           0       -2.250940   -1.895701    0.261008
     30          1           0       -4.523865    1.607464   -0.730412
     31          1           0       -2.450144    2.716426   -1.596419
     32          7           0       -4.698851   -0.840584    0.310975
     33          8           0       -5.745818   -0.199278    0.254191
     34          8           0       -4.590291   -1.980244    0.758217
 ---------------------------------------------------------------------

 SCF Done:  E(RHF) =  -669.535323558     A.U. after   15 cycles
 E2 =    -0.2092039690D+01 EUMP2 =    -0.67162736324722D+03

 The electronic state is 1-A.
 Alpha  occ. eigenvalues --  -20.60756 -20.60751 -15.85810 -11.31179 -11.27747
 Alpha  occ. eigenvalues --  -11.27742 -11.27475 -11.26763 -11.26747 -11.22648
 Alpha  occ. eigenvalues --  -11.22205 -11.22182 -11.22106 -11.21800 -11.21583
 Alpha  occ. eigenvalues --   -1.59831  -1.39385  -1.19352  -1.09214  -1.08743
 Alpha  occ. eigenvalues --   -1.04759  -1.04268  -0.96677  -0.95576  -0.87690
 Alpha  occ. eigenvalues --   -0.86160  -0.82409  -0.80369  -0.79028  -0.77459
 Alpha  occ. eigenvalues --   -0.72028  -0.71154  -0.70449  -0.65892  -0.65003
 Alpha  occ. eigenvalues --   -0.64765  -0.62176  -0.61596  -0.60054  -0.58302
 Alpha  occ. eigenvalues --   -0.55953  -0.55238  -0.53394  -0.53173  -0.52960
 Alpha  occ. eigenvalues --   -0.52856  -0.50616  -0.48802  -0.48783  -0.48646
 Alpha  occ. eigenvalues --   -0.47403  -0.46552  -0.46477  -0.44790  -0.44516
 Alpha  occ. eigenvalues --   -0.37312  -0.36352
 Alpha virt. eigenvalues --    0.05062   0.11218   0.16519   0.19792   0.22502
 Alpha virt. eigenvalues --    0.23904   0.25072   0.26110   0.27044   0.27894
 Alpha virt. eigenvalues --    0.28921   0.29879   0.31041   0.31560   0.31891

 Mulliken charges:
               1
     1  C   -0.298281
     2  C   -0.303759
     3  C   -0.476769
     4  H    0.151458
     5  H    0.153229
     6  H    0.141511
     7  H    0.150835
     8  H    0.158344
     9  H    0.157574
    10  H    0.162838
    11  C   -0.298247
    12  C   -0.300198
    13  C   -0.476109
    14  H    0.145998
    15  H    0.149862
    16  H    0.153203
    17  H    0.153657
    18  H    0.155532
    19  H    0.155125
    20  H    0.162468
    21  C   -0.171853
    22  C   -0.218985
    23  C   -0.171525
    24  C    0.158632
    25  C   -0.170940
    26  C   -0.219366
    27  H    0.228234
    28  H    0.225774
    29  H    0.275525
    30  H    0.275589
    31  H    0.223473
    32  N    0.488034
    33  O   -0.460413
    34  O   -0.460449
 Sum of Mulliken charges =  -0.00000

 Dipole moment (field-independent basis, Debye):
    X=              4.4624    Y=              2.3207    Z=             -1.7216  Tot=              5.3163
 Quadrupole moment (field-independent basis, Debye-Ang):
   XX=           -123.4352   YY=            -91.7431   ZZ=            -95.0611
   XY=            -10.7154   XZ=              6.8973   YZ=             -1.4518

 Normal termination of Gaussian 16 at Thu May  6 18:58:12 2021.
