 Gaussian 16, Revision A.03,
 Gaussian 16:  EM64L-G16RevA.03 25-Dec-2016

 -------------
 #p 6-31g* mp2
 -------------

 ------------------------------------------------------
 Input file generated by CHIRIPA (05-May-2021 14:51:12)
 ------------------------------------------------------
 Symbolic Z-matrix:
 Charge =  0 Multiplicity = 1

                         Standard orientation:
 ---------------------------------------------------------------------
 Center     Atomic      Atomic             Coordinates (Angstroms)
 Number     Number       Type             X           Y           Z
 ---------------------------------------------------------------------
      1          6           0       -4.333908    0.255307    0.246281
      2          6           0       -4.577596    1.646507   -0.339521
      3          6           0       -5.794700    2.340727    0.272450
      4          1           0       -5.228084   -0.363397    0.089434
      5          1           0       -4.200024    0.341205    1.333521
      6          1           0       -4.709605    1.558173   -1.425517
      7          1           0       -3.682665    2.261911   -0.181432
      8          1           0       -5.668108    2.458109    1.353559
      9          1           0       -6.700883    1.750372    0.102405
     10          1           0       -5.950443    3.333702   -0.160684
     11          6           0       -3.120587   -0.451400   -0.355504
     12          6           0       -2.876899   -1.842600    0.230298
     13          6           0       -1.659795   -2.536821   -0.381673
     14          1           0       -3.254472   -0.537298   -1.442744
     15          1           0       -2.226411    0.167303   -0.198658
     16          1           0       -3.771830   -2.458005    0.072209
     17          1           0       -2.744890   -1.754267    1.316294
     18          1           0       -0.753612   -1.946466   -0.211629
     19          1           0       -1.786387   -2.654202   -1.462782
     20          1           0       -1.504052   -3.529796    0.051461
     21          6           0        3.312749   -0.441088    0.402399
     22          6           0        3.319965   -1.780944   -0.334297
     23          6           0        2.486339   -2.849367    0.373752
     24          1           0        3.693151   -0.588676    1.422427
     25          1           0        2.275906   -0.091475    0.503010
     26          1           0        4.356595   -2.127254   -0.434709
     27          1           0        2.939680   -1.630114   -1.352752
     28          1           0        1.443075   -2.529007    0.460764
     29          1           0        2.868040   -3.028971    1.384024
     30          1           0        2.505390   -3.799055   -0.169928
     31          6           0        4.141747    0.637182   -0.293176
     32          6           0        4.134531    1.977037    0.443521
     33          6           0        4.968156    3.045460   -0.264530
     34          1           0        5.178589    0.287568   -0.393786
     35          1           0        3.761344    0.784769   -1.313203
     36          1           0        4.514815    1.826207    1.461975
     37          1           0        3.097900    2.323347    0.543931
     38          1           0        4.586455    3.225065   -1.274800
     39          1           0        6.011420    2.725101   -0.351540
     40          1           0        4.949105    3.995148    0.279152
 ---------------------------------------------------------------------

 SCF Done:  E(RHF) =  -470.733188635     A.U. after   11 cycles
 E2 =    -0.1582368771D+01 EUMP2 =    -0.47231555740601D+03

 The electronic state is 1-A.
 Alpha  occ. eigenvalues --  -11.21628 -11.21624 -11.21604 -11.21562 -11.21436
 Alpha  occ. eigenvalues --  -11.21401 -11.21375 -11.21342 -11.21098 -11.21088
 Alpha  occ. eigenvalues --  -11.21072 -11.20968  -1.08459  -1.08417  -1.03564
 Alpha  occ. eigenvalues --   -1.03500  -0.96029  -0.95935  -0.87063  -0.86935
 Alpha  occ. eigenvalues --   -0.79654  -0.79536  -0.78276  -0.78229  -0.65116
 Alpha  occ. eigenvalues --   -0.65029  -0.61067  -0.60815  -0.59374  -0.59320
 Alpha  occ. eigenvalues --   -0.57635  -0.57554  -0.55489  -0.55082  -0.52729
 Alpha  occ. eigenvalues --   -0.52626  -0.52480  -0.52322  -0.50143  -0.49705
 Alpha  occ. eigenvalues --   -0.47987  -0.47834  -0.46760  -0.46476  -0.45842
 Alpha  occ. eigenvalues --   -0.45765  -0.45741  -0.45631  -0.43812  -0.43759
 Alpha virt. eigenvalues --    0.21533   0.23054   0.23611   0.24798   0.26108
 Alpha virt. eigenvalues --    0.26825   0.27192   0.27465   0.27803   0.28929
 Alpha virt. eigenvalues --    0.30525   0.31608   0.31719   0.31828   0.32096

 Mulliken charges:
               1
     1  C   -0.298326
     2  C   -0.299663
     3  C   -0.475728
     4  H    0.149793
     5  H    0.149658
     6  H    0.151938
     7  H    0.151838
     8  H    0.155253
     9  H    0.155241
    10  H    0.160308
    11  C   -0.298415
    12  C   -0.299651
    13  C   -0.479605
    14  H    0.149584
    15  H    0.149206
    16  H    0.152164
    17  H    0.152185
    18  H    0.158072
    19  H    0.155444
    20  H    0.161513
    21  C   -0.298090
    22  C   -0.299581
    23  C   -0.481869
    24  H    0.149709
    25  H    0.148146
    26  H    0.151777
    27  H    0.152039
    28  H    0.162364
    29  H    0.154431
    30  H    0.160226
    31  C   -0.298293
    32  C   -0.299595
    33  C   -0.475706
    34  H    0.149658
    35  H    0.149749
    36  H    0.151918
    37  H    0.151649
    38  H    0.155223
    39  H    0.155230
    40  H    0.160203
 Sum of Mulliken charges =  -0.00000

 Dipole moment (field-independent basis, Debye):
    X=             -0.0293    Y=             -0.0138    Z=             -0.0057  Tot=              0.0329
 Quadrupole moment (field-independent basis, Debye-Ang):
   XX=            -84.7918   YY=            -85.6853   ZZ=            -84.2497
   XY=              0.1093   XZ=              1.3879   YZ=              0.2863

 Normal termination of Gaussian 16 at Wed May  5 16:47:52 2021.
