 Gaussian 16, Revision A.03,
 Gaussian 16:  EM64L-G16RevA.03 25-Dec-2016

 -------------
 #p 6-31g* mp2
 -------------

 ------------------------------------------------------
 Input file generated by CHIRIPA (05-May-2021 14:57:27)
 ------------------------------------------------------
 Symbolic Z-matrix:
 Charge =  0 Multiplicity = 1

                         Standard orientation:
 ---------------------------------------------------------------------
 Center     Atomic      Atomic             Coordinates (Angstroms)
 Number     Number       Type             X           Y           Z
 ---------------------------------------------------------------------
      1          6           0        6.496487   -0.285570   -0.358856
      2          6           0        5.751304   -1.413411    0.000585
      3          6           0        4.381490   -1.306578    0.258935
      4          6           0        3.786443   -0.050834    0.147949
      5          6           0        4.501854    1.091401   -0.208106
      6          6           0        5.870487    0.961039   -0.461873
      7          1           0        7.560132   -0.377700   -0.557769
      8          1           0        6.234813   -2.382812    0.081361
      9          1           0        3.780742   -2.163356    0.539025
     10          1           0        3.991945    2.044381   -0.280492
     11          1           0        6.446705    1.838650   -0.740829
     12          7           0        2.336907    0.074720    0.419026
     13          8           0        1.836244    1.192317    0.314379
     14          8           0        1.728871   -0.946845    0.731011
     15          6           0       -3.047815    2.396827   -0.045415
     16          6           0       -2.237503    1.304794   -0.373104
     17          6           0       -2.768419    0.011953   -0.408250
     18          6           0       -4.119848   -0.153274   -0.108865
     19          6           0       -4.952889    0.914616    0.221202
     20          6           0       -4.400537    2.198601    0.250171
     21          1           0       -2.627061    3.397697   -0.020512
     22          1           0       -1.186620    1.455754   -0.603112
     23          1           0       -2.163783   -0.851222   -0.658776
     24          1           0       -5.996875    0.732683    0.445723
     25          1           0       -5.032215    3.044826    0.504990
     26          7           0       -4.693251   -1.517259   -0.142803
     27          8           0       -5.886887   -1.636273    0.124975
     28          8           0       -3.938191   -2.441511   -0.436540
 ---------------------------------------------------------------------

 SCF Done:  E(RHF) =  -868.340337160     A.U. after   16 cycles
 E2 =    -0.2598357264D+01 EUMP2 =    -0.87093869442415D+03

 The electronic state is 1-A.
 Alpha  occ. eigenvalues --  -20.61654 -20.61623 -20.59818 -20.59802 -15.86651
 Alpha  occ. eigenvalues --  -15.84855 -11.31751 -11.30028 -11.28306 -11.28261
 Alpha  occ. eigenvalues --  -11.27979 -11.27251 -11.27220 -11.26628 -11.26439
 Alpha  occ. eigenvalues --  -11.26263 -11.25649 -11.25320  -1.60697  -1.58892
 Alpha  occ. eigenvalues --   -1.40255  -1.38449  -1.19897  -1.18167  -1.09343
 Alpha  occ. eigenvalues --   -1.07606  -1.05259  -1.03513  -0.96222  -0.94477
 Alpha  occ. eigenvalues --   -0.86669  -0.84926  -0.83062  -0.81295  -0.78139
 Alpha  occ. eigenvalues --   -0.76362  -0.72880  -0.71994  -0.71082  -0.71001
 Alpha  occ. eigenvalues --   -0.70210  -0.69294  -0.65553  -0.65258  -0.63810
 Alpha  occ. eigenvalues --   -0.63483  -0.62607  -0.60842  -0.55769  -0.54058
 Alpha  occ. eigenvalues --   -0.53603  -0.53346  -0.51891  -0.51585  -0.49642
 Alpha  occ. eigenvalues --   -0.49610  -0.47844  -0.47818  -0.45714  -0.43897
 Alpha  occ. eigenvalues --   -0.37861  -0.36849  -0.36167  -0.35105
 Alpha virt. eigenvalues --    0.04362   0.06123   0.10810   0.12536   0.15906
 Alpha virt. eigenvalues --    0.17669   0.20976   0.22734   0.26909   0.27822
 Alpha virt. eigenvalues --    0.28796   0.29470   0.30573   0.32000   0.32342

 Mulliken charges:
               1
     1  C   -0.169764
     2  C   -0.218560
     3  C   -0.170170
     4  C    0.157581
     5  C   -0.170692
     6  C   -0.218521
     7  H    0.227696
     8  H    0.226014
     9  H    0.277937
    10  H    0.274053
    11  H    0.224649
    12  N    0.489189
    13  O   -0.469432
    14  O   -0.456406
    15  C   -0.172822
    16  C   -0.221752
    17  C   -0.171559
    18  C    0.157450
    19  C   -0.173518
    20  C   -0.218923
    21  H    0.223108
    22  H    0.242826
    23  H    0.279265
    24  H    0.271346
    25  H    0.218530
    26  N    0.488106
    27  O   -0.464721
    28  O   -0.460910
 Sum of Mulliken charges =  -0.00000

 Dipole moment (field-independent basis, Debye):
    X=              7.7499    Y=              4.2569    Z=             -0.8409  Tot=              8.8820
 Quadrupole moment (field-independent basis, Debye-Ang):
   XX=            -80.1900   YY=           -101.4971   ZZ=           -106.3173
   XY=            -23.9463   XZ=             -5.0361   YZ=             -1.1856

 Normal termination of Gaussian 16 at Wed May  5 22:52:20 2021.
