 Gaussian 16, Revision A.03,
 Gaussian 16:  EM64L-G16RevA.03 25-Dec-2016

 -------------
 #p 6-31g* mp2
 -------------

 ------------------------------------------------------
 Input file generated by CHIRIPA (05-May-2021 14:55:23)
 ------------------------------------------------------
 Symbolic Z-matrix:
 Charge =  0 Multiplicity = 1

                         Standard orientation:
 ---------------------------------------------------------------------
 Center     Atomic      Atomic             Coordinates (Angstroms)
 Number     Number       Type             X           Y           Z
 ---------------------------------------------------------------------
      1          6           0        4.282164   -0.577358   -1.495054
      2          6           0        4.110727   -1.450323   -0.415673
      3          6           0        3.144565   -1.190747    0.560902
      4          6           0        2.363725   -0.043824    0.426201
      5          6           0        2.510558    0.845107   -0.637534
      6          6           0        3.482941    0.565556   -1.602351
      7          1           0        5.035118   -0.786761   -2.249114
      8          1           0        4.729986   -2.338684   -0.329775
      9          1           0        2.990691   -1.849649    1.406827
     10          1           0        1.878198    1.722667   -0.696071
     11          1           0        3.613863    1.245285   -2.439532
     12          7           0        1.337599    0.241551    1.453833
     13          8           0        0.662387    1.258748    1.312290
     14          8           0        1.227965   -0.557374    2.381377
     15          6           0       -3.679579   -0.441535   -0.044470
     16          6           0       -3.534474   -1.767009   -0.792833
     17          6           0       -4.416056   -2.873200   -0.212357
     18          1           0       -3.427731   -0.595741    1.013708
     19          1           0       -4.731703   -0.125876   -0.072574
     20          1           0       -2.482695   -2.079377   -0.764511
     21          1           0       -3.786510   -1.609588   -1.849389
     22          1           0       -5.471850   -2.586728   -0.255181
     23          1           0       -4.160626   -3.059187    0.835862
     24          1           0       -4.296647   -3.811878   -0.762344
     25          6           0       -2.804499    0.674128   -0.613028
     26          6           0       -2.949603    1.999603    0.135334
     27          6           0       -2.068022    3.105793   -0.445140
     28          1           0       -1.752375    0.358469   -0.584923
     29          1           0       -3.056346    0.828334   -1.671205
     30          1           0       -2.697567    1.842181    1.191892
     31          1           0       -4.001383    2.311970    0.107013
     32          1           0       -2.323452    3.291779   -1.493360
     33          1           0       -1.012228    2.819322   -0.402318
     34          1           0       -2.187431    4.044470    0.104847
 ---------------------------------------------------------------------

 SCF Done:  E(RHF) =  -669.536431940     A.U. after   15 cycles
 E2 =    -0.2091870492D+01 EUMP2 =    -0.67162830243172D+03

 The electronic state is 1-A.
 Alpha  occ. eigenvalues --  -20.61049 -20.61040 -15.86064 -11.31339 -11.27898
 Alpha  occ. eigenvalues --  -11.27894 -11.27624 -11.26894 -11.26884 -11.21020
 Alpha  occ. eigenvalues --  -11.20586 -11.20560 -11.20507 -11.20448 -11.20035
 Alpha  occ. eigenvalues --   -1.60099  -1.39657  -1.19504  -1.08917  -1.07584
 Alpha  occ. eigenvalues --   -1.04892  -1.02693  -0.95768  -0.95167  -0.86296
 Alpha  occ. eigenvalues --   -0.86196  -0.82603  -0.78794  -0.77672  -0.77385
 Alpha  occ. eigenvalues --   -0.72298  -0.71408  -0.70613  -0.65166  -0.64895
 Alpha  occ. eigenvalues --   -0.64181  -0.62243  -0.60051  -0.58562  -0.56786
 Alpha  occ. eigenvalues --   -0.55399  -0.54433  -0.53226  -0.52985  -0.51890
 Alpha  occ. eigenvalues --   -0.51614  -0.49228  -0.49036  -0.48937  -0.47117
 Alpha  occ. eigenvalues --   -0.45798  -0.45245  -0.44891  -0.44665  -0.42962
 Alpha  occ. eigenvalues --   -0.37479  -0.36490
 Alpha virt. eigenvalues --    0.04841   0.11151   0.16316   0.20911   0.23606
 Alpha virt. eigenvalues --    0.24575   0.26321   0.27443   0.27916   0.28311
 Alpha virt. eigenvalues --    0.29155   0.30434   0.31538   0.32517   0.32613

 Mulliken charges:
               1
     1  C   -0.170294
     2  C   -0.218599
     3  C   -0.170693
     4  C    0.157281
     5  C   -0.171225
     6  C   -0.219013
     7  H    0.226258
     8  H    0.224008
     9  H    0.275825
    10  H    0.277856
    11  H    0.224464
    12  N    0.491485
    13  O   -0.463924
    14  O   -0.458520
    15  C   -0.299340
    16  C   -0.298430
    17  C   -0.475505
    18  H    0.156051
    19  H    0.146804
    20  H    0.150104
    21  H    0.148696
    22  H    0.154113
    23  H    0.157116
    24  H    0.157068
    25  C   -0.297598
    26  C   -0.297038
    27  C   -0.480999
    28  H    0.150527
    29  H    0.142742
    30  H    0.165487
    31  H    0.145530
    32  H    0.145399
    33  H    0.166579
    34  H    0.157783
 Sum of Mulliken charges =  -0.00000

 Dipole moment (field-independent basis, Debye):
    X=              3.8724    Y=             -1.0326    Z=             -3.4206  Tot=              5.2690
 Quadrupole moment (field-independent basis, Debye-Ang):
   XX=            -78.2478   YY=            -92.6977   ZZ=            -96.9538
   XY=             -4.5586   XZ=             -6.5013   YZ=             -2.3519

 Normal termination of Gaussian 16 at Thu May  6 20:49:51 2021.
