 Gaussian 16, Revision A.03,
 Gaussian 16:  EM64L-G16RevA.03 25-Dec-2016

 -------------
 #p 6-31g* mp2
 -------------

 ------------------------------------------------------
 Input file generated by CHIRIPA (05-May-2021 14:51:11)
 ------------------------------------------------------
 Symbolic Z-matrix:
 Charge =  0 Multiplicity = 1

                         Standard orientation:
 ---------------------------------------------------------------------
 Center     Atomic      Atomic             Coordinates (Angstroms)
 Number     Number       Type             X           Y           Z
 ---------------------------------------------------------------------
      1          6           0       -3.932680   -0.025485    0.130201
      2          6           0       -5.370327   -0.385948   -0.245597
      3          6           0       -6.351910    0.759037    0.005993
      4          1           0       -3.898622    0.262406    1.189873
      5          1           0       -3.621585    0.858242   -0.443942
      6          1           0       -5.678142   -1.269563    0.328066
      7          1           0       -5.400933   -0.673198   -1.304449
      8          1           0       -6.072127    1.641688   -0.578173
      9          1           0       -6.350911    1.041934    1.063618
     10          1           0       -7.373650    0.479757   -0.269526
     11          6           0       -2.939633   -1.160014   -0.115623
     12          6           0       -1.501986   -0.799551    0.260175
     13          6           0       -0.520403   -1.944536    0.008585
     14          1           0       -3.250728   -2.043741    0.458520
     15          1           0       -2.973691   -1.447905   -1.175295
     16          1           0       -1.471380   -0.512301    1.319027
     17          1           0       -1.194171    0.084064   -0.313488
     18          1           0       -0.521402   -2.227433   -1.049040
     19          1           0       -0.800186   -2.827187    0.592750
     20          1           0        0.501337   -1.665256    0.284103
     21          6           0        3.148255    1.289151   -0.132068
     22          6           0        1.663076    1.402161    0.213552
     23          6           0        1.101585    2.801268   -0.041437
     24          1           0        3.712328    2.025153    0.457058
     25          1           0        3.293244    1.556620   -1.187925
     26          1           0        1.520747    1.133222    1.268081
     27          1           0        1.102496    0.665674   -0.376323
     28          1           0        1.214439    3.075484   -1.095321
     29          1           0        1.635066    3.545689    0.558427
     30          1           0        0.038548    2.859635    0.212349
     31          6           0        3.724057   -0.103652    0.117490
     32          6           0        5.209237   -0.216662   -0.228130
     33          6           0        5.770729   -1.615770    0.026859
     34          1           0        3.579068   -0.371121    1.173347
     35          1           0        3.159984   -0.839654   -0.471635
     36          1           0        5.769816    0.519825    0.361746
     37          1           0        5.351566    0.052278   -1.282659
     38          1           0        5.237248   -2.360190   -0.573005
     39          1           0        5.657874   -1.889986    1.080742
     40          1           0        6.833765   -1.674136   -0.226926
 ---------------------------------------------------------------------

 SCF Done:  E(RHF) =  -470.732474704     A.U. after   11 cycles
 E2 =    -0.1583973597D+01 EUMP2 =    -0.47231644830128D+03

 The electronic state is 1-A.
 Alpha  occ. eigenvalues --  -11.21605 -11.21595 -11.21550 -11.21524 -11.21404
 Alpha  occ. eigenvalues --  -11.21390 -11.21337 -11.21329 -11.21066 -11.21066
 Alpha  occ. eigenvalues --  -11.21057 -11.21009  -1.08458  -1.08385  -1.03586
 Alpha  occ. eigenvalues --   -1.03448  -0.95987  -0.95951  -0.87003  -0.86964
 Alpha  occ. eigenvalues --   -0.79689  -0.79491  -0.78340  -0.78135  -0.65157
 Alpha  occ. eigenvalues --   -0.64970  -0.61102  -0.60769  -0.59553  -0.59139
 Alpha  occ. eigenvalues --   -0.57689  -0.57452  -0.55292  -0.55221  -0.52760
 Alpha  occ. eigenvalues --   -0.52575  -0.52451  -0.52330  -0.49931  -0.49888
 Alpha  occ. eigenvalues --   -0.47937  -0.47845  -0.46814  -0.46449  -0.45870
 Alpha  occ. eigenvalues --   -0.45766  -0.45710  -0.45459  -0.43774  -0.43750
 Alpha virt. eigenvalues --    0.21461   0.23123   0.23645   0.24239   0.26090
 Alpha virt. eigenvalues --    0.26258   0.26642   0.27065   0.28457   0.29174
 Alpha virt. eigenvalues --    0.30980   0.31190   0.31427   0.31802   0.32531

 Mulliken charges:
               1
     1  C   -0.298313
     2  C   -0.299587
     3  C   -0.475713
     4  H    0.149540
     5  H    0.149296
     6  H    0.151956
     7  H    0.151902
     8  H    0.155181
     9  H    0.155153
    10  H    0.160236
    11  C   -0.297812
    12  C   -0.302455
    13  C   -0.482414
    14  H    0.149408
    15  H    0.149311
    16  H    0.152040
    17  H    0.155409
    18  H    0.153882
    19  H    0.155444
    20  H    0.166638
    21  C   -0.297534
    22  C   -0.305595
    23  C   -0.477175
    24  H    0.149354
    25  H    0.149104
    26  H    0.151659
    27  H    0.160539
    28  H    0.154567
    29  H    0.155236
    30  H    0.161207
    31  C   -0.300977
    32  C   -0.299544
    33  C   -0.475782
    34  H    0.149312
    35  H    0.151642
    36  H    0.152075
    37  H    0.151967
    38  H    0.155405
    39  H    0.155185
    40  H    0.160254
 Sum of Mulliken charges =  -0.00000

 Dipole moment (field-independent basis, Debye):
    X=              0.0112    Y=              0.0016    Z=              0.0040  Tot=              0.0120
 Quadrupole moment (field-independent basis, Debye-Ang):
   XX=            -85.8047   YY=            -86.1421   ZZ=            -82.9715
   XY=              1.2004   XZ=              0.0942   YZ=             -0.0452

 Normal termination of Gaussian 16 at Thu May  6 07:02:33 2021.
