 Gaussian 16, Revision A.03,
 Gaussian 16:  EM64L-G16RevA.03 25-Dec-2016

 -------------
 #p 6-31g* mp2
 -------------

 ------------------------------------------------------
 Input file generated by CHIRIPA (05-May-2021 14:53:12)
 ------------------------------------------------------
 Symbolic Z-matrix:
 Charge =  0 Multiplicity = 1

                         Standard orientation:
 ---------------------------------------------------------------------
 Center     Atomic      Atomic             Coordinates (Angstroms)
 Number     Number       Type             X           Y           Z
 ---------------------------------------------------------------------
      1          6           0       -3.552919   -0.532842    0.508586
      2          6           0       -2.665352   -1.689833    0.048608
      3          6           0       -1.419878   -1.861563    0.918721
      4          1           0       -2.966879    0.396366    0.499942
      5          1           0       -3.853796   -0.702932    1.551628
      6          1           0       -2.367370   -1.518303   -0.993698
      7          1           0       -3.253626   -2.616363    0.058164
      8          1           0       -1.700486   -2.057376    1.958681
      9          1           0       -0.809194   -0.953077    0.900843
     10          1           0       -0.799699   -2.694106    0.572151
     11          6           0       -4.801985   -0.348516   -0.351406
     12          6           0       -5.689552    0.808475    0.108573
     13          6           0       -6.935026    0.980206   -0.761541
     14          1           0       -4.501108   -0.178426   -1.394448
     15          1           0       -5.388025   -1.277724   -0.342762
     16          1           0       -5.101278    1.735005    0.099016
     17          1           0       -5.987534    0.636945    1.150878
     18          1           0       -7.545710    0.071720   -0.743663
     19          1           0       -6.654418    1.176019   -1.801501
     20          1           0       -7.555205    1.812748   -0.414971
     21          6           0        4.644794   -1.735673   -0.424878
     22          6           0        5.268783   -0.486487   -0.343070
     23          6           0        4.513483    0.672644   -0.141861
     24          6           0        3.130109    0.545363   -0.026259
     25          6           0        2.479169   -0.684928   -0.103411
     26          6           0        3.254430   -1.830739   -0.304998
     27          1           0        5.239281   -2.630940   -0.581329
     28          1           0        6.348384   -0.409645   -0.435816
     29          1           0        4.970752    1.652345   -0.074687
     30          1           0        1.401137   -0.729791   -0.007219
     31          1           0        2.767127   -2.799550   -0.368127
     32          7           0        2.319942    1.765432    0.186953
     33          8           0        1.102733    1.626502    0.285642
     34          8           0        2.917481    2.837550    0.251341
 ---------------------------------------------------------------------

 SCF Done:  E(RHF) =  -669.535963409     A.U. after   15 cycles
 E2 =    -0.2091264710D+01 EUMP2 =    -0.67162722811905D+03

 The electronic state is 1-A.
 Alpha  occ. eigenvalues --  -20.60824 -20.60818 -15.85868 -11.31167 -11.27747
 Alpha  occ. eigenvalues --  -11.27691 -11.27487 -11.26754 -11.26733 -11.21565
 Alpha  occ. eigenvalues --  -11.21274 -11.21243 -11.21117 -11.21051 -11.20791
 Alpha  occ. eigenvalues --   -1.59891  -1.39448  -1.19344  -1.08754  -1.08201
 Alpha  occ. eigenvalues --   -1.04738  -1.03382  -0.95852  -0.95592  -0.86880
 Alpha  occ. eigenvalues --   -0.86140  -0.82429  -0.79450  -0.77986  -0.77480
 Alpha  occ. eigenvalues --   -0.72091  -0.71208  -0.70463  -0.65000  -0.64866
 Alpha  occ. eigenvalues --   -0.64713  -0.62126  -0.60748  -0.59234  -0.57443
 Alpha  occ. eigenvalues --   -0.55325  -0.55057  -0.53075  -0.52870  -0.52561
 Alpha  occ. eigenvalues --   -0.52247  -0.49760  -0.48845  -0.48836  -0.47753
 Alpha  occ. eigenvalues --   -0.46442  -0.45538  -0.45428  -0.44863  -0.43623
 Alpha  occ. eigenvalues --   -0.37331  -0.36338
 Alpha virt. eigenvalues --    0.05042   0.11305   0.16547   0.20616   0.23139
 Alpha virt. eigenvalues --    0.24147   0.26410   0.26950   0.27404   0.28067
 Alpha virt. eigenvalues --    0.29367   0.29996   0.31548   0.31965   0.32385

 Mulliken charges:
               1
     1  C   -0.301475
     2  C   -0.297954
     3  C   -0.489753
     4  H    0.161183
     5  H    0.148775
     6  H    0.151723
     7  H    0.150720
     8  H    0.159039
     9  H    0.170152
    10  H    0.148974
    11  C   -0.298384
    12  C   -0.300258
    13  C   -0.475677
    14  H    0.149894
    15  H    0.147449
    16  H    0.155809
    17  H    0.151376
    18  H    0.153744
    19  H    0.155245
    20  H    0.160293
    21  C   -0.170300
    22  C   -0.219183
    23  C   -0.169948
    24  C    0.155890
    25  C   -0.175955
    26  C   -0.222810
    27  H    0.225543
    28  H    0.223316
    29  H    0.275421
    30  H    0.288783
    31  H    0.224055
    32  N    0.488226
    33  O   -0.464239
    34  O   -0.459677
 Sum of Mulliken charges =  -0.00000

 Dipole moment (field-independent basis, Debye):
    X=              2.8248    Y=             -4.1810    Z=             -0.7215  Tot=              5.0971
 Quadrupole moment (field-independent basis, Debye-Ang):
   XX=            -74.2255   YY=            -98.3151   ZZ=            -95.5340
   XY=             -9.1344   XZ=             -3.4787   YZ=             -0.5652

 Normal termination of Gaussian 16 at Wed May  5 21:43:56 2021.
