 Gaussian 16, Revision A.03,
 Gaussian 16:  EM64L-G16RevA.03 25-Dec-2016

 -------------
 #p 6-31g* mp2
 -------------

 ------------------------------------------------------
 Input file generated by CHIRIPA (05-May-2021 14:51:07)
 ------------------------------------------------------
 Symbolic Z-matrix:
 Charge =  0 Multiplicity = 1

                         Standard orientation:
 ---------------------------------------------------------------------
 Center     Atomic      Atomic             Coordinates (Angstroms)
 Number     Number       Type             X           Y           Z
 ---------------------------------------------------------------------
      1          6           0       -3.907959    0.222926    0.032271
      2          6           0       -3.405214    1.653616   -0.163586
      3          6           0       -1.884970    1.767242   -0.046358
      4          1           0       -3.586637   -0.140129    1.018115
      5          1           0       -3.432025   -0.430640   -0.711862
      6          1           0       -3.883006    2.304535    0.579808
      7          1           0       -3.727934    2.013375   -1.149000
      8          1           0       -1.392796    1.141341   -0.797766
      9          1           0       -1.548750    1.434156    0.940865
     10          1           0       -1.547211    2.798370   -0.189721
     11          6           0       -5.425797    0.093187   -0.082027
     12          6           0       -5.928541   -1.337503    0.113830
     13          6           0       -7.448785   -1.451129   -0.003398
     14          1           0       -5.901730    0.746752    0.662106
     15          1           0       -5.747118    0.456241   -1.067871
     16          1           0       -5.605822   -1.697262    1.099245
     17          1           0       -5.450750   -1.988423   -0.629564
     18          1           0       -7.785006   -1.118043   -0.990621
     19          1           0       -7.940959   -0.825228    0.748010
     20          1           0       -7.786545   -2.482258    0.139965
     21          6           0        3.976644   -0.176619   -0.301720
     22          6           0        2.858007    0.317387    0.616209
     23          6           0        1.483131    0.274249   -0.051358
     24          1           0        3.990991    0.435502   -1.213885
     25          1           0        3.754068   -1.204880   -0.618792
     26          1           0        3.083322    1.343919    0.932564
     27          1           0        2.846446   -0.295859    1.526380
     28          1           0        1.232711   -0.748288   -0.351875
     29          1           0        1.470934    0.900807   -0.949066
     30          1           0        0.698257    0.631657    0.622507
     31          6           0        5.357111   -0.139494    0.351475
     32          6           0        6.475748   -0.633500   -0.566453
     33          6           0        7.850626   -0.590362    0.101115
     34          1           0        5.579688    0.888767    0.668547
     35          1           0        5.342765   -0.751615    1.263641
     36          1           0        6.487310   -0.020254   -1.476625
     37          1           0        6.250433   -1.660032   -0.882809
     38          1           0        7.862822   -1.216920    0.998821
     39          1           0        8.101044    0.432175    0.401630
     40          1           0        8.635498   -0.947770   -0.572752
 ---------------------------------------------------------------------

 SCF Done:  E(RHF) =  -470.732322749     A.U. after   11 cycles
 E2 =    -0.1582711773D+01 EUMP2 =    -0.47231503452230D+03

 The electronic state is 1-A.
 Alpha  occ. eigenvalues --  -11.21586 -11.21567 -11.21548 -11.21501 -11.21379
 Alpha  occ. eigenvalues --  -11.21348 -11.21319 -11.21286 -11.21059 -11.21044
 Alpha  occ. eigenvalues --  -11.20992 -11.20877  -1.08405  -1.08366  -1.03526
 Alpha  occ. eigenvalues --   -1.03436  -0.96032  -0.95836  -0.87118  -0.86791
 Alpha  occ. eigenvalues --   -0.79692  -0.79411  -0.78227  -0.78170  -0.65035
 Alpha  occ. eigenvalues --   -0.64999  -0.60912  -0.60847  -0.59355  -0.59299
 Alpha  occ. eigenvalues --   -0.57673  -0.57415  -0.55276  -0.55166  -0.53022
 Alpha  occ. eigenvalues --   -0.52611  -0.52347  -0.51982  -0.49937  -0.49807
 Alpha  occ. eigenvalues --   -0.47928  -0.47769  -0.46616  -0.46537  -0.45770
 Alpha  occ. eigenvalues --   -0.45729  -0.45665  -0.45649  -0.43781  -0.43608
 Alpha virt. eigenvalues --    0.22677   0.22962   0.23721   0.24682   0.26399
 Alpha virt. eigenvalues --    0.26616   0.26764   0.27540   0.27647   0.29097
 Alpha virt. eigenvalues --    0.29666   0.31284   0.31552   0.31964   0.32240

 Mulliken charges:
               1
     1  C   -0.298155
     2  C   -0.300340
     3  C   -0.477605
     4  H    0.149341
     5  H    0.149670
     6  H    0.151374
     7  H    0.151624
     8  H    0.161374
     9  H    0.153947
    10  H    0.159771
    11  C   -0.298212
    12  C   -0.299610
    13  C   -0.475686
    14  H    0.149441
    15  H    0.149603
    16  H    0.151865
    17  H    0.151912
    18  H    0.155160
    19  H    0.155145
    20  H    0.160182
    21  C   -0.298451
    22  C   -0.300139
    23  C   -0.479679
    24  H    0.149369
    25  H    0.149185
    26  H    0.151533
    27  H    0.151149
    28  H    0.153432
    29  H    0.154145
    30  H    0.169170
    31  C   -0.298138
    32  C   -0.299544
    33  C   -0.475652
    34  H    0.149379
    35  H    0.149468
    36  H    0.151832
    37  H    0.151807
    38  H    0.155105
    39  H    0.155120
    40  H    0.160110
 Sum of Mulliken charges =  -0.00000

 Dipole moment (field-independent basis, Debye):
    X=             -0.0314    Y=              0.0132    Z=             -0.0053  Tot=              0.0345
 Quadrupole moment (field-independent basis, Debye-Ang):
   XX=            -87.4385   YY=            -83.9353   ZZ=            -83.7700
   XY=             -0.0664   XZ=             -0.5423   YZ=             -0.1821

 Normal termination of Gaussian 16 at Wed May  5 15:02:22 2021.
