 Gaussian 16, Revision A.03,
 Gaussian 16:  EM64L-G16RevA.03 25-Dec-2016

 -------------
 #p 6-31g* mp2
 -------------

 ------------------------------------------------------
 Input file generated by CHIRIPA (05-May-2021 14:53:15)
 ------------------------------------------------------
 Symbolic Z-matrix:
 Charge =  0 Multiplicity = 1

                         Standard orientation:
 ---------------------------------------------------------------------
 Center     Atomic      Atomic             Coordinates (Angstroms)
 Number     Number       Type             X           Y           Z
 ---------------------------------------------------------------------
      1          6           0        3.638255   -0.265268    0.248264
      2          6           0        3.682033   -1.774371    0.006035
      3          6           0        4.554536   -2.511211    1.022696
      4          1           0        4.660816    0.134934    0.214328
      5          1           0        3.261463   -0.074548    1.262684
      6          1           0        4.057324   -1.962145   -1.008122
      7          1           0        2.659230   -2.170997    0.040360
      8          1           0        4.178918   -2.353318    2.038856
      9          1           0        5.584955   -2.143280    0.984416
     10          1           0        4.571659   -3.588609    0.830916
     11          6           0        2.769995    0.485206   -0.760023
     12          6           0        2.726217    1.994309   -0.517794
     13          6           0        1.853714    2.731149   -1.534455
     14          1           0        3.146787    0.294486   -1.774444
     15          1           0        1.747434    0.085004   -0.726088
     16          1           0        3.749020    2.390935   -0.552120
     17          1           0        2.350926    2.182083    0.496363
     18          1           0        0.823295    2.363218   -1.496175
     19          1           0        2.229332    2.573256   -2.550615
     20          1           0        1.836592    3.808547   -1.342675
     21          6           0       -3.584368   -1.336761   -1.705987
     22          6           0       -2.271199   -0.871166   -1.829793
     23          6           0       -1.662112   -0.176915   -0.780233
     24          6           0       -2.398702    0.035014    0.384161
     25          6           0       -3.708628   -0.416387    0.537851
     26          6           0       -4.297635   -1.108287   -0.524643
     27          1           0       -4.049722   -1.875159   -2.526334
     28          1           0       -1.714868   -1.047149   -2.746074
     29          1           0       -0.646896    0.194547   -0.849310
     30          1           0       -4.237921   -0.225654    1.463533
     31          1           0       -5.317606   -1.468721   -0.425688
     32          7           0       -1.764517    0.768743    1.502129
     33          8           0       -2.434801    0.942531    2.517587
     34          8           0       -0.609169    1.156157    1.341766
 ---------------------------------------------------------------------

 SCF Done:  E(RHF) =  -669.535813822     A.U. after   15 cycles
 E2 =    -0.2092488476D+01 EUMP2 =    -0.67162830229774D+03

 The electronic state is 1-A.
 Alpha  occ. eigenvalues --  -20.60909 -20.60899 -15.85948 -11.31259 -11.27820
 Alpha  occ. eigenvalues --  -11.27801 -11.27554 -11.26832 -11.26816 -11.21378
 Alpha  occ. eigenvalues --  -11.21150 -11.21001 -11.20982 -11.20834 -11.20732
 Alpha  occ. eigenvalues --   -1.59972  -1.39528  -1.19427  -1.08832  -1.08076
 Alpha  occ. eigenvalues --   -1.04823  -1.03174  -0.95678  -0.95654  -0.86677
 Alpha  occ. eigenvalues --   -0.86227  -0.82509  -0.79243  -0.77946  -0.77548
 Alpha  occ. eigenvalues --   -0.72177  -0.71287  -0.70544  -0.65094  -0.64921
 Alpha  occ. eigenvalues --   -0.64590  -0.62188  -0.60518  -0.59027  -0.57273
 Alpha  occ. eigenvalues --   -0.55330  -0.54943  -0.53153  -0.52929  -0.52344
 Alpha  occ. eigenvalues --   -0.52102  -0.49602  -0.48932  -0.48920  -0.47570
 Alpha  occ. eigenvalues --   -0.46236  -0.45471  -0.45311  -0.44935  -0.43443
 Alpha  occ. eigenvalues --   -0.37405  -0.36420
 Alpha virt. eigenvalues --    0.04933   0.11178   0.16469   0.20033   0.23138
 Alpha virt. eigenvalues --    0.24097   0.25861   0.27475   0.27897   0.28201
 Alpha virt. eigenvalues --    0.29509   0.30775   0.31491   0.32152   0.32243

 Mulliken charges:
               1
     1  C   -0.299108
     2  C   -0.299287
     3  C   -0.475783
     4  H    0.148868
     5  H    0.159164
     6  H    0.148783
     7  H    0.149696
     8  H    0.157842
     9  H    0.154944
    10  H    0.158225
    11  C   -0.301105
    12  C   -0.301386
    13  C   -0.476942
    14  H    0.144228
    15  H    0.145505
    16  H    0.148941
    17  H    0.171639
    18  H    0.152345
    19  H    0.149180
    20  H    0.162847
    21  C   -0.170234
    22  C   -0.223369
    23  C   -0.181697
    24  C    0.155140
    25  C   -0.169563
    26  C   -0.218959
    27  H    0.226003
    28  H    0.224826
    29  H    0.295654
    30  H    0.275726
    31  H    0.223736
    32  N    0.488683
    33  O   -0.459045
    34  O   -0.465497
 Sum of Mulliken charges =  -0.00000

 Dipole moment (field-independent basis, Debye):
    X=             -2.2949    Y=             -2.5076    Z=             -3.7379  Tot=              5.0524
 Quadrupole moment (field-independent basis, Debye-Ang):
   XX=            -80.3812   YY=            -96.1255   ZZ=            -97.0489
   XY=              7.5559   XZ=              5.8107   YZ=             -0.7340

 Normal termination of Gaussian 16 at Wed May  5 21:54:08 2021.
