 Gaussian 16, Revision A.03,
 Gaussian 16:  EM64L-G16RevA.03 25-Dec-2016

 -------------
 #p 6-31g* mp2
 -------------

 ------------------------------------------------------
 Input file generated by CHIRIPA (05-May-2021 14:53:16)
 ------------------------------------------------------
 Symbolic Z-matrix:
 Charge =  0 Multiplicity = 1

                         Standard orientation:
 ---------------------------------------------------------------------
 Center     Atomic      Atomic             Coordinates (Angstroms)
 Number     Number       Type             X           Y           Z
 ---------------------------------------------------------------------
      1          6           0        4.891595    0.128068   -0.228402
      2          6           0        5.403477    1.468077    0.301065
      3          6           0        6.578770    2.014224   -0.510232
      4          1           0        5.714066   -0.600238   -0.220907
      5          1           0        4.589602    0.247720   -1.278106
      6          1           0        5.703121    1.346264    1.349870
      7          1           0        4.579643    2.193225    0.292489
      8          1           0        6.288907    2.164095   -1.555277
      9          1           0        7.418768    1.312321   -0.491889
     10          1           0        6.928855    2.972696   -0.114465
     11          6           0        3.716721   -0.430775    0.572282
     12          6           0        3.204838   -1.770784    0.042815
     13          6           0        2.029545   -2.316931    0.854113
     14          1           0        4.018714   -0.550427    1.621986
     15          1           0        2.894249    0.297531    0.564788
     16          1           0        4.028673   -2.495932    0.051391
     17          1           0        2.905195   -1.648971   -1.005989
     18          1           0        1.189547   -1.615029    0.835769
     19          1           0        2.319408   -2.466802    1.899158
     20          1           0        1.679460   -3.275404    0.458346
     21          6           0       -5.099581    1.865100    0.411015
     22          6           0       -3.776248    2.246336    0.166134
     23          6           0       -2.805487    1.287010   -0.136960
     24          6           0       -3.194701   -0.050634   -0.187050
     25          6           0       -4.505031   -0.461914    0.052058
     26          6           0       -5.459116    0.514572    0.353297
     27          1           0       -5.847214    2.616992    0.645745
     28          1           0       -3.494161    3.294442    0.210272
     29          1           0       -1.773823    1.554406   -0.330839
     30          1           0       -4.756016   -1.514435    0.000832
     31          1           0       -6.486081    0.215590    0.543025
     32          7           0       -2.175826   -1.075313   -0.506940
     33          8           0       -2.544231   -2.247264   -0.544968
     34          8           0       -1.028121   -0.687103   -0.713586
 ---------------------------------------------------------------------

 SCF Done:  E(RHF) =  -669.536132113     A.U. after   15 cycles
 E2 =    -0.2090865910D+01 EUMP2 =    -0.67162699802243D+03

 The electronic state is 1-A.
 Alpha  occ. eigenvalues --  -20.60964 -20.60956 -15.85992 -11.31310 -11.27875
 Alpha  occ. eigenvalues --  -11.27867 -11.27608 -11.26878 -11.26868 -11.21097
 Alpha  occ. eigenvalues --  -11.20684 -11.20667 -11.20471 -11.20365 -11.19465
 Alpha  occ. eigenvalues --   -1.60019  -1.39577  -1.19477  -1.08882  -1.07599
 Alpha  occ. eigenvalues --   -1.04873  -1.02613  -0.95726  -0.95052  -0.86274
 Alpha  occ. eigenvalues --   -0.86075  -0.82560  -0.78733  -0.77614  -0.77371
 Alpha  occ. eigenvalues --   -0.72217  -0.71333  -0.70586  -0.65134  -0.64876
 Alpha  occ. eigenvalues --   -0.64230  -0.62221  -0.59996  -0.58498  -0.56658
 Alpha  occ. eigenvalues --   -0.55378  -0.54332  -0.53204  -0.52965  -0.51740
 Alpha  occ. eigenvalues --   -0.51494  -0.49193  -0.48969  -0.48775  -0.47032
 Alpha  occ. eigenvalues --   -0.45795  -0.45063  -0.44881  -0.44694  -0.42883
 Alpha  occ. eigenvalues --   -0.37454  -0.36474
 Alpha virt. eigenvalues --    0.04887   0.11181   0.16367   0.21308   0.23635
 Alpha virt. eigenvalues --    0.25298   0.27219   0.27423   0.28145   0.28340
 Alpha virt. eigenvalues --    0.29039   0.30870   0.32212   0.32473   0.32587

 Mulliken charges:
               1
     1  C   -0.297782
     2  C   -0.298622
     3  C   -0.475186
     4  H    0.148223
     5  H    0.149700
     6  H    0.150583
     7  H    0.149665
     8  H    0.154637
     9  H    0.154820
    10  H    0.157817
    11  C   -0.297685
    12  C   -0.298526
    13  C   -0.479773
    14  H    0.145797
    15  H    0.149915
    16  H    0.146003
    17  H    0.156508
    18  H    0.173387
    19  H    0.144089
    20  H    0.162137
    21  C   -0.170570
    22  C   -0.218499
    23  C   -0.170741
    24  C    0.158199
    25  C   -0.170665
    26  C   -0.218548
    27  H    0.226069
    28  H    0.223868
    29  H    0.275321
    30  H    0.275965
    31  H    0.223903
    32  N    0.488909
    33  O   -0.458160
    34  O   -0.460757
 Sum of Mulliken charges =  -0.00000

 Dipole moment (field-independent basis, Debye):
    X=             -3.9392    Y=              3.5911    Z=              1.0455  Tot=              5.4320
 Quadrupole moment (field-independent basis, Debye-Ang):
   XX=            -71.0070   YY=            -93.0656   ZZ=            -96.1154
   XY=             -9.4530   XZ=             -2.8020   YZ=             -0.8769

 Normal termination of Gaussian 16 at Thu May  6 15:32:20 2021.
