 Gaussian 16, Revision A.03,
 Gaussian 16:  EM64L-G16RevA.03 25-Dec-2016

 -------------
 #p 6-31g* mp2
 -------------

 ------------------------------------------------------
 Input file generated by CHIRIPA (05-May-2021 14:55:25)
 ------------------------------------------------------
 Symbolic Z-matrix:
 Charge =  0 Multiplicity = 1

                         Standard orientation:
 ---------------------------------------------------------------------
 Center     Atomic      Atomic             Coordinates (Angstroms)
 Number     Number       Type             X           Y           Z
 ---------------------------------------------------------------------
      1          6           0        3.481077   -1.661846    0.879322
      2          6           0        3.023839   -0.737392    1.824223
      3          6           0        2.427469    0.459325    1.415861
      4          6           0        2.303835    0.700353    0.048415
      5          6           0        2.749464   -0.200876   -0.917242
      6          6           0        3.342674   -1.391115   -0.485988
      7          1           0        3.943124   -2.588969    1.205439
      8          1           0        3.130005   -0.944990    2.885202
      9          1           0        2.064730    1.192503    2.125994
     10          1           0        2.629735    0.034047   -1.967905
     11          1           0        3.696853   -2.107224   -1.222051
     12          7           0        1.674158    1.963835   -0.396017
     13          8           0        1.576970    2.152559   -1.606626
     14          8           0        1.289728    2.741504    0.474662
     15          6           0       -2.503212   -1.109831   -0.020065
     16          6           0       -1.479202   -1.161139   -1.154417
     17          6           0       -0.327836   -2.125642   -0.868265
     18          1           0       -1.997214   -0.813673    0.909022
     19          1           0       -2.902831   -2.119222    0.149732
     20          1           0       -1.082649   -0.151704   -1.322950
     21          1           0       -1.987732   -1.457024   -2.080951
     22          1           0       -0.704947   -3.142865   -0.721143
     23          1           0        0.205277   -1.830128    0.041165
     24          1           0        0.392423   -2.146673   -1.692064
     25          6           0       -3.660279   -0.149985   -0.291391
     26          6           0       -4.684290   -0.098678    0.842962
     27          6           0       -5.835656    0.865826    0.556809
     28          1           0       -3.260661    0.859405   -0.461187
     29          1           0       -4.166277   -0.446144   -1.220477
     30          1           0       -4.175760    0.197207    1.769496
     31          1           0       -5.080842   -1.108113    1.011495
     32          1           0       -6.368769    0.570312   -0.352621
     33          1           0       -5.458543    1.883048    0.409687
     34          1           0       -6.555914    0.886857    1.380608
 ---------------------------------------------------------------------

 SCF Done:  E(RHF) =  -669.534996630     A.U. after   15 cycles
 E2 =    -0.2093499483D+01 EUMP2 =    -0.67162849611341D+03

 The electronic state is 1-A.
 Alpha  occ. eigenvalues --  -20.60864 -20.60853 -15.85907 -11.31235 -11.27831
 Alpha  occ. eigenvalues --  -11.27780 -11.27547 -11.26844 -11.26779 -11.21389
 Alpha  occ. eigenvalues --  -11.21327 -11.21184 -11.21040 -11.20997 -11.20768
 Alpha  occ. eigenvalues --   -1.59933  -1.39486  -1.19424  -1.08817  -1.08185
 Alpha  occ. eigenvalues --   -1.04823  -1.03314  -0.95788  -0.95645  -0.86797
 Alpha  occ. eigenvalues --   -0.86215  -0.82488  -0.79376  -0.77986  -0.77541
 Alpha  occ. eigenvalues --   -0.72123  -0.71260  -0.70526  -0.65071  -0.64824
 Alpha  occ. eigenvalues --   -0.64810  -0.62170  -0.60738  -0.59167  -0.57386
 Alpha  occ. eigenvalues --   -0.55316  -0.55218  -0.53198  -0.52909  -0.52377
 Alpha  occ. eigenvalues --   -0.52163  -0.49627  -0.48883  -0.48881  -0.47691
 Alpha  occ. eigenvalues --   -0.46380  -0.45534  -0.45447  -0.44876  -0.43580
 Alpha  occ. eigenvalues --   -0.37397  -0.36347
 Alpha virt. eigenvalues --    0.04988   0.11194   0.16432   0.21217   0.22997
 Alpha virt. eigenvalues --    0.24355   0.26829   0.26846   0.27707   0.28116
 Alpha virt. eigenvalues --    0.28513   0.30771   0.31513   0.31842   0.32245

 Mulliken charges:
               1
     1  C   -0.170975
     2  C   -0.218885
     3  C   -0.172834
     4  C    0.158874
     5  C   -0.167974
     6  C   -0.214975
     7  H    0.226129
     8  H    0.223876
     9  H    0.275666
    10  H    0.275501
    11  H    0.223641
    12  N    0.488038
    13  O   -0.460331
    14  O   -0.460412
    15  C   -0.297695
    16  C   -0.303110
    17  C   -0.476106
    18  H    0.148280
    19  H    0.147163
    20  H    0.157946
    21  H    0.151834
    22  H    0.151423
    23  H    0.158865
    24  H    0.152687
    25  C   -0.299641
    26  C   -0.299387
    27  C   -0.475982
    28  H    0.156227
    29  H    0.149025
    30  H    0.151767
    31  H    0.149751
    32  H    0.154594
    33  H    0.158038
    34  H    0.158983
 Sum of Mulliken charges =  -0.00000

 Dipole moment (field-independent basis, Debye):
    X=              2.3043    Y=             -4.3629    Z=              1.5652  Tot=              5.1763
 Quadrupole moment (field-independent basis, Debye-Ang):
   XX=            -85.6681   YY=           -101.3863   ZZ=            -89.9619
   XY=             -8.4571   XZ=              3.3318   YZ=              2.6306

 Normal termination of Gaussian 16 at Thu May  6 14:23:18 2021.
