 Gaussian 16, Revision A.03,
 Gaussian 16:  EM64L-G16RevA.03 25-Dec-2016

 -------------
 #p 6-31g* mp2
 -------------

 ------------------------------------------------------
 Input file generated by CHIRIPA (05-May-2021 14:57:23)
 ------------------------------------------------------
 Symbolic Z-matrix:
 Charge =  0 Multiplicity = 1

                         Standard orientation:
 ---------------------------------------------------------------------
 Center     Atomic      Atomic             Coordinates (Angstroms)
 Number     Number       Type             X           Y           Z
 ---------------------------------------------------------------------
      1          6           0        0.931388   -1.639097    0.583758
      2          6           0        1.662154   -1.106503    1.650925
      3          6           0        2.832820   -0.378982    1.416823
      4          6           0        3.245585   -0.202466    0.097067
      5          6           0        2.539305   -0.720641   -0.987347
      6          6           0        1.371519   -1.444809   -0.729656
      7          1           0        0.023105   -2.202951    0.774776
      8          1           0        1.322724   -1.255812    2.671972
      9          1           0        3.417792    0.044330    2.224308
     10          1           0        2.902761   -0.555179   -1.994293
     11          1           0        0.806013   -1.857277   -1.560389
     12          7           0        4.483392    0.565953   -0.163253
     13          8           0        4.825852    0.707429   -1.335150
     14          8           0        5.087688    1.012213    0.809535
     15          6           0       -2.488152    2.788566   -0.036437
     16          6           0       -3.601702    2.292167    0.649211
     17          6           0       -3.917862    0.931262    0.598924
     18          6           0       -3.095083    0.091340   -0.149980
     19          6           0       -1.978819    0.555678   -0.843979
     20          6           0       -1.681685    1.920268   -0.779533
     21          1           0       -2.249941    3.847181    0.008126
     22          1           0       -4.229797    2.964170    1.227100
     23          1           0       -4.773930    0.520286    1.120138
     24          1           0       -1.371489   -0.138751   -1.411725
     25          1           0       -0.816258    2.302982   -1.313022
     26          7           0       -3.419716   -1.351341   -0.210711
     27          8           0       -2.678987   -2.070592   -0.877520
     28          8           0       -4.408745   -1.735545    0.409647
 ---------------------------------------------------------------------

 SCF Done:  E(RHF) =  -868.339749003     A.U. after   16 cycles
 E2 =    -0.2600548116D+01 EUMP2 =    -0.87094029711928D+03

 The electronic state is 1-A.
 Alpha  occ. eigenvalues --  -20.61795 -20.61735 -20.60925 -20.60919 -15.86782
 Alpha  occ. eigenvalues --  -15.85977 -11.31842 -11.31277 -11.28380 -11.28368
 Alpha  occ. eigenvalues --  -11.28029 -11.27866 -11.27849 -11.27406 -11.27306
 Alpha  occ. eigenvalues --  -11.27277 -11.26765 -11.26750  -1.60828  -1.60005
 Alpha  occ. eigenvalues --   -1.40393  -1.39559  -1.19987  -1.19438  -1.09431
 Alpha  occ. eigenvalues --   -1.08806  -1.05338  -1.04834  -0.96319  -0.95651
 Alpha  occ. eigenvalues --   -0.86758  -0.86201  -0.83161  -0.82495  -0.78260
 Alpha  occ. eigenvalues --   -0.77581  -0.73009  -0.72192  -0.72153  -0.71335
 Alpha  occ. eigenvalues --   -0.71089  -0.70416  -0.65635  -0.65357  -0.65057
 Alpha  occ. eigenvalues --   -0.64777  -0.62713  -0.62151  -0.55837  -0.55188
 Alpha  occ. eigenvalues --   -0.53734  -0.53473  -0.53075  -0.52874  -0.49787
 Alpha  occ. eigenvalues --   -0.49723  -0.48954  -0.48941  -0.45849  -0.44980
 Alpha  occ. eigenvalues --   -0.37979  -0.37478  -0.36799  -0.36431
 Alpha virt. eigenvalues --    0.04217   0.04956   0.10595   0.11204   0.15772
 Alpha virt. eigenvalues --    0.16432   0.20427   0.21777   0.25830   0.27221
 Alpha virt. eigenvalues --    0.28261   0.28650   0.30548   0.31030   0.31882

 Mulliken charges:
               1
     1  C   -0.173535
     2  C   -0.219243
     3  C   -0.171060
     4  C    0.157097
     5  C   -0.174771
     6  C   -0.231088
     7  H    0.241034
     8  H    0.224683
     9  H    0.275139
    10  H    0.274450
    11  H    0.231412
    12  N    0.487953
    13  O   -0.461521
    14  O   -0.460620
    15  C   -0.169834
    16  C   -0.218901
    17  C   -0.170952
    18  C    0.154780
    19  C   -0.168549
    20  C   -0.219066
    21  H    0.229232
    22  H    0.225571
    23  H    0.276070
    24  H    0.271395
    25  H    0.227867
    26  N    0.487819
    27  O   -0.470330
    28  O   -0.455031
 Sum of Mulliken charges =  -0.00000

 Dipole moment (field-independent basis, Debye):
    X=             -3.4073    Y=              2.4509    Z=              1.2402  Tot=              4.3766
 Quadrupole moment (field-independent basis, Debye-Ang):
   XX=           -138.0908   YY=           -103.3136   ZZ=            -98.6860
   XY=            -24.6864   XZ=             -0.3947   YZ=             -0.0311

 Normal termination of Gaussian 16 at Wed May  5 16:18:44 2021.
