 Gaussian 16, Revision A.03,
 Gaussian 16:  EM64L-G16RevA.03 25-Dec-2016

 -------------
 #p 6-31g* mp2
 -------------

 ------------------------------------------------------
 Input file generated by CHIRIPA (05-May-2021 14:55:18)
 ------------------------------------------------------
 Symbolic Z-matrix:
 Charge =  0 Multiplicity = 1

                         Standard orientation:
 ---------------------------------------------------------------------
 Center     Atomic      Atomic             Coordinates (Angstroms)
 Number     Number       Type             X           Y           Z
 ---------------------------------------------------------------------
      1          6           0        3.781790    1.032096   -1.747002
      2          6           0        2.579380    1.499540   -1.206420
      3          6           0        1.932054    0.786773   -0.192773
      4          6           0        2.517876   -0.394900    0.258613
      5          6           0        3.714872   -0.886541   -0.259828
      6          6           0        4.344705   -0.157355   -1.272817
      7          1           0        4.277854    1.592168   -2.534171
      8          1           0        2.139903    2.422969   -1.572731
      9          1           0        1.000311    1.125787    0.243511
     10          1           0        4.128625   -1.810380    0.125850
     11          1           0        5.278420   -0.522775   -1.690776
     12          7           0        1.841840   -1.158165    1.331367
     13          8           0        2.378500   -2.196418    1.711715
     14          8           0        0.788104   -0.703707    1.771532
     15          6           0       -3.870553   -0.227009   -0.062505
     16          6           0       -3.877931   -1.122513   -1.301860
     17          6           0       -4.893489   -2.261171   -1.202399
     18          1           0       -3.651621   -0.839184    0.823077
     19          1           0       -4.876413    0.189511    0.086331
     20          1           0       -2.872017   -1.536121   -1.449109
     21          1           0       -4.096681   -0.508102   -2.184619
     22          1           0       -5.906348   -1.864325   -1.078980
     23          1           0       -4.674726   -2.898185   -0.339290
     24          1           0       -4.881954   -2.888855   -2.098915
     25          6           0       -2.860443    0.915917   -0.146930
     26          6           0       -2.853064    1.811422    1.092426
     27          6           0       -1.837507    2.950080    0.992964
     28          1           0       -1.854583    0.499398   -0.295765
     29          1           0       -3.079374    1.528093   -1.032511
     30          1           0       -2.634315    1.197011    1.975185
     31          1           0       -3.858978    2.225029    1.239674
     32          1           0       -2.056269    3.587093    0.129856
     33          1           0       -0.824647    2.553234    0.869545
     34          1           0       -1.849041    3.577764    1.889480
 ---------------------------------------------------------------------

 SCF Done:  E(RHF) =  -669.535794901     A.U. after   15 cycles
 E2 =    -0.2091659887D+01 EUMP2 =    -0.67162745478792D+03

 The electronic state is 1-A.
 Alpha  occ. eigenvalues --  -20.60855 -20.60846 -15.85898 -11.31224 -11.27789
 Alpha  occ. eigenvalues --  -11.27777 -11.27525 -11.26802 -11.26785 -11.21358
 Alpha  occ. eigenvalues --  -11.21294 -11.21214 -11.21153 -11.21007 -11.20756
 Alpha  occ. eigenvalues --   -1.59922  -1.39478  -1.19394  -1.08797  -1.08157
 Alpha  occ. eigenvalues --   -1.04793  -1.03318  -0.95796  -0.95638  -0.86818
 Alpha  occ. eigenvalues --   -0.86194  -0.82470  -0.79382  -0.77980  -0.77519
 Alpha  occ. eigenvalues --   -0.72120  -0.71241  -0.70514  -0.65049  -0.64884
 Alpha  occ. eigenvalues --   -0.64687  -0.62175  -0.60679  -0.59160  -0.57405
 Alpha  occ. eigenvalues --   -0.55326  -0.55067  -0.53123  -0.52899  -0.52495
 Alpha  occ. eigenvalues --   -0.52229  -0.49736  -0.48877  -0.48871  -0.47707
 Alpha  occ. eigenvalues --   -0.46378  -0.45527  -0.45405  -0.44878  -0.43552
 Alpha  occ. eigenvalues --   -0.37374  -0.36390
 Alpha virt. eigenvalues --    0.04987   0.11227   0.16507   0.19804   0.23056
 Alpha virt. eigenvalues --    0.23980   0.25880   0.27302   0.27797   0.28045
 Alpha virt. eigenvalues --    0.29378   0.30671   0.31484   0.31880   0.32246

 Mulliken charges:
               1
     1  C   -0.170457
     2  C   -0.223098
     3  C   -0.183299
     4  C    0.157651
     5  C   -0.169670
     6  C   -0.219063
     7  H    0.225871
     8  H    0.224496
     9  H    0.294039
    10  H    0.275653
    11  H    0.223627
    12  N    0.486530
    13  O   -0.459592
    14  O   -0.462315
    15  C   -0.299190
    16  C   -0.299685
    17  C   -0.475943
    18  H    0.157524
    19  H    0.147811
    20  H    0.153323
    21  H    0.148742
    22  H    0.154034
    23  H    0.158121
    24  H    0.158843
    25  C   -0.299923
    26  C   -0.299958
    27  C   -0.478335
    28  H    0.151299
    29  H    0.144683
    30  H    0.164168
    31  H    0.150970
    32  H    0.151928
    33  H    0.147532
    34  H    0.163682
 Sum of Mulliken charges =  -0.00000

 Dipole moment (field-independent basis, Debye):
    X=              2.3745    Y=              2.6016    Z=             -3.6649  Tot=              5.0831
 Quadrupole moment (field-independent basis, Debye-Ang):
   XX=            -80.2604   YY=            -95.5419   ZZ=            -97.2139
   XY=              2.1349   XZ=             -9.4970   YZ=              1.9355

 Normal termination of Gaussian 16 at Thu May  6 02:52:19 2021.
