 Gaussian 16, Revision A.03,
 Gaussian 16:  EM64L-G16RevA.03 25-Dec-2016

 -------------
 #p 6-31g* mp2
 -------------

 ------------------------------------------------------
 Input file generated by CHIRIPA (05-May-2021 14:51:13)
 ------------------------------------------------------
 Symbolic Z-matrix:
 Charge =  0 Multiplicity = 1

                         Standard orientation:
 ---------------------------------------------------------------------
 Center     Atomic      Atomic             Coordinates (Angstroms)
 Number     Number       Type             X           Y           Z
 ---------------------------------------------------------------------
      1          6           0        2.454646    0.319843   -0.306397
      2          6           0        3.739991    1.049224   -0.698665
      3          6           0        3.586819    1.869309   -1.979990
      4          1           0        2.148232   -0.338805   -1.130556
      5          1           0        1.648533    1.055413   -0.177886
      6          1           0        4.543776    0.312628   -0.825047
      7          1           0        4.043485    1.706068    0.126600
      8          1           0        2.803995    2.625542   -1.862095
      9          1           0        3.307129    1.224184   -2.819150
     10          1           0        4.517433    2.382334   -2.241949
     11          6           0        2.591950   -0.504303    0.972532
     12          6           0        1.306605   -1.233684    1.364801
     13          6           0        1.459777   -2.053769    2.646126
     14          1           0        3.398063   -1.239872    0.844022
     15          1           0        2.898363    0.154345    1.796692
     16          1           0        1.003111   -1.890528    0.539536
     17          1           0        0.502820   -0.497088    1.491183
     18          1           0        1.739467   -1.408644    3.485286
     19          1           0        2.242601   -2.810001    2.528231
     20          1           0        0.529163   -2.566794    2.908084
     21          6           0       -2.765989   -0.476221   -0.781839
     22          6           0       -1.663849   -1.469340   -1.151958
     23          6           0       -2.164853   -2.600793   -2.050068
     24          1           0       -3.580574   -1.013534   -0.277167
     25          1           0       -3.193159   -0.053591   -1.701787
     26          1           0       -1.237944   -1.888939   -0.231547
     27          1           0       -0.851709   -0.929569   -1.655636
     28          1           0       -2.571682   -2.199865   -2.984062
     29          1           0       -2.960112   -3.164686   -1.551882
     30          1           0       -1.360745   -3.299078   -2.302396
     31          6           0       -2.280607    0.660681    0.115704
     32          6           0       -3.382747    1.653799    0.485822
     33          6           0       -2.881743    2.785254    1.383932
     34          1           0       -1.853437    0.238050    1.035651
     35          1           0       -1.466023    1.197993   -0.388968
     36          1           0       -4.194887    1.114029    0.989501
     37          1           0       -3.808653    2.073399   -0.434589
     38          1           0       -2.086484    3.349145    0.885746
     39          1           0       -2.474914    2.384325    2.317927
     40          1           0       -3.685852    3.483537    1.636260
 ---------------------------------------------------------------------

 SCF Done:  E(RHF) =  -470.732321220     A.U. after   11 cycles
 E2 =    -0.1584616698D+01 EUMP2 =    -0.47231693791891D+03

 The electronic state is 1-A.
 Alpha  occ. eigenvalues --  -11.21613 -11.21597 -11.21489 -11.21487 -11.21394
 Alpha  occ. eigenvalues --  -11.21379 -11.21330 -11.21317 -11.21104 -11.21083
 Alpha  occ. eigenvalues --  -11.21059 -11.21040  -1.08461  -1.08363  -1.03548
 Alpha  occ. eigenvalues --   -1.03483  -0.95975  -0.95969  -0.86999  -0.86975
 Alpha  occ. eigenvalues --   -0.79728  -0.79493  -0.78506  -0.77914  -0.65063
 Alpha  occ. eigenvalues --   -0.65034  -0.61010  -0.60837  -0.59432  -0.59253
 Alpha  occ. eigenvalues --   -0.57597  -0.57571  -0.55316  -0.55208  -0.52708
 Alpha  occ. eigenvalues --   -0.52627  -0.52414  -0.52387  -0.50000  -0.49838
 Alpha  occ. eigenvalues --   -0.48202  -0.47820  -0.46780  -0.46401  -0.46280
 Alpha  occ. eigenvalues --   -0.45662  -0.45614  -0.45060  -0.43783  -0.43734
 Alpha virt. eigenvalues --    0.21390   0.23179   0.23471   0.23817   0.25000
 Alpha virt. eigenvalues --    0.25898   0.26345   0.28060   0.28237   0.30151
 Alpha virt. eigenvalues --    0.30359   0.31408   0.31509   0.31934   0.32046

 Mulliken charges:
               1
     1  C   -0.300776
     2  C   -0.299621
     3  C   -0.475647
     4  H    0.150431
     5  H    0.151022
     6  H    0.151960
     7  H    0.152041
     8  H    0.154779
     9  H    0.154963
    10  H    0.160358
    11  C   -0.297582
    12  C   -0.308760
    13  C   -0.476022
    14  H    0.149065
    15  H    0.149228
    16  H    0.156612
    17  H    0.158388
    18  H    0.155012
    19  H    0.155124
    20  H    0.159052
    21  C   -0.297884
    22  C   -0.305960
    23  C   -0.475643
    24  H    0.149166
    25  H    0.149205
    26  H    0.159323
    27  H    0.153416
    28  H    0.154924
    29  H    0.154853
    30  H    0.159316
    31  C   -0.303500
    32  C   -0.299187
    33  C   -0.475724
    34  H    0.153084
    35  H    0.150895
    36  H    0.151977
    37  H    0.152081
    38  H    0.154752
    39  H    0.154758
    40  H    0.160519
 Sum of Mulliken charges =  -0.00000

 Dipole moment (field-independent basis, Debye):
    X=             -0.0041    Y=              0.0011    Z=              0.0033  Tot=              0.0054
 Quadrupole moment (field-independent basis, Debye-Ang):
   XX=            -84.8024   YY=            -85.0714   ZZ=            -85.1648
   XY=             -0.3377   XZ=             -0.5173   YZ=             -0.0014

 Normal termination of Gaussian 16 at Wed May  5 18:23:15 2021.
