 Gaussian 16, Revision A.03,
 Gaussian 16:  EM64L-G16RevA.03 25-Dec-2016

 -------------
 #p 6-31g* mp2
 -------------

 ------------------------------------------------------
 Input file generated by CHIRIPA (05-May-2021 14:53:16)
 ------------------------------------------------------
 Symbolic Z-matrix:
 Charge =  0 Multiplicity = 1

                         Standard orientation:
 ---------------------------------------------------------------------
 Center     Atomic      Atomic             Coordinates (Angstroms)
 Number     Number       Type             X           Y           Z
 ---------------------------------------------------------------------
      1          6           0       -2.294956    0.694970   -0.296550
      2          6           0       -2.459498    1.753572    0.794446
      3          6           0       -2.118115    3.162210    0.307627
      4          1           0       -1.260573    0.716118   -0.666074
      5          1           0       -2.936990    0.954750   -1.149604
      6          1           0       -1.818388    1.491131    1.645750
      7          1           0       -3.493560    1.729770    1.161550
      8          1           0       -2.765793    3.448802   -0.527226
      9          1           0       -1.081103    3.208806   -0.040275
     10          1           0       -2.242589    3.903174    1.103453
     11          6           0       -2.632554   -0.718371    0.174856
     12          6           0       -2.468013   -1.776974   -0.916139
     13          6           0       -2.809395   -3.185612   -0.429321
     14          1           0       -1.990520   -0.978152    1.027910
     15          1           0       -3.666938   -0.739520    0.544381
     16          1           0       -1.433951   -1.753172   -1.283243
     17          1           0       -3.109123   -1.514532   -1.767443
     18          1           0       -3.846407   -3.232208   -0.081419
     19          1           0       -2.161717   -3.472203    0.405532
     20          1           0       -2.684922   -3.926576   -1.225146
     21          6           0        2.009775    0.747279   -2.363657
     22          6           0        2.502030   -0.510120   -1.998757
     23          6           0        2.460063   -0.929542   -0.665763
     24          6           0        1.916594   -0.062220    0.280642
     25          6           0        1.418184    1.196542   -0.051620
     26          6           0        1.470375    1.595103   -1.390640
     27          1           0        2.046348    1.064994   -3.401500
     28          1           0        2.921495   -1.170643   -2.752285
     29          1           0        2.834122   -1.897700   -0.355655
     30          1           0        1.005936    1.832943    0.721984
     31          1           0        1.087347    2.572169   -1.671131
     32          7           0        1.866755   -0.495200    1.695012
     33          8           0        1.382980    0.287521    2.509842
     34          8           0        2.312408   -1.609092    1.961985
 ---------------------------------------------------------------------

 SCF Done:  E(RHF) =  -669.534625751     A.U. after   15 cycles
 E2 =    -0.2095145648D+01 EUMP2 =    -0.67162977139903D+03

 The electronic state is 1-A.
 Alpha  occ. eigenvalues --  -20.60923 -20.60918 -15.85968 -11.31317 -11.27899
 Alpha  occ. eigenvalues --  -11.27866 -11.27623 -11.26897 -11.26869 -11.21620
 Alpha  occ. eigenvalues --  -11.21530 -11.21508 -11.21278 -11.21211 -11.20933
 Alpha  occ. eigenvalues --   -1.59992  -1.39545  -1.19509  -1.08890  -1.08401
 Alpha  occ. eigenvalues --   -1.04918  -1.03571  -0.96036  -0.95730  -0.87055
 Alpha  occ. eigenvalues --   -0.86293  -0.82568  -0.79620  -0.78197  -0.77610
 Alpha  occ. eigenvalues --   -0.72184  -0.71318  -0.70609  -0.65199  -0.65080
 Alpha  occ. eigenvalues --   -0.64845  -0.62316  -0.60910  -0.59395  -0.57635
 Alpha  occ. eigenvalues --   -0.55477  -0.55292  -0.53287  -0.52979  -0.52730
 Alpha  occ. eigenvalues --   -0.52446  -0.49998  -0.48943  -0.48940  -0.47943
 Alpha  occ. eigenvalues --   -0.46649  -0.45735  -0.45626  -0.44930  -0.43778
 Alpha  occ. eigenvalues --   -0.37478  -0.36375
 Alpha virt. eigenvalues --    0.04888   0.11085   0.16307   0.19956   0.22970
 Alpha virt. eigenvalues --    0.23926   0.25886   0.26745   0.27646   0.28085
 Alpha virt. eigenvalues --    0.29163   0.29999   0.31485   0.31668   0.32400

 Mulliken charges:
               1
     1  C   -0.306986
     2  C   -0.306613
     3  C   -0.475757
     4  H    0.155986
     5  H    0.145781
     6  H    0.163725
     7  H    0.154433
     8  H    0.155883
     9  H    0.139953
    10  H    0.164523
    11  C   -0.299815
    12  C   -0.299905
    13  C   -0.476414
    14  H    0.155515
    15  H    0.149973
    16  H    0.150186
    17  H    0.149471
    18  H    0.155436
    19  H    0.159634
    20  H    0.158066
    21  C   -0.170165
    22  C   -0.218758
    23  C   -0.171188
    24  C    0.161236
    25  C   -0.176810
    26  C   -0.218644
    27  H    0.226714
    28  H    0.224295
    29  H    0.276181
    30  H    0.280121
    31  H    0.226347
    32  N    0.488253
    33  O   -0.461162
    34  O   -0.459496
 Sum of Mulliken charges =  -0.00000

 Dipole moment (field-independent basis, Debye):
    X=              0.2523    Y=              1.4640    Z=             -4.8951  Tot=              5.1156
 Quadrupole moment (field-independent basis, Debye-Ang):
   XX=            -92.8544   YY=            -92.6869   ZZ=            -97.6597
   XY=              0.4065   XZ=            -10.3400   YZ=              2.1315

 Normal termination of Gaussian 16 at Thu May  6 09:03:46 2021.
