 Gaussian 16, Revision A.03,
 Gaussian 16:  EM64L-G16RevA.03 25-Dec-2016

 -------------
 #p 6-31g* mp2
 -------------

 ------------------------------------------------------
 Input file generated by CHIRIPA (05-May-2021 14:57:22)
 ------------------------------------------------------
 Symbolic Z-matrix:
 Charge =  0 Multiplicity = 1

                         Standard orientation:
 ---------------------------------------------------------------------
 Center     Atomic      Atomic             Coordinates (Angstroms)
 Number     Number       Type             X           Y           Z
 ---------------------------------------------------------------------
      1          6           0        1.988947    2.225267    0.009623
      2          6           0        1.577571    0.994829    0.532416
      3          6           0        2.460291   -0.088381    0.577252
      4          6           0        3.752896    0.094880    0.088502
      5          6           0        4.192534    1.308302   -0.438390
      6          6           0        3.292817    2.377808   -0.473260
      7          1           0        1.296628    3.061408   -0.021336
      8          1           0        0.565567    0.873471    0.908136
      9          1           0        2.168087   -1.051968    0.976668
     10          1           0        5.207657    1.398793   -0.805480
     11          1           0        3.615051    3.332227   -0.879825
     12          7           0        4.696389   -1.044612    0.130693
     13          8           0        5.829851   -0.857422   -0.306183
     14          8           0        4.284572   -2.103359    0.599839
     15          6           0       -4.828400    1.896264    0.238996
     16          6           0       -5.526403    0.684909    0.282925
     17          6           0       -4.854624   -0.528427    0.106632
     18          6           0       -3.478388   -0.493334   -0.112537
     19          6           0       -2.754960    0.697263   -0.161722
     20          6           0       -3.447341    1.898572    0.017204
     21          1           0       -5.358256    2.834141    0.376967
     22          1           0       -6.598974    0.680084    0.455004
     23          1           0       -5.370295   -1.480606    0.135862
     24          1           0       -1.686012    0.670113   -0.335020
     25          1           0       -2.902674    2.837818   -0.017413
     26          7           0       -2.756300   -1.771471   -0.300564
     27          8           0       -1.543629   -1.713573   -0.492167
     28          8           0       -3.416673   -2.806972   -0.252776
 ---------------------------------------------------------------------

 SCF Done:  E(RHF) =  -868.337105256     A.U. after   16 cycles
 E2 =    -0.2599907795D+01 EUMP2 =    -0.87093701305028D+03

 The electronic state is 1-A.
 Alpha  occ. eigenvalues --  -20.61392 -20.61356 -20.60463 -20.60440 -15.86432
 Alpha  occ. eigenvalues --  -15.85511 -11.31883 -11.30968 -11.28533 -11.28396
 Alpha  occ. eigenvalues --  -11.28173 -11.27604 -11.27541 -11.27513 -11.27472
 Alpha  occ. eigenvalues --  -11.27422 -11.26667 -11.26658  -1.60446  -1.59528
 Alpha  occ. eigenvalues --   -1.40000  -1.39077  -1.20053  -1.19185  -1.09421
 Alpha  occ. eigenvalues --   -1.08594  -1.05480  -1.04593  -0.96249  -0.95396
 Alpha  occ. eigenvalues --   -0.86870  -0.86016  -0.83087  -0.82214  -0.78140
 Alpha  occ. eigenvalues --   -0.77215  -0.72644  -0.71771  -0.71732  -0.71159
 Alpha  occ. eigenvalues --   -0.70850  -0.70347  -0.65706  -0.65507  -0.64851
 Alpha  occ. eigenvalues --   -0.64638  -0.62847  -0.61903  -0.55947  -0.55195
 Alpha  occ. eigenvalues --   -0.53784  -0.53595  -0.52920  -0.52677  -0.49408
 Alpha  occ. eigenvalues --   -0.49394  -0.48505  -0.48471  -0.45388  -0.44460
 Alpha  occ. eigenvalues --   -0.38011  -0.37226  -0.37082  -0.36175
 Alpha virt. eigenvalues --    0.04392   0.05317   0.10526   0.11335   0.15907
 Alpha virt. eigenvalues --    0.16718   0.19406   0.22015   0.25443   0.26910
 Alpha virt. eigenvalues --    0.28210   0.29421   0.29912   0.31036   0.32232

 Mulliken charges:
               1
     1  C   -0.171718
     2  C   -0.220459
     3  C   -0.166014
     4  C    0.157912
     5  C   -0.170293
     6  C   -0.218523
     7  H    0.217457
     8  H    0.221178
     9  H    0.284363
    10  H    0.275519
    11  H    0.221798
    12  N    0.487968
    13  O   -0.462002
    14  O   -0.456547
    15  C   -0.170308
    16  C   -0.217875
    17  C   -0.169723
    18  C    0.159699
    19  C   -0.178188
    20  C   -0.218257
    21  H    0.227441
    22  H    0.226231
    23  H    0.278187
    24  H    0.273670
    25  H    0.219709
    26  N    0.487949
    27  O   -0.463496
    28  O   -0.455676
 Sum of Mulliken charges =  -0.00000

 Dipole moment (field-independent basis, Debye):
    X=             -6.0341    Y=              8.2585    Z=              0.5360  Tot=             10.2421
 Quadrupole moment (field-independent basis, Debye-Ang):
   XX=           -104.8864   YY=           -106.6126   ZZ=           -105.6946
   XY=              4.8301   XZ=             -5.1068   YZ=             -2.2325

 Normal termination of Gaussian 16 at Wed May  5 16:17:10 2021.
