 Gaussian 16, Revision A.03,
 Gaussian 16:  EM64L-G16RevA.03 25-Dec-2016

 -------------
 #p 6-31g* mp2
 -------------

 ------------------------------------------------------
 Input file generated by CHIRIPA (05-May-2021 14:53:13)
 ------------------------------------------------------
 Symbolic Z-matrix:
 Charge =  0 Multiplicity = 1

                         Standard orientation:
 ---------------------------------------------------------------------
 Center     Atomic      Atomic             Coordinates (Angstroms)
 Number     Number       Type             X           Y           Z
 ---------------------------------------------------------------------
      1          6           0       -4.888425    0.178903    0.305825
      2          6           0       -6.255069   -0.506734    0.292705
      3          6           0       -7.314316    0.271320    1.073999
      4          1           0       -4.559037    0.306018    1.346156
      5          1           0       -4.988467    1.188602   -0.115950
      6          1           0       -6.152211   -1.515347    0.713105
      7          1           0       -6.581155   -0.632404   -0.747723
      8          1           0       -7.446202    1.272789    0.651780
      9          1           0       -7.014820    0.384829    2.120908
     10          1           0       -8.283499   -0.236656    1.051553
     11          6           0       -3.818968   -0.586892   -0.471058
     12          6           0       -2.452325    0.098745   -0.457938
     13          6           0       -1.393078   -0.679310   -1.239232
     14          1           0       -3.718926   -1.596592   -0.049283
     15          1           0       -4.148357   -0.714007   -1.511389
     16          1           0       -2.126238    0.224415    0.582490
     17          1           0       -2.555182    1.107358   -0.878338
     18          1           0       -1.692573   -0.792818   -2.286141
     19          1           0       -1.261192   -1.680778   -0.817013
     20          1           0       -0.423895   -0.171333   -1.216786
     21          6           0        4.484759   -2.073468    0.518993
     22          6           0        4.953804   -0.923804    1.163034
     23          6           0        4.361117    0.318633    0.918861
     24          6           0        3.296583    0.375234    0.020610
     25          6           0        2.806600   -0.752251   -0.636645
     26          6           0        3.414540   -1.984181   -0.377211
     27          1           0        4.951097   -3.034542    0.714600
     28          1           0        5.784788   -0.990153    1.859531
     29          1           0        4.704240    1.224509    1.403707
     30          1           0        1.976526   -0.654574   -1.325742
     31          1           0        3.048177   -2.875365   -0.878822
     32          7           0        2.661058    1.684984   -0.245963
     33          8           0        1.724644    1.708224   -1.041719
     34          8           0        3.111380    2.663526    0.345900
 ---------------------------------------------------------------------

 SCF Done:  E(RHF) =  -669.535900894     A.U. after   15 cycles
 E2 =    -0.2091502855D+01 EUMP2 =    -0.67162740374810D+03

 The electronic state is 1-A.
 Alpha  occ. eigenvalues --  -20.60901 -20.60891 -15.85928 -11.31228 -11.27798
 Alpha  occ. eigenvalues --  -11.27769 -11.27534 -11.26804 -11.26786 -11.21371
 Alpha  occ. eigenvalues --  -11.21154 -11.21091 -11.21029 -11.20859 -11.20698
 Alpha  occ. eigenvalues --   -1.59959  -1.39517  -1.19400  -1.08809  -1.08110
 Alpha  occ. eigenvalues --   -1.04793  -1.03208  -0.95714  -0.95622  -0.86719
 Alpha  occ. eigenvalues --   -0.86194  -0.82487  -0.79284  -0.77917  -0.77544
 Alpha  occ. eigenvalues --   -0.72156  -0.71270  -0.70516  -0.65057  -0.64809
 Alpha  occ. eigenvalues --   -0.64742  -0.62170  -0.60611  -0.59020  -0.57262
 Alpha  occ. eigenvalues --   -0.55307  -0.54983  -0.53129  -0.52958  -0.52300
 Alpha  occ. eigenvalues --   -0.52097  -0.49640  -0.48910  -0.48902  -0.47579
 Alpha  occ. eigenvalues --   -0.46309  -0.45464  -0.45384  -0.44924  -0.43443
 Alpha  occ. eigenvalues --   -0.37382  -0.36389
 Alpha virt. eigenvalues --    0.04954   0.11227   0.16459   0.21146   0.23186
 Alpha virt. eigenvalues --    0.24523   0.26568   0.26965   0.27731   0.27859
 Alpha virt. eigenvalues --    0.28996   0.30213   0.31615   0.31686   0.32188

 Mulliken charges:
               1
     1  C   -0.298180
     2  C   -0.299302
     3  C   -0.475562
     4  H    0.149522
     5  H    0.151147
     6  H    0.150510
     7  H    0.151517
     8  H    0.155796
     9  H    0.154967
    10  H    0.159226
    11  C   -0.298419
    12  C   -0.296482
    13  C   -0.492351
    14  H    0.146422
    15  H    0.148748
    16  H    0.151822
    17  H    0.158807
    18  H    0.153816
    19  H    0.146016
    20  H    0.178883
    21  C   -0.170463
    22  C   -0.218769
    23  C   -0.170616
    24  C    0.156454
    25  C   -0.171119
    26  C   -0.220501
    27  H    0.225759
    28  H    0.223534
    29  H    0.275562
    30  H    0.281521
    31  H    0.224347
    32  N    0.489587
    33  O   -0.463182
    34  O   -0.459016
 Sum of Mulliken charges =  -0.00000

 Dipole moment (field-independent basis, Debye):
    X=              2.3553    Y=             -4.4897    Z=              0.9465  Tot=              5.1576
 Quadrupole moment (field-independent basis, Debye-Ang):
   XX=            -79.3288   YY=            -97.7810   ZZ=            -92.8227
   XY=            -13.0691   XZ=              6.3188   YZ=              1.0838

 Normal termination of Gaussian 16 at Thu May  6 15:23:35 2021.
