 Gaussian 16, Revision A.03,
 Gaussian 16:  EM64L-G16RevA.03 25-Dec-2016

 -------------
 #p 6-31g* mp2
 -------------

 ------------------------------------------------------
 Input file generated by CHIRIPA (05-May-2021 14:57:21)
 ------------------------------------------------------
 Symbolic Z-matrix:
 Charge =  0 Multiplicity = 1

                         Standard orientation:
 ---------------------------------------------------------------------
 Center     Atomic      Atomic             Coordinates (Angstroms)
 Number     Number       Type             X           Y           Z
 ---------------------------------------------------------------------
      1          6           0       -1.823088   -1.344048    0.797239
      2          6           0       -2.594430   -0.623946    1.715393
      3          6           0       -3.764487    0.022968    1.306717
      4          6           0       -4.135275   -0.071448   -0.033765
      5          6           0       -3.387991   -0.781238   -0.972409
      6          6           0       -2.221627   -1.420261   -0.541371
      7          1           0       -0.915594   -1.843521    1.123394
      8          1           0       -2.287350   -0.563048    2.755603
      9          1           0       -4.380361    0.587211    1.996462
     10          1           0       -3.719722   -0.823931   -2.002725
     11          1           0       -1.624556   -1.978793   -1.256629
     12          7           0       -5.372007    0.609234   -0.478248
     13          8           0       -5.677044    0.510845   -1.664802
     14          8           0       -6.012904    1.228252    0.368336
     15          6           0        1.428876    0.348641    0.235890
     16          6           0        2.213532    1.506346    0.259391
     17          6           0        3.601065    1.426844    0.107796
     18          6           0        4.173386    0.167680   -0.066114
     19          6           0        3.418583   -1.003978   -0.093989
     20          6           0        2.032841   -0.900625    0.059587
     21          1           0        0.351703    0.419664    0.354422
     22          1           0        1.747206    2.477883    0.396150
     23          1           0        4.232316    2.307036    0.122054
     24          1           0        3.912116   -1.958333   -0.232017
     25          1           0        1.425962   -1.801399    0.040923
     26          7           0        5.641357    0.070890   -0.227649
     27          8           0        6.121363   -1.050357   -0.379429
     28          8           0        6.284149    1.118104   -0.199423
 ---------------------------------------------------------------------

 SCF Done:  E(RHF) =  -868.336332237     A.U. after   16 cycles
 E2 =    -0.2601590070D+01 EUMP2 =    -0.87093792230711D+03

 The electronic state is 1-A.
 Alpha  occ. eigenvalues --  -20.61608 -20.61603 -20.61220 -20.61211 -15.86667
 Alpha  occ. eigenvalues --  -15.86280 -11.32278 -11.31742 -11.28837 -11.28830
 Alpha  occ. eigenvalues --  -11.28718 -11.28408 -11.28311 -11.28017 -11.27978
 Alpha  occ. eigenvalues --  -11.27947 -11.27505 -11.27291  -1.60678  -1.60293
 Alpha  occ. eigenvalues --   -1.40223  -1.39844  -1.20490  -1.19943  -1.09884
 Alpha  occ. eigenvalues --   -1.09308  -1.05895  -1.05378  -0.96671  -0.96111
 Alpha  occ. eigenvalues --   -0.87297  -0.86782  -0.83455  -0.82964  -0.78431
 Alpha  occ. eigenvalues --   -0.78007  -0.72880  -0.72500  -0.72005  -0.71772
 Alpha  occ. eigenvalues --   -0.71619  -0.70923  -0.66139  -0.65923  -0.65590
 Alpha  occ. eigenvalues --   -0.65384  -0.63206  -0.62733  -0.56476  -0.55975
 Alpha  occ. eigenvalues --   -0.54105  -0.53972  -0.53684  -0.53476  -0.49658
 Alpha  occ. eigenvalues --   -0.49620  -0.49263  -0.49241  -0.45573  -0.45227
 Alpha  occ. eigenvalues --   -0.38518  -0.37942  -0.37478  -0.36990
 Alpha virt. eigenvalues --    0.04025   0.04563   0.10089   0.10615   0.15355
 Alpha virt. eigenvalues --    0.16039   0.18463   0.21977   0.24732   0.26469
 Alpha virt. eigenvalues --    0.27858   0.29221   0.29713   0.30858   0.31639

 Mulliken charges:
               1
     1  C   -0.186896
     2  C   -0.219921
     3  C   -0.170464
     4  C    0.159778
     5  C   -0.169703
     6  C   -0.219588
     7  H    0.226901
     8  H    0.228266
     9  H    0.279333
    10  H    0.279765
    11  H    0.225599
    12  N    0.487765
    13  O   -0.457176
    14  O   -0.457479
    15  C   -0.177168
    16  C   -0.219844
    17  C   -0.169289
    18  C    0.158184
    19  C   -0.169335
    20  C   -0.225665
    21  H    0.234771
    22  H    0.226610
    23  H    0.277741
    24  H    0.276346
    25  H    0.211880
    26  N    0.488035
    27  O   -0.459923
    28  O   -0.458525
 Sum of Mulliken charges =  -0.00000

 Dipole moment (field-independent basis, Debye):
    X=             -1.0671    Y=             -1.8980    Z=              2.1045  Tot=              3.0282
 Quadrupole moment (field-independent basis, Debye-Ang):
   XX=           -183.3313   YY=            -99.5044   ZZ=           -101.3256
   XY=             10.5542   XZ=             -4.7183   YZ=              2.3692

 Normal termination of Gaussian 16 at Thu May  6 04:53:59 2021.
