 Gaussian 16, Revision A.03,
 Gaussian 16:  EM64L-G16RevA.03 25-Dec-2016

 -------------
 #p 6-31g* mp2
 -------------

 ------------------------------------------------------
 Input file generated by CHIRIPA (05-May-2021 14:51:11)
 ------------------------------------------------------
 Symbolic Z-matrix:
 Charge =  0 Multiplicity = 1

                         Standard orientation:
 ---------------------------------------------------------------------
 Center     Atomic      Atomic             Coordinates (Angstroms)
 Number     Number       Type             X           Y           Z
 ---------------------------------------------------------------------
      1          6           0        5.313513    0.194678   -0.107372
      2          6           0        5.917417   -1.186443   -0.363864
      3          6           0        7.436193   -1.209299   -0.188954
      4          1           0        5.773689    0.921680   -0.790491
      5          1           0        5.571108    0.516398    0.911223
      6          1           0        5.657592   -1.506061   -1.381190
      7          1           0        5.455612   -1.910277    0.319814
      8          1           0        7.711182   -0.915494    0.829212
      9          1           0        7.914310   -0.508981   -0.881457
     10          1           0        7.847018   -2.206144   -0.377056
     11          6           0        3.795952    0.233562   -0.278329
     12          6           0        3.192047    1.614683   -0.021837
     13          6           0        1.673272    1.637539   -0.196747
     14          1           0        3.538356   -0.088158   -1.296924
     15          1           0        3.335776   -0.493440    0.404790
     16          1           0        3.653853    2.338518   -0.705515
     17          1           0        3.451873    1.934301    0.995489
     18          1           0        1.195155    0.937222    0.495756
     19          1           0        1.398283    1.343735   -1.214913
     20          1           0        1.262447    2.634384   -0.008645
     21          6           0       -5.205819   -0.587726    0.051649
     22          6           0       -6.234515    0.251855   -0.706555
     23          6           0       -7.531727   -0.509324   -0.981590
     24          1           0       -4.984570   -1.495185   -0.526721
     25          1           0       -5.644445   -0.921998    1.002051
     26          1           0       -5.793597    0.585597   -1.654618
     27          1           0       -6.453197    1.157513   -0.126404
     28          1           0       -7.997092   -0.828992   -0.043588
     29          1           0       -7.333745   -1.404158   -1.580485
     30          1           0       -8.252947    0.109526   -1.524477
     31          6           0       -3.903646    0.159485    0.334052
     32          6           0       -2.874950   -0.680095    1.092256
     33          6           0       -1.577738    0.081083    1.367290
     34          1           0       -3.465019    0.493757   -0.616350
     35          1           0       -4.124895    1.066944    0.912422
     36          1           0       -2.656267   -1.585755    0.512104
     37          1           0       -3.315868   -1.013838    2.040319
     38          1           0       -1.775721    0.975917    1.966186
     39          1           0       -1.112372    0.400751    0.429288
     40          1           0       -0.856517   -0.537766    1.910177
 ---------------------------------------------------------------------

 SCF Done:  E(RHF) =  -470.732846175     A.U. after   11 cycles
 E2 =    -0.1582431555D+01 EUMP2 =    -0.47231527773092D+03

 The electronic state is 1-A.
 Alpha  occ. eigenvalues --  -11.21584 -11.21584 -11.21561 -11.21541 -11.21380
 Alpha  occ. eigenvalues --  -11.21375 -11.21320 -11.21315 -11.21058 -11.21058
 Alpha  occ. eigenvalues --  -11.20995 -11.20948  -1.08407  -1.08392  -1.03524
 Alpha  occ. eigenvalues --   -1.03468  -0.96012  -0.95885  -0.87076  -0.86863
 Alpha  occ. eigenvalues --   -0.79668  -0.79462  -0.78236  -0.78188  -0.65050
 Alpha  occ. eigenvalues --   -0.65012  -0.60974  -0.60827  -0.59339  -0.59293
 Alpha  occ. eigenvalues --   -0.57614  -0.57515  -0.55391  -0.55108  -0.52762
 Alpha  occ. eigenvalues --   -0.52635  -0.52468  -0.52185  -0.50044  -0.49715
 Alpha  occ. eigenvalues --   -0.47996  -0.47745  -0.46679  -0.46477  -0.45811
 Alpha  occ. eigenvalues --   -0.45720  -0.45686  -0.45594  -0.43751  -0.43743
 Alpha virt. eigenvalues --    0.22725   0.22929   0.23803   0.24638   0.26311
 Alpha virt. eigenvalues --    0.26557   0.26926   0.27511   0.27700   0.29062
 Alpha virt. eigenvalues --    0.30432   0.30963   0.31658   0.31864   0.32265

 Mulliken charges:
               1
     1  C   -0.298226
     2  C   -0.299605
     3  C   -0.475682
     4  H    0.149603
     5  H    0.149492
     6  H    0.151828
     7  H    0.151866
     8  H    0.155168
     9  H    0.155152
    10  H    0.160167
    11  C   -0.298233
    12  C   -0.299992
    13  C   -0.481066
    14  H    0.149225
    15  H    0.149532
    16  H    0.151375
    17  H    0.151784
    18  H    0.164062
    19  H    0.153306
    20  H    0.160004
    21  C   -0.298267
    22  C   -0.299622
    23  C   -0.475688
    24  H    0.149588
    25  H    0.149459
    26  H    0.151930
    27  H    0.151912
    28  H    0.155145
    29  H    0.155146
    30  H    0.160199
    31  C   -0.298469
    32  C   -0.299986
    33  C   -0.479805
    34  H    0.149827
    35  H    0.149578
    36  H    0.151755
    37  H    0.151458
    38  H    0.155128
    39  H    0.162591
    40  H    0.158362
 Sum of Mulliken charges =  -0.00000

 Dipole moment (field-independent basis, Debye):
    X=             -0.0132    Y=              0.0051    Z=              0.0047  Tot=              0.0149
 Quadrupole moment (field-independent basis, Debye-Ang):
   XX=            -87.0380   YY=            -84.8870   ZZ=            -83.1166
   XY=             -0.3810   XZ=             -0.7783   YZ=              0.0051

 Normal termination of Gaussian 16 at Wed May  5 19:50:11 2021.
