 Gaussian 16, Revision A.03,
 Gaussian 16:  EM64L-G16RevA.03 25-Dec-2016

 -------------
 #p 6-31g* mp2
 -------------

 ------------------------------------------------------
 Input file generated by CHIRIPA (05-May-2021 14:55:22)
 ------------------------------------------------------
 Symbolic Z-matrix:
 Charge =  0 Multiplicity = 1

                         Standard orientation:
 ---------------------------------------------------------------------
 Center     Atomic      Atomic             Coordinates (Angstroms)
 Number     Number       Type             X           Y           Z
 ---------------------------------------------------------------------
      1          6           0        0.729647   -1.598907    0.465257
      2          6           0        1.907925   -1.889410    1.160807
      3          6           0        3.100613   -1.233230    0.842262
      4          6           0        3.078829   -0.287957   -0.182079
      5          6           0        1.921083    0.023398   -0.893396
      6          6           0        0.739969   -0.645111   -0.557821
      7          1           0       -0.192366   -2.113432    0.719325
      8          1           0        1.902875   -2.629676    1.955807
      9          1           0        4.027093   -1.438787    1.364565
     10          1           0        1.957370    0.766222   -1.680997
     11          1           0       -0.173599   -0.417475   -1.099689
     12          7           0        4.335349    0.413238   -0.528322
     13          8           0        4.289772    1.241897   -1.434900
     14          8           0        5.341993    0.120898    0.113426
     15          6           0       -3.187566    0.684518    0.722872
     16          6           0       -2.169702    1.760010    0.341746
     17          6           0       -1.199797    2.085225    1.478106
     18          1           0       -3.751941    1.018689    1.604209
     19          1           0       -2.652428   -0.227465    1.021719
     20          1           0       -2.706625    2.669247    0.042383
     21          1           0       -1.607815    1.423324   -0.538902
     22          1           0       -0.638446    1.192664    1.772762
     23          1           0       -1.743499    2.445667    2.357350
     24          1           0       -0.480964    2.856373    1.184050
     25          6           0       -4.164089    0.348499   -0.402838
     26          6           0       -5.181951   -0.726994   -0.021712
     27          6           0       -6.151856   -1.052208   -1.158071
     28          1           0       -4.699226    1.260481   -0.701685
     29          1           0       -3.599713    0.014328   -1.284175
     30          1           0       -5.743838   -0.390306    0.858937
     31          1           0       -4.645028   -1.636231    0.277652
     32          1           0       -5.608154   -1.412650   -2.037316
     33          1           0       -6.713207   -0.159648   -1.452728
     34          1           0       -6.870689   -1.823356   -0.864015
 ---------------------------------------------------------------------

 SCF Done:  E(RHF) =  -669.535119485     A.U. after   15 cycles
 E2 =    -0.2092879724D+01 EUMP2 =    -0.67162799920960D+03

 The electronic state is 1-A.
 Alpha  occ. eigenvalues --  -20.60793 -20.60788 -15.85847 -11.31237 -11.27800
 Alpha  occ. eigenvalues --  -11.27796 -11.27563 -11.26834 -11.26816 -11.22365
 Alpha  occ. eigenvalues --  -11.22343 -11.22259 -11.22185 -11.21688 -11.21520
 Alpha  occ. eigenvalues --   -1.59868  -1.39420  -1.19414  -1.09228  -1.08805
 Alpha  occ. eigenvalues --   -1.04824  -1.04213  -0.96643  -0.95636  -0.87655
 Alpha  occ. eigenvalues --   -0.86219  -0.82470  -0.80290  -0.79050  -0.77509
 Alpha  occ. eigenvalues --   -0.72066  -0.71190  -0.70524  -0.65976  -0.65066
 Alpha  occ. eigenvalues --   -0.64777  -0.62245  -0.61529  -0.60012  -0.58260
 Alpha  occ. eigenvalues --   -0.55968  -0.55320  -0.53304  -0.53160  -0.53023
 Alpha  occ. eigenvalues --   -0.52910  -0.50573  -0.48833  -0.48818  -0.48581
 Alpha  occ. eigenvalues --   -0.47333  -0.46564  -0.46531  -0.44820  -0.44497
 Alpha  occ. eigenvalues --   -0.37378  -0.36392
 Alpha virt. eigenvalues --    0.05001   0.11150   0.16404   0.18824   0.22964
 Alpha virt. eigenvalues --    0.23937   0.24623   0.25311   0.27129   0.28396
 Alpha virt. eigenvalues --    0.29565   0.30280   0.31077   0.31376   0.31798

 Mulliken charges:
               1
     1  C   -0.174047
     2  C   -0.218517
     3  C   -0.170747
     4  C    0.158908
     5  C   -0.171825
     6  C   -0.216336
     7  H    0.226594
     8  H    0.223871
     9  H    0.275885
    10  H    0.275841
    11  H    0.226801
    12  N    0.488071
    13  O   -0.460187
    14  O   -0.460235
    15  C   -0.299035
    16  C   -0.300329
    17  C   -0.478077
    18  H    0.154401
    19  H    0.140767
    20  H    0.156259
    21  H    0.142668
    22  H    0.157842
    23  H    0.156080
    24  H    0.164000
    25  C   -0.298216
    26  C   -0.299288
    27  C   -0.476032
    28  H    0.153723
    29  H    0.144121
    30  H    0.154498
    31  H    0.148249
    32  H    0.154839
    33  H    0.157337
    34  H    0.162113
 Sum of Mulliken charges =  -0.00000

 Dipole moment (field-independent basis, Debye):
    X=             -4.4930    Y=             -2.4072    Z=              1.2648  Tot=              5.2518
 Quadrupole moment (field-independent basis, Debye-Ang):
   XX=           -120.8505   YY=            -91.9912   ZZ=            -93.4862
   XY=             -8.7253   XZ=              5.7559   YZ=             -1.9777

 Normal termination of Gaussian 16 at Thu May  6 15:51:47 2021.
