 Gaussian 16, Revision A.03,
 Gaussian 16:  EM64L-G16RevA.03 25-Dec-2016

 -------------
 #p 6-31g* mp2
 -------------

 ------------------------------------------------------
 Input file generated by CHIRIPA (05-May-2021 14:55:23)
 ------------------------------------------------------
 Symbolic Z-matrix:
 Charge =  0 Multiplicity = 1

                         Standard orientation:
 ---------------------------------------------------------------------
 Center     Atomic      Atomic             Coordinates (Angstroms)
 Number     Number       Type             X           Y           Z
 ---------------------------------------------------------------------
      1          6           0       -0.390394   -0.685108    0.902919
      2          6           0       -0.650749   -0.628465   -0.470226
      3          6           0       -1.950578   -0.413953   -0.938177
      4          6           0       -2.970784   -0.259532   -0.000828
      5          6           0       -2.743227   -0.310901    1.373533
      6          6           0       -1.435621   -0.526425    1.818802
      7          1           0        0.622365   -0.852139    1.257624
      8          1           0        0.159029   -0.751361   -1.183809
      9          1           0       -2.180232   -0.365633   -1.995694
     10          1           0       -3.571095   -0.184808    2.060668
     11          1           0       -1.236371   -0.569946    2.885784
     12          7           0       -4.350972   -0.031902   -0.484220
     13          8           0       -5.232349    0.101115    0.362017
     14          8           0       -4.525251    0.009186   -1.700187
     15          6           0        3.504502   -0.358113    0.094649
     16          6           0        4.629940   -1.167037   -0.551121
     17          6           0        4.602754   -2.642285   -0.150252
     18          1           0        3.580088   -0.444103    1.187278
     19          1           0        2.537840   -0.797912   -0.187371
     20          1           0        5.594143   -0.725011   -0.269089
     21          1           0        4.551781   -1.078954   -1.642335
     22          1           0        3.655538   -3.104562   -0.446366
     23          1           0        4.703823   -2.748607    0.934682
     24          1           0        5.415816   -3.201865   -0.623180
     25          6           0        3.518379    1.118557   -0.296482
     26          6           0        2.392941    1.927481    0.349287
     27          6           0        2.420126    3.402729   -0.051581
     28          1           0        4.485041    1.558356   -0.014461
     29          1           0        3.442793    1.204547   -1.389111
     30          1           0        2.471100    1.839398    1.440502
     31          1           0        1.428738    1.485455    0.067256
     32          1           0        2.319058    3.509051   -1.136514
     33          1           0        3.367343    3.865006    0.244534
     34          1           0        1.607064    3.962309    0.421347
 ---------------------------------------------------------------------

 SCF Done:  E(RHF) =  -669.534329259     A.U. after   15 cycles
 E2 =    -0.2093799910D+01 EUMP2 =    -0.67162812916951D+03

 The electronic state is 1-A.
 Alpha  occ. eigenvalues --  -20.60746 -20.60741 -15.85802 -11.31161 -11.27757
 Alpha  occ. eigenvalues --  -11.27746 -11.27405 -11.26741 -11.26716 -11.22695
 Alpha  occ. eigenvalues --  -11.22575 -11.22376 -11.22309 -11.21968 -11.21669
 Alpha  occ. eigenvalues --   -1.59823  -1.39377  -1.19346  -1.09469  -1.08726
 Alpha  occ. eigenvalues --   -1.04754  -1.04399  -0.96869  -0.95569  -0.87872
 Alpha  occ. eigenvalues --   -0.86157  -0.82408  -0.80493  -0.79337  -0.77452
 Alpha  occ. eigenvalues --   -0.72021  -0.71147  -0.70441  -0.66163  -0.64982
 Alpha  occ. eigenvalues --   -0.64713  -0.62103  -0.61798  -0.60233  -0.58491
 Alpha  occ. eigenvalues --   -0.56169  -0.55240  -0.53499  -0.53309  -0.53064
 Alpha  occ. eigenvalues --   -0.52841  -0.50803  -0.48798  -0.48779  -0.48775
 Alpha  occ. eigenvalues --   -0.47541  -0.46774  -0.46726  -0.44784  -0.44704
 Alpha  occ. eigenvalues --   -0.37241  -0.36353
 Alpha virt. eigenvalues --    0.05080   0.11163   0.16549   0.19611   0.22676
 Alpha virt. eigenvalues --    0.23558   0.24739   0.25560   0.27079   0.27959
 Alpha virt. eigenvalues --    0.30142   0.30622   0.30822   0.31302   0.31582

 Mulliken charges:
               1
     1  C   -0.171100
     2  C   -0.223737
     3  C   -0.171113
     4  C    0.157788
     5  C   -0.170404
     6  C   -0.220423
     7  H    0.234514
     8  H    0.224569
     9  H    0.275534
    10  H    0.275568
    11  H    0.223576
    12  N    0.488101
    13  O   -0.460482
    14  O   -0.460617
    15  C   -0.305583
    16  C   -0.299395
    17  C   -0.476756
    18  H    0.149409
    19  H    0.140749
    20  H    0.156430
    21  H    0.154024
    22  H    0.153311
    23  H    0.155741
    24  H    0.164795
    25  C   -0.297789
    26  C   -0.309118
    27  C   -0.475507
    28  H    0.153803
    29  H    0.150838
    30  H    0.149155
    31  H    0.157429
    32  H    0.156559
    33  H    0.156408
    34  H    0.163722
 Sum of Mulliken charges =  -0.00000

 Dipole moment (field-independent basis, Debye):
    X=              5.0398    Y=             -0.7508    Z=              1.6982  Tot=              5.3710
 Quadrupole moment (field-independent basis, Debye-Ang):
   XX=           -122.6045   YY=            -95.9814   ZZ=            -89.7092
   XY=              1.2599   XZ=             -6.5531   YZ=              0.1400

 Normal termination of Gaussian 16 at Wed May  5 23:56:43 2021.
