 Gaussian 16, Revision A.03,
 Gaussian 16:  EM64L-G16RevA.03 25-Dec-2016

 -------------
 #p 6-31g* mp2
 -------------

 ------------------------------------------------------
 Input file generated by CHIRIPA (05-May-2021 14:57:21)
 ------------------------------------------------------
 Symbolic Z-matrix:
 Charge =  0 Multiplicity = 1

                         Standard orientation:
 ---------------------------------------------------------------------
 Center     Atomic      Atomic             Coordinates (Angstroms)
 Number     Number       Type             X           Y           Z
 ---------------------------------------------------------------------
      1          6           0        1.027437   -0.257672   -0.263683
      2          6           0        1.599554    0.874165    0.326357
      3          6           0        2.988638    0.998705    0.423732
      4          6           0        3.779224   -0.032257   -0.081623
      5          6           0        3.239166   -1.172219   -0.675014
      6          6           0        1.847623   -1.275458   -0.761607
      7          1           0       -0.052592   -0.346144   -0.335138
      8          1           0        0.965045    1.666155    0.713909
      9          1           0        3.457984    1.864096    0.875651
     10          1           0        3.897585   -1.945228   -1.052320
     11          1           0        1.406080   -2.155594   -1.220351
     12          7           0        5.251087    0.088313    0.015756
     13          8           0        5.925718   -0.833884   -0.437081
     14          8           0        5.702231    1.102729    0.543076
     15          6           0       -3.421718    2.538155   -0.317516
     16          6           0       -2.507974    1.930321    0.549739
     17          6           0       -2.562282    0.553662    0.787241
     18          6           0       -3.547753   -0.188212    0.137811
     19          6           0       -4.472280    0.388266   -0.731795
     20          6           0       -4.399231    1.766548   -0.954392
     21          1           0       -3.372251    3.608208   -0.496224
     22          1           0       -1.747757    2.527075    1.045723
     23          1           0       -1.867369    0.057401    1.453754
     24          1           0       -5.218846   -0.232820   -1.211701
     25          1           0       -5.110165    2.235907   -1.628426
     26          7           0       -3.615167   -1.646479    0.381354
     27          8           0       -4.492872   -2.277940   -0.203049
     28          8           0       -2.789023   -2.130395    1.152035
 ---------------------------------------------------------------------

 SCF Done:  E(RHF) =  -868.337143898     A.U. after   16 cycles
 E2 =    -0.2601239777D+01 EUMP2 =    -0.87093838367545D+03

 The electronic state is 1-A.
 Alpha  occ. eigenvalues --  -20.61824 -20.61801 -20.60814 -20.60803 -15.86869
 Alpha  occ. eigenvalues --  -15.85868 -11.32353 -11.31245 -11.28956 -11.28845
 Alpha  occ. eigenvalues --  -11.28599 -11.28009 -11.27890 -11.27848 -11.27779
 Alpha  occ. eigenvalues --  -11.27507 -11.26963 -11.26735  -1.60892  -1.59887
 Alpha  occ. eigenvalues --   -1.40441  -1.39440  -1.20522  -1.19425  -1.09871
 Alpha  occ. eigenvalues --   -1.08814  -1.05942  -1.04841  -0.96695  -0.95642
 Alpha  occ. eigenvalues --   -0.87318  -0.86242  -0.83522  -0.82486  -0.78578
 Alpha  occ. eigenvalues --   -0.77533  -0.73072  -0.72238  -0.72086  -0.71614
 Alpha  occ. eigenvalues --   -0.71210  -0.70494  -0.66156  -0.65919  -0.65083
 Alpha  occ. eigenvalues --   -0.64891  -0.63254  -0.62188  -0.56373  -0.55439
 Alpha  occ. eigenvalues --   -0.54165  -0.53960  -0.53151  -0.52934  -0.49845
 Alpha  occ. eigenvalues --   -0.49828  -0.48846  -0.48838  -0.45817  -0.44843
 Alpha  occ. eigenvalues --   -0.38463  -0.37537  -0.37388  -0.36446
 Alpha virt. eigenvalues --    0.03923   0.05010   0.09974   0.11189   0.15343
 Alpha virt. eigenvalues --    0.16462   0.18808   0.22031   0.24702   0.27065
 Alpha virt. eigenvalues --    0.27697   0.29182   0.29355   0.31232   0.32229

 Mulliken charges:
               1
     1  C   -0.173123
     2  C   -0.222494
     3  C   -0.170517
     4  C    0.158335
     5  C   -0.170119
     6  C   -0.218820
     7  H    0.231564
     8  H    0.212098
     9  H    0.274393
    10  H    0.276860
    11  H    0.229220
    12  N    0.488104
    13  O   -0.459314
    14  O   -0.461417
    15  C   -0.169629
    16  C   -0.220416
    17  C   -0.185998
    18  C    0.159569
    19  C   -0.169727
    20  C   -0.217123
    21  H    0.230170
    22  H    0.222762
    23  H    0.277449
    24  H    0.279207
    25  H    0.228285
    26  N    0.487719
    27  O   -0.455695
    28  O   -0.461344
 Sum of Mulliken charges =  -0.00000

 Dipole moment (field-independent basis, Debye):
    X=             -5.2779    Y=              4.6320    Z=             -1.3506  Tot=              7.1510
 Quadrupole moment (field-independent basis, Debye-Ang):
   XX=           -141.9553   YY=           -103.0955   ZZ=           -103.2073
   XY=            -20.6942   XZ=              4.9912   YZ=              3.3901

 Normal termination of Gaussian 16 at Wed May  5 17:43:00 2021.
