 Gaussian 16, Revision A.03,
 Gaussian 16:  EM64L-G16RevA.03 25-Dec-2016

 -------------
 #p 6-31g* mp2
 -------------

 ------------------------------------------------------
 Input file generated by CHIRIPA (05-May-2021 14:53:12)
 ------------------------------------------------------
 Symbolic Z-matrix:
 Charge =  0 Multiplicity = 1

                         Standard orientation:
 ---------------------------------------------------------------------
 Center     Atomic      Atomic             Coordinates (Angstroms)
 Number     Number       Type             X           Y           Z
 ---------------------------------------------------------------------
      1          6           0        3.162336    0.793897   -0.240851
      2          6           0        2.364186    1.509179   -1.331408
      3          6           0        2.608631    3.018391   -1.349281
      4          1           0        2.899659    1.220931    0.736691
      5          1           0        4.232877    0.991135   -0.390627
      6          1           0        1.295562    1.309516   -1.180431
      7          1           0        2.628651    1.080262   -2.306449
      8          1           0        3.667634    3.235092   -1.522933
      9          1           0        2.326971    3.465649   -0.390517
     10          1           0        2.028276    3.509793   -2.136410
     11          6           0        2.928557   -0.715455   -0.210321
     12          6           0        3.726707   -1.430736    0.880236
     13          6           0        3.482261   -2.939948    0.898109
     14          1           0        1.858015   -0.912693   -0.060545
     15          1           0        3.191233   -1.142489   -1.187863
     16          1           0        3.462242   -1.001819    1.855276
     17          1           0        4.795330   -1.231074    0.729259
     18          1           0        3.763922   -3.387206   -0.060655
     19          1           0        2.423258   -3.156649    1.071761
     20          1           0        4.062616   -3.431351    1.685238
     21          6           0       -1.421651    1.278612    2.108795
     22          6           0       -0.566977    0.665854    1.186526
     23          6           0       -1.086470   -0.062057    0.111900
     24          6           0       -2.471833   -0.157215   -0.010593
     25          6           0       -3.349374    0.441930    0.891757
     26          6           0       -2.807678    1.164895    1.958732
     27          1           0       -1.009473    1.842149    2.940619
     28          1           0        0.509839    0.752490    1.300569
     29          1           0       -0.447759   -0.546459   -0.616674
     30          1           0       -4.418480    0.337886    0.751742
     31          1           0       -3.473834    1.639721    2.673449
     32          7           0       -3.033548   -0.925204   -1.144202
     33          8           0       -4.257699   -0.994112   -1.229888
     34          8           0       -2.239034   -1.443703   -1.925574
 ---------------------------------------------------------------------

 SCF Done:  E(RHF) =  -669.534099419     A.U. after   15 cycles
 E2 =    -0.2094447167D+01 EUMP2 =    -0.67162854658567D+03

 The electronic state is 1-A.
 Alpha  occ. eigenvalues --  -20.60765 -20.60759 -15.85817 -11.31193 -11.27771
 Alpha  occ. eigenvalues --  -11.27730 -11.27506 -11.26791 -11.26739 -11.22314
 Alpha  occ. eigenvalues --  -11.22286 -11.22248 -11.22212 -11.21637 -11.21513
 Alpha  occ. eigenvalues --   -1.59839  -1.39392  -1.19374  -1.09248  -1.08759
 Alpha  occ. eigenvalues --   -1.04787  -1.04173  -0.96635  -0.95597  -0.87639
 Alpha  occ. eigenvalues --   -0.86174  -0.82450  -0.80247  -0.79084  -0.77477
 Alpha  occ. eigenvalues --   -0.72036  -0.71162  -0.70496  -0.66130  -0.65004
 Alpha  occ. eigenvalues --   -0.64692  -0.62088  -0.61538  -0.59985  -0.58234
 Alpha  occ. eigenvalues --   -0.55957  -0.55249  -0.53270  -0.53144  -0.52995
 Alpha  occ. eigenvalues --   -0.52867  -0.50576  -0.48796  -0.48792  -0.48547
 Alpha  occ. eigenvalues --   -0.47309  -0.46544  -0.46504  -0.44794  -0.44479
 Alpha  occ. eigenvalues --   -0.37351  -0.36346
 Alpha virt. eigenvalues --    0.05001   0.11247   0.16366   0.19163   0.23023
 Alpha virt. eigenvalues --    0.23784   0.24745   0.25490   0.27116   0.28607
 Alpha virt. eigenvalues --    0.30486   0.30867   0.31176   0.31511   0.31983

 Mulliken charges:
               1
     1  C   -0.303518
     2  C   -0.306417
     3  C   -0.474911
     4  H    0.140648
     5  H    0.156651
     6  H    0.151710
     7  H    0.158507
     8  H    0.157259
     9  H    0.151763
    10  H    0.164923
    11  C   -0.306321
    12  C   -0.298981
    13  C   -0.476605
    14  H    0.144003
    15  H    0.158201
    16  H    0.147967
    17  H    0.155235
    18  H    0.158750
    19  H    0.156905
    20  H    0.162127
    21  C   -0.172933
    22  C   -0.223089
    23  C   -0.179975
    24  C    0.159525
    25  C   -0.170997
    26  C   -0.218454
    27  H    0.225951
    28  H    0.233744
    29  H    0.281139
    30  H    0.275688
    31  H    0.223617
    32  N    0.488677
    33  O   -0.460496
    34  O   -0.460291
 Sum of Mulliken charges =  -0.00000

 Dipole moment (field-independent basis, Debye):
    X=              2.1187    Y=              2.6590    Z=              3.8861  Tot=              5.1634
 Quadrupole moment (field-independent basis, Debye-Ang):
   XX=            -98.9973   YY=            -97.0093   ZZ=            -94.3588
   XY=             -8.5746   XZ=            -12.5707   YZ=             -0.1032

 Normal termination of Gaussian 16 at Thu May  6 08:49:00 2021.
