 Gaussian 16, Revision A.03,
 Gaussian 16:  EM64L-G16RevA.03 25-Dec-2016

 -------------
 #p 6-31g* mp2
 -------------

 ------------------------------------------------------
 Input file generated by CHIRIPA (05-May-2021 14:55:25)
 ------------------------------------------------------
 Symbolic Z-matrix:
 Charge =  0 Multiplicity = 1

                         Standard orientation:
 ---------------------------------------------------------------------
 Center     Atomic      Atomic             Coordinates (Angstroms)
 Number     Number       Type             X           Y           Z
 ---------------------------------------------------------------------
      1          6           0        4.570253    0.833213   -0.974983
      2          6           0        3.614372    1.509061   -0.209448
      3          6           0        2.566822    0.809708    0.397257
      4          6           0        2.505385   -0.571208    0.216742
      5          6           0        3.442427   -1.273008   -0.540040
      6          6           0        4.481386   -0.553220   -1.137549
      7          1           0        5.380678    1.384425   -1.442715
      8          1           0        3.680881    2.585744   -0.081482
      9          1           0        1.813289    1.307835    0.995150
     10          1           0        3.349715   -2.346709   -0.649528
     11          1           0        5.222318   -1.080722   -1.731524
     12          7           0        1.400938   -1.322399    0.854166
     13          8           0        1.369111   -2.538641    0.679871
     14          8           0        0.588011   -0.680715    1.516005
     15          6           0       -3.669581   -0.155712   -0.131863
     16          6           0       -5.086195   -0.353090   -0.672446
     17          6           0       -5.531444   -1.815528   -0.643777
     18          1           0       -2.970800   -0.764856   -0.721435
     19          1           0       -3.621745   -0.534394    0.898528
     20          1           0       -5.131703    0.027115   -1.701032
     21          1           0       -5.781659    0.256743   -0.081640
     22          1           0       -5.514466   -2.203396    0.379880
     23          1           0       -4.860817   -2.434328   -1.248713
     24          1           0       -6.546904   -1.933759   -1.034575
     25          6           0       -3.210191    1.301064   -0.154054
     26          6           0       -1.793577    1.498441    0.386529
     27          6           0       -1.348328    2.960879    0.357860
     28          1           0       -3.258027    1.679745   -1.184446
     29          1           0       -3.908972    1.910208    0.435518
     30          1           0       -1.098113    0.888608   -0.204277
     31          1           0       -1.748069    1.118237    1.415115
     32          1           0       -2.018954    3.579681    0.962796
     33          1           0       -1.365306    3.348747   -0.665797
     34          1           0       -0.332869    3.079112    0.748658
 ---------------------------------------------------------------------

 SCF Done:  E(RHF) =  -669.535352217     A.U. after   15 cycles
 E2 =    -0.2092314728D+01 EUMP2 =    -0.67162766694489D+03

 The electronic state is 1-A.
 Alpha  occ. eigenvalues --  -20.60877 -20.60847 -15.85890 -11.31242 -11.27808
 Alpha  occ. eigenvalues --  -11.27799 -11.27547 -11.26822 -11.26809 -11.20950
 Alpha  occ. eigenvalues --  -11.20820 -11.20715 -11.20658 -11.20537 -11.20437
 Alpha  occ. eigenvalues --   -1.59930  -1.39485  -1.19413  -1.08813  -1.07704
 Alpha  occ. eigenvalues --   -1.04811  -1.02896  -0.95656  -0.95397  -0.86414
 Alpha  occ. eigenvalues --   -0.86208  -0.82492  -0.78927  -0.77636  -0.77357
 Alpha  occ. eigenvalues --   -0.72118  -0.71246  -0.70521  -0.65067  -0.64818
 Alpha  occ. eigenvalues --   -0.64340  -0.62172  -0.60295  -0.58766  -0.56993
 Alpha  occ. eigenvalues --   -0.55313  -0.54695  -0.53142  -0.52908  -0.52128
 Alpha  occ. eigenvalues --   -0.51803  -0.49326  -0.48903  -0.48881  -0.47269
 Alpha  occ. eigenvalues --   -0.45948  -0.45296  -0.44933  -0.44503  -0.43139
 Alpha  occ. eigenvalues --   -0.37393  -0.36410
 Alpha virt. eigenvalues --    0.04976   0.11195   0.16463   0.20534   0.23374
 Alpha virt. eigenvalues --    0.24134   0.26526   0.27348   0.27715   0.28389
 Alpha virt. eigenvalues --    0.29281   0.30724   0.31506   0.31940   0.32577

 Mulliken charges:
               1
     1  C   -0.170632
     2  C   -0.219408
     3  C   -0.174115
     4  C    0.157422
     5  C   -0.170724
     6  C   -0.218662
     7  H    0.225844
     8  H    0.223946
     9  H    0.281062
    10  H    0.275632
    11  H    0.223620
    12  N    0.488916
    13  O   -0.460053
    14  O   -0.459036
    15  C   -0.297312
    16  C   -0.299369
    17  C   -0.475210
    18  H    0.151868
    19  H    0.155657
    20  H    0.148842
    21  H    0.149826
    22  H    0.156751
    23  H    0.155842
    24  H    0.157252
    25  C   -0.299708
    26  C   -0.295958
    27  C   -0.475905
    28  H    0.144431
    29  H    0.146451
    30  H    0.151223
    31  H    0.167248
    32  H    0.155237
    33  H    0.151792
    34  H    0.147231
 Sum of Mulliken charges =  -0.00000

 Dipole moment (field-independent basis, Debye):
    X=              3.9915    Y=              2.4664    Z=             -2.1235  Tot=              5.1502
 Quadrupole moment (field-independent basis, Debye-Ang):
   XX=            -75.7600   YY=            -95.9405   ZZ=            -94.8026
   XY=              2.4884   XZ=             -6.5782   YZ=              3.8454

 Normal termination of Gaussian 16 at Wed May  5 19:12:38 2021.
