 Gaussian 16, Revision A.03,
 Gaussian 16:  EM64L-G16RevA.03 25-Dec-2016

 -------------
 #p 6-31g* mp2
 -------------

 ------------------------------------------------------
 Input file generated by CHIRIPA (05-May-2021 14:55:18)
 ------------------------------------------------------
 Symbolic Z-matrix:
 Charge =  0 Multiplicity = 1

                         Standard orientation:
 ---------------------------------------------------------------------
 Center     Atomic      Atomic             Coordinates (Angstroms)
 Number     Number       Type             X           Y           Z
 ---------------------------------------------------------------------
      1          6           0        4.451015   -1.609174   -1.057864
      2          6           0        3.113806   -1.788742   -0.688881
      3          6           0        2.379738   -0.731471   -0.143106
      4          6           0        3.017219    0.497410    0.020478
      5          6           0        4.348021    0.707639   -0.337378
      6          6           0        5.062776   -0.363752   -0.881247
      7          1           0        5.013755   -2.435972   -1.481095
      8          1           0        2.636118   -2.754846   -0.824899
      9          1           0        1.343199   -0.842849    0.151171
     10          1           0        4.796947    1.682360   -0.189718
     11          1           0        6.101132   -0.221400   -1.166900
     12          7           0        2.250317    1.624170    0.597256
     13          8           0        2.834951    2.696972    0.731183
     14          8           0        1.079107    1.413187    0.904487
     15          6           0       -4.657118   -0.358590   -0.329671
     16          6           0       -5.172348    1.068930   -0.515973
     17          6           0       -6.439814    1.133375   -1.368714
     18          1           0       -4.460583   -0.802246   -1.315312
     19          1           0       -5.444624   -0.967390    0.135727
     20          1           0       -4.383618    1.675196   -0.979616
     21          1           0       -5.367497    1.509305    0.470233
     22          1           0       -7.244673    0.552266   -0.907069
     23          1           0       -6.255204    0.719099   -2.365155
     24          1           0       -6.790785    2.163031   -1.489073
     25          6           0       -3.390534   -0.439379    0.520601
     26          6           0       -2.875304   -1.866899    0.706904
     27          6           0       -1.607837   -1.931344    1.559645
     28          1           0       -2.603028    0.169421    0.055204
     29          1           0       -3.587069    0.004277    1.506243
     30          1           0       -2.680154   -2.307274   -0.279302
     31          1           0       -3.664034   -2.473165    1.170546
     32          1           0       -1.792448   -1.517068    2.556087
     33          1           0       -0.802978   -1.350235    1.098000
     34          1           0       -1.256866   -2.961001    1.680003
 ---------------------------------------------------------------------

 SCF Done:  E(RHF) =  -669.535614590     A.U. after   15 cycles
 E2 =    -0.2091199085D+01 EUMP2 =    -0.67162681367443D+03

 The electronic state is 1-A.
 Alpha  occ. eigenvalues --  -20.60800 -20.60795 -15.85848 -11.31198 -11.27769
 Alpha  occ. eigenvalues --  -11.27757 -11.27513 -11.26785 -11.26772 -11.21479
 Alpha  occ. eigenvalues --  -11.21230 -11.21075 -11.21056 -11.20968 -11.20777
 Alpha  occ. eigenvalues --   -1.59872  -1.39426  -1.19373  -1.08771  -1.08138
 Alpha  occ. eigenvalues --   -1.04775  -1.03304  -0.95759  -0.95605  -0.86779
 Alpha  occ. eigenvalues --   -0.86174  -0.82439  -0.79361  -0.77919  -0.77487
 Alpha  occ. eigenvalues --   -0.72068  -0.71192  -0.70492  -0.65026  -0.64840
 Alpha  occ. eigenvalues --   -0.64723  -0.62155  -0.60696  -0.59124  -0.57349
 Alpha  occ. eigenvalues --   -0.55320  -0.55017  -0.53105  -0.52891  -0.52480
 Alpha  occ. eigenvalues --   -0.52144  -0.49694  -0.48827  -0.48822  -0.47664
 Alpha  occ. eigenvalues --   -0.46384  -0.45468  -0.45374  -0.44833  -0.43538
 Alpha  occ. eigenvalues --   -0.37356  -0.36376
 Alpha virt. eigenvalues --    0.05044   0.11274   0.16540   0.20460   0.23089
 Alpha virt. eigenvalues --    0.24071   0.25910   0.27198   0.27683   0.28086
 Alpha virt. eigenvalues --    0.29324   0.30321   0.31529   0.31867   0.32157

 Mulliken charges:
               1
     1  C   -0.170313
     2  C   -0.223769
     3  C   -0.177780
     4  C    0.155435
     5  C   -0.169587
     6  C   -0.219204
     7  H    0.225692
     8  H    0.224341
     9  H    0.291772
    10  H    0.275678
    11  H    0.223480
    12  N    0.486746
    13  O   -0.459897
    14  O   -0.462893
    15  C   -0.298299
    16  C   -0.299894
    17  C   -0.475601
    18  H    0.147240
    19  H    0.147849
    20  H    0.154883
    21  H    0.153243
    22  H    0.154060
    23  H    0.153856
    24  H    0.160443
    25  C   -0.299889
    26  C   -0.299058
    27  C   -0.484013
    28  H    0.157849
    29  H    0.152533
    30  H    0.147345
    31  H    0.151652
    32  H    0.162211
    33  H    0.159544
    34  H    0.154344
 Sum of Mulliken charges =  -0.00000

 Dipole moment (field-independent basis, Debye):
    X=              2.7159    Y=             -3.8658    Z=             -1.9810  Tot=              5.1230
 Quadrupole moment (field-independent basis, Debye-Ang):
   XX=            -76.0384   YY=            -97.7387   ZZ=            -95.2493
   XY=             -8.1086   XZ=             -7.8834   YZ=             -1.2099

 Normal termination of Gaussian 16 at Thu May  6 04:27:54 2021.
