 Gaussian 16, Revision A.03,
 Gaussian 16:  EM64L-G16RevA.03 25-Dec-2016

 -------------
 #p 6-31g* mp2
 -------------

 ------------------------------------------------------
 Input file generated by CHIRIPA (05-May-2021 14:51:08)
 ------------------------------------------------------
 Symbolic Z-matrix:
 Charge =  0 Multiplicity = 1

                         Standard orientation:
 ---------------------------------------------------------------------
 Center     Atomic      Atomic             Coordinates (Angstroms)
 Number     Number       Type             X           Y           Z
 ---------------------------------------------------------------------
      1          6           0       -2.344087    0.452799   -0.002077
      2          6           0       -2.935431    0.762247   -1.377773
      3          6           0       -3.047197    2.262781   -1.649250
      4          1           0       -2.967381    0.921444    0.771758
      5          1           0       -1.350278    0.915250    0.074578
      6          1           0       -3.927250    0.298185   -1.452321
      7          1           0       -2.310764    0.292650   -2.148414
      8          1           0       -2.061681    2.737263   -1.602065
      9          1           0       -3.687351    2.742830   -0.902017
     10          1           0       -3.472315    2.461300   -2.638050
     11          6           0       -2.226015   -1.043176    0.284009
     12          6           0       -1.634671   -1.352624    1.659705
     13          6           0       -1.522905   -2.853158    1.931182
     14          1           0       -3.219824   -1.505628    0.207354
     15          1           0       -1.602721   -1.511822   -0.489826
     16          1           0       -2.259338   -0.883027    2.430345
     17          1           0       -0.642852   -0.888562    1.734253
     18          1           0       -0.882751   -3.333207    1.183949
     19          1           0       -2.508421   -3.327641    1.883996
     20          1           0       -1.097787   -3.051677    2.919982
     21          6           0        2.690809   -0.308857   -0.373172
     22          6           0        1.942854   -1.194873   -1.369929
     23          6           0        2.767613   -2.399167   -1.825166
     24          1           0        3.627017    0.038204   -0.831442
     25          1           0        2.975101   -0.911211    0.500752
     26          1           0        1.658848   -0.590699   -2.241096
     27          1           0        1.008226   -1.539710   -0.909303
     28          1           0        3.039161   -3.025765   -0.969457
     29          1           0        3.693478   -2.071363   -2.308818
     30          1           0        2.213865   -3.018909   -2.537306
     31          6           0        1.879292    0.899235    0.091241
     32          6           0        2.627249    1.785250    1.087998
     33          6           0        1.802489    2.989544    1.543235
     34          1           0        1.595002    1.501589   -0.782684
     35          1           0        0.943086    0.552174    0.549510
     36          1           0        3.561875    2.130087    0.627371
     37          1           0        2.911254    1.181076    1.959164
     38          1           0        0.876623    2.661740    2.026886
     39          1           0        1.530941    3.616142    0.687526
     40          1           0        2.356238    3.609286    2.255374
 ---------------------------------------------------------------------

 SCF Done:  E(RHF) =  -470.732662171     A.U. after   11 cycles
 E2 =    -0.1585171260D+01 EUMP2 =    -0.47231783343075D+03

 The electronic state is 1-A.
 Alpha  occ. eigenvalues --  -11.21690 -11.21657 -11.21654 -11.21556 -11.21476
 Alpha  occ. eigenvalues --  -11.21414 -11.21385 -11.21284 -11.21137 -11.21125
 Alpha  occ. eigenvalues --  -11.21109 -11.21035  -1.08543  -1.08396  -1.03599
 Alpha  occ. eigenvalues --   -1.03532  -0.96048  -0.95975  -0.87063  -0.86993
 Alpha  occ. eigenvalues --   -0.79676  -0.79597  -0.78451  -0.78137  -0.65450
 Alpha  occ. eigenvalues --   -0.64786  -0.61033  -0.60899  -0.59415  -0.59347
 Alpha  occ. eigenvalues --   -0.57682  -0.57570  -0.55355  -0.55256  -0.52735
 Alpha  occ. eigenvalues --   -0.52684  -0.52478  -0.52400  -0.50013  -0.49920
 Alpha  occ. eigenvalues --   -0.48041  -0.47910  -0.46855  -0.46590  -0.46421
 Alpha  occ. eigenvalues --   -0.45799  -0.45651  -0.44993  -0.43852  -0.43773
 Alpha virt. eigenvalues --    0.19392   0.22718   0.23436   0.24215   0.25666
 Alpha virt. eigenvalues --    0.26597   0.27217   0.27760   0.27907   0.30623
 Alpha virt. eigenvalues --    0.30783   0.31514   0.31703   0.31870   0.32137

 Mulliken charges:
               1
     1  C   -0.305552
     2  C   -0.299224
     3  C   -0.475795
     4  H    0.149003
     5  H    0.157440
     6  H    0.151537
     7  H    0.152193
     8  H    0.155333
     9  H    0.155109
    10  H    0.159949
    11  C   -0.301697
    12  C   -0.305468
    13  C   -0.475885
    14  H    0.149949
    15  H    0.152825
    16  H    0.152509
    17  H    0.155172
    18  H    0.155086
    19  H    0.155789
    20  H    0.160223
    21  C   -0.297049
    22  C   -0.305743
    23  C   -0.475583
    24  H    0.150194
    25  H    0.149567
    26  H    0.151908
    27  H    0.156488
    28  H    0.155479
    29  H    0.155614
    30  H    0.160400
    31  C   -0.311296
    32  C   -0.298732
    33  C   -0.476731
    34  H    0.149098
    35  H    0.161906
    36  H    0.152218
    37  H    0.151902
    38  H    0.156033
    39  H    0.155100
    40  H    0.160730
 Sum of Mulliken charges =  -0.00000

 Dipole moment (field-independent basis, Debye):
    X=              0.0296    Y=              0.0044    Z=              0.0059  Tot=              0.0305
 Quadrupole moment (field-independent basis, Debye-Ang):
   XX=            -84.0118   YY=            -86.4103   ZZ=            -84.3081
   XY=              0.8096   XZ=             -0.5458   YZ=             -0.4232

 Normal termination of Gaussian 16 at Wed May  5 22:56:48 2021.
