 Gaussian 16, Revision A.03,
 Gaussian 16:  EM64L-G16RevA.03 25-Dec-2016

 -------------
 #p 6-31g* mp2
 -------------

 ------------------------------------------------------
 Input file generated by CHIRIPA (05-May-2021 14:51:13)
 ------------------------------------------------------
 Symbolic Z-matrix:
 Charge =  0 Multiplicity = 1

                         Standard orientation:
 ---------------------------------------------------------------------
 Center     Atomic      Atomic             Coordinates (Angstroms)
 Number     Number       Type             X           Y           Z
 ---------------------------------------------------------------------
      1          6           0        2.782583    0.908385   -0.084920
      2          6           0        3.925587    1.905936    0.105917
      3          6           0        3.467297    3.359812   -0.012451
      4          1           0        2.323424    1.070577   -1.069710
      5          1           0        2.001331    1.109442    0.661147
      6          1           0        4.705073    1.702175   -0.639401
      7          1           0        4.382202    1.741224    1.090289
      8          1           0        2.705741    3.586218    0.740790
      9          1           0        3.030446    3.546947   -0.998728
     10          1           0        4.300201    4.055943    0.127306
     11          6           0        3.225007   -0.549233    0.030571
     12          6           0        2.082003   -1.546784   -0.160266
     13          6           0        2.540293   -3.000659   -0.041897
     14          1           0        4.006259   -0.750289   -0.715496
     15          1           0        3.684166   -0.711425    1.015362
     16          1           0        1.625388   -1.382071   -1.144638
     17          1           0        1.302518   -1.343022    0.585053
     18          1           0        2.977144   -3.187795    0.944380
     19          1           0        3.301849   -3.227066   -0.795139
     20          1           0        1.707389   -3.696791   -0.181654
     21          6           0       -2.813324   -0.840033   -0.305916
     22          6           0       -1.958316   -1.743291    0.583506
     23          6           0       -1.585340   -3.060820   -0.096786
     24          1           0       -3.727343   -1.377792   -0.592846
     25          1           0       -2.268036   -0.631587   -1.236833
     26          1           0       -2.504479   -1.948843    1.513059
     27          1           0       -1.046315   -1.203249    0.868508
     28          1           0       -1.018587   -2.873558   -1.014568
     29          1           0       -2.485036   -3.623388   -0.366354
     30          1           0       -0.974183   -3.691132    0.556708
     31          6           0       -3.194267    0.480880    0.360265
     32          6           0       -4.049274    1.384138   -0.529158
     33          6           0       -4.422250    2.701669    0.151135
     34          1           0       -3.739554    0.272435    1.291182
     35          1           0       -2.280247    1.018640    0.647195
     36          1           0       -4.961274    0.844096   -0.814159
     37          1           0       -3.503110    1.589690   -1.458711
     38          1           0       -3.522554    3.264235    0.420703
     39          1           0       -4.989003    2.514405    1.068916
     40          1           0       -5.033407    3.331979   -0.502359
 ---------------------------------------------------------------------

 SCF Done:  E(RHF) =  -470.732909958     A.U. after   11 cycles
 E2 =    -0.1583662881D+01 EUMP2 =    -0.47231657283951D+03

 The electronic state is 1-A.
 Alpha  occ. eigenvalues --  -11.21632 -11.21597 -11.21589 -11.21558 -11.21437
 Alpha  occ. eigenvalues --  -11.21387 -11.21372 -11.21327 -11.21101 -11.21061
 Alpha  occ. eigenvalues --  -11.21051 -11.21029  -1.08468  -1.08399  -1.03592
 Alpha  occ. eigenvalues --   -1.03466  -0.96036  -0.95919  -0.87038  -0.86952
 Alpha  occ. eigenvalues --   -0.79667  -0.79533  -0.78309  -0.78194  -0.65146
 Alpha  occ. eigenvalues --   -0.64996  -0.61076  -0.60847  -0.59502  -0.59181
 Alpha  occ. eigenvalues --   -0.57685  -0.57480  -0.55285  -0.55209  -0.52815
 Alpha  occ. eigenvalues --   -0.52574  -0.52412  -0.52338  -0.49977  -0.49864
 Alpha  occ. eigenvalues --   -0.48101  -0.47775  -0.46883  -0.46437  -0.45962
 Alpha  occ. eigenvalues --   -0.45791  -0.45714  -0.45387  -0.43866  -0.43689
 Alpha virt. eigenvalues --    0.20817   0.23210   0.23336   0.25023   0.25418
 Alpha virt. eigenvalues --    0.26288   0.26894   0.27574   0.28828   0.29289
 Alpha virt. eigenvalues --    0.30181   0.30527   0.31080   0.31829   0.32606

 Mulliken charges:
               1
     1  C   -0.298274
     2  C   -0.299605
     3  C   -0.475745
     4  H    0.149322
     5  H    0.148614
     6  H    0.152134
     7  H    0.152118
     8  H    0.155093
     9  H    0.155098
    10  H    0.160449
    11  C   -0.297884
    12  C   -0.304846
    13  C   -0.479157
    14  H    0.149624
    15  H    0.149687
    16  H    0.150893
    17  H    0.158263
    18  H    0.154629
    19  H    0.154808
    20  H    0.164752
    21  C   -0.297960
    22  C   -0.304792
    23  C   -0.477731
    24  H    0.149465
    25  H    0.149666
    26  H    0.151494
    27  H    0.156962
    28  H    0.157294
    29  H    0.154834
    30  H    0.161060
    31  C   -0.298385
    32  C   -0.299615
    33  C   -0.475731
    34  H    0.149365
    35  H    0.149669
    36  H    0.151881
    37  H    0.151985
    38  H    0.155249
    39  H    0.155088
    40  H    0.160225
 Sum of Mulliken charges =  -0.00000

 Dipole moment (field-independent basis, Debye):
    X=              0.0054    Y=             -0.0089    Z=             -0.0009  Tot=              0.0104
 Quadrupole moment (field-independent basis, Debye-Ang):
   XX=            -84.2722   YY=            -86.7921   ZZ=            -83.7559
   XY=              0.9179   XZ=             -0.3760   YZ=             -0.4272

 Normal termination of Gaussian 16 at Wed May  5 15:19:18 2021.
