 Gaussian 16, Revision A.03,
 Gaussian 16:  EM64L-G16RevA.03 25-Dec-2016

 -------------
 #p 6-31g* mp2
 -------------

 ------------------------------------------------------
 Input file generated by CHIRIPA (05-May-2021 14:57:26)
 ------------------------------------------------------
 Symbolic Z-matrix:
 Charge =  0 Multiplicity = 1

                         Standard orientation:
 ---------------------------------------------------------------------
 Center     Atomic      Atomic             Coordinates (Angstroms)
 Number     Number       Type             X           Y           Z
 ---------------------------------------------------------------------
      1          6           0       -1.569083    1.682131    0.743199
      2          6           0       -2.752338    2.330977    0.375194
      3          6           0       -3.874747    1.593947   -0.014078
      4          6           0       -3.778374    0.203298   -0.023858
      5          6           0       -2.613684   -0.472253    0.337277
      6          6           0       -1.503648    0.285050    0.723102
      7          1           0       -0.701975    2.262548    1.044256
      8          1           0       -2.806040    3.415848    0.389854
      9          1           0       -4.803328    2.070594   -0.303844
     10          1           0       -2.590537   -1.554970    0.312680
     11          1           0       -0.586031   -0.221543    1.008390
     12          7           0       -4.960068   -0.587694   -0.434138
     13          8           0       -4.849509   -1.811791   -0.434326
     14          8           0       -5.974465    0.031402   -0.747759
     15          6           0        1.689924   -1.810942    0.729218
     16          6           0        1.928671   -1.636815   -0.637968
     17          6           0        2.975097   -0.820613   -1.077688
     18          6           0        3.766691   -0.190845   -0.118490
     19          6           0        3.554051   -0.344485    1.250623
     20          6           0        2.501944   -1.165359    1.667497
     21          1           0        0.874828   -2.446803    1.061930
     22          1           0        1.299657   -2.136940   -1.368901
     23          1           0        3.182188   -0.668297   -2.129986
     24          1           0        4.198082    0.167164    1.955504
     25          1           0        2.318865   -1.298754    2.729915
     26          7           0        4.877503    0.675705   -0.571908
     27          8           0        5.560548    1.219472    0.293196
     28          8           0        5.044079    0.794733   -1.783816
 ---------------------------------------------------------------------

 SCF Done:  E(RHF) =  -868.337074249     A.U. after   16 cycles
 E2 =    -0.2601087938D+01 EUMP2 =    -0.87093816218730D+03

 The electronic state is 1-A.
 Alpha  occ. eigenvalues --  -20.61517 -20.61508 -20.61167 -20.61151 -15.86571
 Alpha  occ. eigenvalues --  -15.86215 -11.32125 -11.31595 -11.28689 -11.28643
 Alpha  occ. eigenvalues --  -11.28497 -11.28204 -11.28114 -11.27835 -11.27798
 Alpha  occ. eigenvalues --  -11.27727 -11.27120 -11.27093  -1.60587  -1.60237
 Alpha  occ. eigenvalues --   -1.40134  -1.39791  -1.20320  -1.19749  -1.09709
 Alpha  occ. eigenvalues --   -1.09126  -1.05715  -1.05163  -0.96500  -0.95971
 Alpha  occ. eigenvalues --   -0.87109  -0.86549  -0.83304  -0.82809  -0.78297
 Alpha  occ. eigenvalues --   -0.77876  -0.72782  -0.72431  -0.71915  -0.71561
 Alpha  occ. eigenvalues --   -0.71454  -0.70843  -0.65957  -0.65696  -0.65395
 Alpha  occ. eigenvalues --   -0.65171  -0.63025  -0.62541  -0.56269  -0.55627
 Alpha  occ. eigenvalues --   -0.54198  -0.53784  -0.53477  -0.53096  -0.49557
 Alpha  occ. eigenvalues --   -0.49529  -0.49195  -0.49182  -0.45496  -0.45195
 Alpha  occ. eigenvalues --   -0.38344  -0.37708  -0.37331  -0.36738
 Alpha virt. eigenvalues --    0.04149   0.04670   0.10207   0.10966   0.15480
 Alpha virt. eigenvalues --    0.16181   0.19737   0.21720   0.25754   0.26505
 Alpha virt. eigenvalues --    0.27930   0.28874   0.30299   0.31358   0.31736

 Mulliken charges:
               1
     1  C   -0.173757
     2  C   -0.218002
     3  C   -0.171121
     4  C    0.159512
     5  C   -0.176110
     6  C   -0.222757
     7  H    0.228635
     8  H    0.225568
     9  H    0.276798
    10  H    0.269208
    11  H    0.227814
    12  N    0.488162
    13  O   -0.462261
    14  O   -0.458574
    15  C   -0.186177
    16  C   -0.215520
    17  C   -0.170682
    18  C    0.159340
    19  C   -0.171810
    20  C   -0.221005
    21  H    0.227148
    22  H    0.229340
    23  H    0.279532
    24  H    0.278136
    25  H    0.226773
    26  N    0.487681
    27  O   -0.458629
    28  O   -0.457243
 Sum of Mulliken charges =  -0.00000

 Dipole moment (field-independent basis, Debye):
    X=              0.5071    Y=             -0.1616    Z=              2.9330  Tot=              2.9809
 Quadrupole moment (field-independent basis, Debye-Ang):
   XX=           -164.4974   YY=            -99.3768   ZZ=           -101.3528
   XY=            -23.1189   XZ=              2.5453   YZ=              0.7759

 Normal termination of Gaussian 16 at Thu May  6 00:25:14 2021.
