 Gaussian 16, Revision A.03,
 Gaussian 16:  EM64L-G16RevA.03 25-Dec-2016

 -------------
 #p 6-31g* mp2
 -------------

 ------------------------------------------------------
 Input file generated by CHIRIPA (05-May-2021 14:53:16)
 ------------------------------------------------------
 Symbolic Z-matrix:
 Charge =  0 Multiplicity = 1

                         Standard orientation:
 ---------------------------------------------------------------------
 Center     Atomic      Atomic             Coordinates (Angstroms)
 Number     Number       Type             X           Y           Z
 ---------------------------------------------------------------------
      1          6           0       -3.619965   -0.002152    0.021239
      2          6           0       -4.344327   -1.199648   -0.594624
      3          6           0       -5.335439   -1.851182    0.370257
      4          1           0       -3.091347   -0.327922    0.927541
      5          1           0       -4.362679    0.741102    0.342711
      6          1           0       -3.600401   -1.939815   -0.916095
      7          1           0       -4.871124   -0.871030   -1.499671
      8          1           0       -6.099125   -1.131438    0.682273
      9          1           0       -4.821182   -2.206296    1.269164
     10          1           0       -5.842001   -2.705004   -0.090442
     11          6           0       -2.625782    0.659836   -0.931180
     12          6           0       -1.901420    1.857332   -0.315316
     13          6           0       -0.910308    2.508865   -1.280197
     14          1           0       -1.883068   -0.083419   -1.252651
     15          1           0       -3.154400    0.985605   -1.837481
     16          1           0       -1.374623    1.528714    0.589731
     17          1           0       -2.645346    2.597499    0.006155
     18          1           0       -1.424565    2.863980   -2.179104
     19          1           0       -0.146622    1.789122   -1.592213
     20          1           0       -0.403746    3.362687   -0.819498
     21          6           0        0.904737    0.828394    2.038238
     22          6           0        1.792167    1.611722    1.292996
     23          6           0        2.647266    1.021118    0.357827
     24          6           0        2.588144   -0.361830    0.192759
     25          6           0        1.715000   -1.169239    0.920084
     26          6           0        0.869048   -0.557143    1.849736
     27          1           0        0.244028    1.295537    2.762557
     28          1           0        1.822063    2.687980    1.437286
     29          1           0        3.344012    1.603756   -0.232507
     30          1           0        1.708164   -2.239667    0.754085
     31          1           0        0.180878   -1.167979    2.427097
     32          7           0        3.488557   -0.998453   -0.794342
     33          8           0        3.417081   -2.218892   -0.921056
     34          8           0        4.248727   -0.264943   -1.422628
 ---------------------------------------------------------------------

 SCF Done:  E(RHF) =  -669.534841563     A.U. after   15 cycles
 E2 =    -0.2093833553D+01 EUMP2 =    -0.67162867511608D+03

 The electronic state is 1-A.
 Alpha  occ. eigenvalues --  -20.60840 -20.60834 -15.85896 -11.31292 -11.27871
 Alpha  occ. eigenvalues --  -11.27862 -11.27605 -11.26889 -11.26870 -11.21954
 Alpha  occ. eigenvalues --  -11.21919 -11.21825 -11.21689 -11.21435 -11.21387
 Alpha  occ. eigenvalues --   -1.59916  -1.39468  -1.19479  -1.08902  -1.08770
 Alpha  occ. eigenvalues --   -1.04878  -1.03881  -0.96336  -0.95698  -0.87350
 Alpha  occ. eigenvalues --   -0.86274  -0.82524  -0.79956  -0.78626  -0.77558
 Alpha  occ. eigenvalues --   -0.72112  -0.71242  -0.70592  -0.65449  -0.65126
 Alpha  occ. eigenvalues --   -0.64870  -0.62221  -0.61316  -0.59720  -0.57960
 Alpha  occ. eigenvalues --   -0.55665  -0.55386  -0.53200  -0.53017  -0.52923
 Alpha  occ. eigenvalues --   -0.52747  -0.50274  -0.48874  -0.48865  -0.48265
 Alpha  occ. eigenvalues --   -0.47006  -0.46174  -0.46090  -0.44867  -0.44151
 Alpha  occ. eigenvalues --   -0.37351  -0.36455
 Alpha virt. eigenvalues --    0.04946   0.11086   0.16363   0.20612   0.22740
 Alpha virt. eigenvalues --    0.23885   0.25883   0.26631   0.26942   0.28137
 Alpha virt. eigenvalues --    0.28732   0.29907   0.31178   0.31588   0.31953

 Mulliken charges:
               1
     1  C   -0.296869
     2  C   -0.300198
     3  C   -0.475469
     4  H    0.142277
     5  H    0.149582
     6  H    0.153023
     7  H    0.154050
     8  H    0.155499
     9  H    0.152425
    10  H    0.162181
    11  C   -0.298254
    12  C   -0.303832
    13  C   -0.474121
    14  H    0.152238
    15  H    0.151414
    16  H    0.150965
    17  H    0.149331
    18  H    0.156611
    19  H    0.159897
    20  H    0.152158
    21  C   -0.172991
    22  C   -0.213403
    23  C   -0.171138
    24  C    0.157906
    25  C   -0.171195
    26  C   -0.218371
    27  H    0.227429
    28  H    0.224460
    29  H    0.276439
    30  H    0.276007
    31  H    0.224075
    32  N    0.488064
    33  O   -0.460244
    34  O   -0.459947
 Sum of Mulliken charges =  -0.00000

 Dipole moment (field-independent basis, Debye):
    X=             -3.1069    Y=              2.2061    Z=              3.4430  Tot=              5.1356
 Quadrupole moment (field-independent basis, Debye-Ang):
   XX=           -111.0835   YY=            -92.6598   ZZ=            -93.9535
   XY=              8.2966   XZ=              8.8623   YZ=             -1.7884

 Normal termination of Gaussian 16 at Wed May  5 23:35:00 2021.
