 Gaussian 16, Revision A.03,
 Gaussian 16:  EM64L-G16RevA.03 25-Dec-2016

 -------------
 #p 6-31g* mp2
 -------------

 ------------------------------------------------------
 Input file generated by CHIRIPA (05-May-2021 14:51:10)
 ------------------------------------------------------
 Symbolic Z-matrix:
 Charge =  0 Multiplicity = 1

                         Standard orientation:
 ---------------------------------------------------------------------
 Center     Atomic      Atomic             Coordinates (Angstroms)
 Number     Number       Type             X           Y           Z
 ---------------------------------------------------------------------
      1          6           0       -4.015039    0.036808   -0.333305
      2          6           0       -4.824921    1.244576    0.139315
      3          6           0       -5.909896    1.655191   -0.856687
      4          1           0       -3.555168    0.268733   -1.303704
      5          1           0       -4.696069   -0.808409   -0.504185
      6          1           0       -4.142393    2.086859    0.310580
      7          1           0       -5.282761    1.009818    1.108793
      8          1           0       -6.613645    0.832701   -1.020539
      9          1           0       -5.466797    1.915861   -1.823287
     10          1           0       -6.476648    2.520430   -0.498898
     11          6           0       -2.926506   -0.385694    0.651741
     12          6           0       -2.116623   -1.593463    0.179121
     13          6           0       -1.031648   -2.004078    1.175123
     14          1           0       -2.245475    0.459523    0.822622
     15          1           0       -3.386376   -0.617619    1.622140
     16          1           0       -1.658783   -1.358705   -0.790357
     17          1           0       -2.799151   -2.435745    0.007856
     18          1           0       -1.474747   -2.264747    2.141723
     19          1           0       -0.327899   -1.181587    1.338975
     20          1           0       -0.464896   -2.869317    0.817335
     21          6           0        3.812754    0.823011   -0.373319
     22          6           0        3.600550    1.973890    0.610770
     23          6           0        4.290758    3.264601    0.168649
     24          1           0        4.890175    0.642870   -0.490184
     25          1           0        3.436639    1.120985   -1.361825
     26          1           0        3.975696    1.673321    1.597452
     27          1           0        2.523503    2.151185    0.725452
     28          1           0        3.909975    3.591255   -0.804440
     29          1           0        5.370418    3.110675    0.072514
     30          1           0        4.126078    4.074150    0.886542
     31          6           0        3.128790   -0.474125    0.054883
     32          6           0        3.340994   -1.625003   -0.929207
     33          6           0        2.650786   -2.915715   -0.487085
     34          1           0        3.504905   -0.772099    1.043389
     35          1           0        2.051369   -0.293984    0.171748
     36          1           0        4.418041   -1.802299   -1.043889
     37          1           0        2.965849   -1.324435   -1.915889
     38          1           0        1.571127   -2.761789   -0.390950
     39          1           0        3.031569   -3.242369    0.486003
     40          1           0        2.815467   -3.725263   -1.204979
 ---------------------------------------------------------------------

 SCF Done:  E(RHF) =  -470.733010748     A.U. after   11 cycles
 E2 =    -0.1582912978D+01 EUMP2 =    -0.47231592372663D+03

 The electronic state is 1-A.
 Alpha  occ. eigenvalues --  -11.21641 -11.21623 -11.21615 -11.21578 -11.21435
 Alpha  occ. eigenvalues --  -11.21402 -11.21375 -11.21341 -11.21089 -11.21082
 Alpha  occ. eigenvalues --  -11.21071 -11.20984  -1.08463  -1.08422  -1.03572
 Alpha  occ. eigenvalues --   -1.03503  -0.96030  -0.95945  -0.87060  -0.86950
 Alpha  occ. eigenvalues --   -0.79665  -0.79540  -0.78281  -0.78227  -0.65133
 Alpha  occ. eigenvalues --   -0.65020  -0.61045  -0.60852  -0.59441  -0.59294
 Alpha  occ. eigenvalues --   -0.57732  -0.57476  -0.55319  -0.55233  -0.52821
 Alpha  occ. eigenvalues --   -0.52658  -0.52488  -0.52216  -0.49970  -0.49884
 Alpha  occ. eigenvalues --   -0.47966  -0.47843  -0.46716  -0.46565  -0.45846
 Alpha  occ. eigenvalues --   -0.45780  -0.45732  -0.45627  -0.43786  -0.43769
 Alpha virt. eigenvalues --    0.20950   0.23198   0.23513   0.24924   0.25876
 Alpha virt. eigenvalues --    0.26760   0.26956   0.27108   0.27865   0.29334
 Alpha virt. eigenvalues --    0.30332   0.31222   0.31680   0.31713   0.32108

 Mulliken charges:
               1
     1  C   -0.298290
     2  C   -0.299678
     3  C   -0.475719
     4  H    0.149515
     5  H    0.149682
     6  H    0.151884
     7  H    0.152049
     8  H    0.155248
     9  H    0.155153
    10  H    0.160337
    11  C   -0.298229
    12  C   -0.300689
    13  C   -0.482325
    14  H    0.149187
    15  H    0.150019
    16  H    0.151540
    17  H    0.152363
    18  H    0.155707
    19  H    0.157915
    20  H    0.164548
    21  C   -0.298197
    22  C   -0.299513
    23  C   -0.475688
    24  H    0.149835
    25  H    0.149277
    26  H    0.152126
    27  H    0.151257
    28  H    0.155096
    29  H    0.155302
    30  H    0.160262
    31  C   -0.301347
    32  C   -0.299163
    33  C   -0.482305
    34  H    0.149768
    35  H    0.152296
    36  H    0.151791
    37  H    0.151363
    38  H    0.163105
    39  H    0.154988
    40  H    0.159531
 Sum of Mulliken charges =  -0.00000

 Dipole moment (field-independent basis, Debye):
    X=             -0.0206    Y=             -0.0112    Z=              0.0186  Tot=              0.0299
 Quadrupole moment (field-independent basis, Debye-Ang):
   XX=            -84.5236   YY=            -85.5109   ZZ=            -84.7385
   XY=              0.1400   XZ=             -0.2848   YZ=             -0.0420

 Normal termination of Gaussian 16 at Thu May  6 05:23:30 2021.
