 Gaussian 16, Revision A.03,
 Gaussian 16:  EM64L-G16RevA.03 25-Dec-2016

 -------------
 #p 6-31g* mp2
 -------------

 ------------------------------------------------------
 Input file generated by CHIRIPA (05-May-2021 14:51:14)
 ------------------------------------------------------
 Symbolic Z-matrix:
 Charge =  0 Multiplicity = 1

                         Standard orientation:
 ---------------------------------------------------------------------
 Center     Atomic      Atomic             Coordinates (Angstroms)
 Number     Number       Type             X           Y           Z
 ---------------------------------------------------------------------
      1          6           0       -3.450096   -0.563314   -0.289911
      2          6           0       -4.008795    0.608667    0.517742
      3          6           0       -5.315233    1.154710   -0.059189
      4          1           0       -3.287936   -0.241020   -1.327589
      5          1           0       -4.199997   -1.365676   -0.325383
      6          1           0       -3.257527    1.408029    0.552847
      7          1           0       -4.169463    0.283600    1.553663
      8          1           0       -6.083328    0.374812   -0.078965
      9          1           0       -5.166210    1.505630   -1.085468
     10          1           0       -5.696944    1.991860    0.533548
     11          6           0       -2.144243   -1.120088    0.274429
     12          6           0       -1.585544   -2.292068   -0.533223
     13          6           0       -0.279106   -2.838112    0.043707
     14          1           0       -1.394342   -0.317726    0.309901
     15          1           0       -2.306403   -1.442382    1.312107
     16          1           0       -1.424876   -1.967002   -1.569145
     17          1           0       -2.336812   -3.091431   -0.568329
     18          1           0       -0.428129   -3.189032    1.069986
     19          1           0        0.488989   -2.058214    0.063484
     20          1           0        0.102605   -3.675262   -0.549030
     21          6           0        2.311150    1.340305    0.321765
     22          6           0        2.020422    2.547652   -0.570299
     23          6           0        1.046474    3.536126    0.071680
     24          1           0        1.367252    0.828558    0.554396
     25          1           0        2.720889    1.690803    1.279188
     26          1           0        1.612645    2.194901   -1.526281
     27          1           0        2.965144    3.056472   -0.800990
     28          1           0        1.449719    3.916065    1.015949
     29          1           0        0.089537    3.049599    0.286536
     30          1           0        0.852729    4.391465   -0.583084
     31          6           0        3.283189    0.343097   -0.306283
     32          6           0        3.573917   -0.864250    0.585780
     33          6           0        4.547864   -1.852724   -0.056199
     34          1           0        2.873450   -0.007401   -1.263707
     35          1           0        4.227087    0.854843   -0.538915
     36          1           0        2.629196   -1.373070    0.816473
     37          1           0        3.981694   -0.511500    1.541763
     38          1           0        5.504802   -1.366196   -0.271055
     39          1           0        4.144619   -2.232662   -1.000467
     40          1           0        4.741610   -2.708064    0.598566
 ---------------------------------------------------------------------

 SCF Done:  E(RHF) =  -470.733328668     A.U. after   11 cycles
 E2 =    -0.1583433588D+01 EUMP2 =    -0.47231676225615D+03

 The electronic state is 1-A.
 Alpha  occ. eigenvalues --  -11.21667 -11.21641 -11.21638 -11.21557 -11.21468
 Alpha  occ. eigenvalues --  -11.21434 -11.21403 -11.21369 -11.21131 -11.21116
 Alpha  occ. eigenvalues --  -11.21092 -11.21038  -1.08491  -1.08445  -1.03587
 Alpha  occ. eigenvalues --   -1.03532  -0.96033  -0.95989  -0.87062  -0.86994
 Alpha  occ. eigenvalues --   -0.79677  -0.79573  -0.78340  -0.78221  -0.65243
 Alpha  occ. eigenvalues --   -0.64977  -0.61080  -0.60851  -0.59398  -0.59357
 Alpha  occ. eigenvalues --   -0.57647  -0.57590  -0.55334  -0.55267  -0.52721
 Alpha  occ. eigenvalues --   -0.52684  -0.52489  -0.52387  -0.50086  -0.49835
 Alpha  occ. eigenvalues --   -0.48056  -0.47853  -0.46796  -0.46551  -0.46063
 Alpha  occ. eigenvalues --   -0.45800  -0.45765  -0.45375  -0.43836  -0.43795
 Alpha virt. eigenvalues --    0.19387   0.22470   0.23874   0.24513   0.25244
 Alpha virt. eigenvalues --    0.27015   0.27089   0.27284   0.28043   0.29496
 Alpha virt. eigenvalues --    0.30998   0.31558   0.31712   0.31807   0.31937

 Mulliken charges:
               1
     1  C   -0.298301
     2  C   -0.299783
     3  C   -0.475749
     4  H    0.149723
     5  H    0.149883
     6  H    0.151766
     7  H    0.152186
     8  H    0.155239
     9  H    0.155289
    10  H    0.160533
    11  C   -0.301124
    12  C   -0.299276
    13  C   -0.483054
    14  H    0.150892
    15  H    0.150169
    16  H    0.151786
    17  H    0.152402
    18  H    0.155677
    19  H    0.161542
    20  H    0.160809
    21  C   -0.302468
    22  C   -0.299473
    23  C   -0.475847
    24  H    0.151937
    25  H    0.150153
    26  H    0.151621
    27  H    0.152343
    28  H    0.155609
    29  H    0.154515
    30  H    0.160443
    31  C   -0.298262
    32  C   -0.306517
    33  C   -0.475304
    34  H    0.149238
    35  H    0.149958
    36  H    0.158846
    37  H    0.152009
    38  H    0.154892
    39  H    0.155248
    40  H    0.160450
 Sum of Mulliken charges =  -0.00000

 Dipole moment (field-independent basis, Debye):
    X=             -0.0120    Y=             -0.0143    Z=              0.0100  Tot=              0.0212
 Quadrupole moment (field-independent basis, Debye-Ang):
   XX=            -85.1854   YY=            -84.9424   ZZ=            -84.4598
   XY=              1.8138   XZ=             -0.0205   YZ=             -0.2976

 Normal termination of Gaussian 16 at Thu May  6 07:10:56 2021.
