 Gaussian 16, Revision A.03,
 Gaussian 16:  EM64L-G16RevA.03 25-Dec-2016

 -------------
 #p 6-31g* mp2
 -------------

 ------------------------------------------------------
 Input file generated by CHIRIPA (05-May-2021 14:51:07)
 ------------------------------------------------------
 Symbolic Z-matrix:
 Charge =  0 Multiplicity = 1

                         Standard orientation:
 ---------------------------------------------------------------------
 Center     Atomic      Atomic             Coordinates (Angstroms)
 Number     Number       Type             X           Y           Z
 ---------------------------------------------------------------------
      1          6           0       -3.679726    0.465526    0.032045
      2          6           0       -3.226985    1.860802    0.463571
      3          6           0       -4.382113    2.728786    0.963649
      4          1           0       -4.437332    0.560771   -0.757833
      5          1           0       -4.172436   -0.030909    0.879502
      6          1           0       -2.734046    2.353932   -0.384043
      7          1           0       -2.470229    1.762220    1.252380
      8          1           0       -4.870034    2.261666    1.825237
      9          1           0       -5.135349    2.856740    0.179517
     10          1           0       -4.036035    3.721818    1.266925
     11          6           0       -2.536189   -0.414045   -0.470354
     12          6           0       -2.988930   -1.809321   -0.901881
     13          6           0       -1.833802   -2.677305   -1.401958
     14          1           0       -2.043479    0.082390   -1.317812
     15          1           0       -1.778583   -0.509290    0.319523
     16          1           0       -3.745686   -1.710739   -1.690689
     17          1           0       -3.481869   -2.302451   -0.054267
     18          1           0       -1.080566   -2.805259   -0.617826
     19          1           0       -1.345881   -2.210185   -2.263546
     20          1           0       -2.179880   -3.670337   -1.705235
     21          6           0        2.511310   -0.432160    0.468689
     22          6           0        2.886633   -1.842273    0.925524
     23          6           0        1.682385   -2.642984    1.421955
     24          1           0        2.032784    0.101021    1.301561
     25          1           0        1.760710   -0.500909   -0.330854
     26          1           0        3.637323   -1.770920    1.723014
     27          1           0        3.364495   -2.372093    0.091526
     28          1           0        0.933650   -2.743780    0.629594
     29          1           0        1.208029   -2.139191    2.270352
     30          1           0        1.973379   -3.647847    1.743566
     31          6           0        3.704605    0.380679   -0.030379
     32          6           0        3.329282    1.790792   -0.487215
     33          6           0        4.533529    2.591503   -0.983646
     34          1           0        4.455205    0.449428    0.769163
     35          1           0        4.183131   -0.152501   -0.863252
     36          1           0        2.851420    2.320613    0.346784
     37          1           0        2.578592    1.719439   -1.284705
     38          1           0        5.007887    2.087710   -1.832043
     39          1           0        5.282266    2.692299   -0.191284
     40          1           0        4.242536    3.596366   -1.305256
 ---------------------------------------------------------------------

 SCF Done:  E(RHF) =  -470.733420534     A.U. after   11 cycles
 E2 =    -0.1582766283D+01 EUMP2 =    -0.47231618681691D+03

 The electronic state is 1-A.
 Alpha  occ. eigenvalues --  -11.21602 -11.21599 -11.21587 -11.21586 -11.21391
 Alpha  occ. eigenvalues --  -11.21389 -11.21331 -11.21330 -11.21085 -11.21081
 Alpha  occ. eigenvalues --  -11.21062 -11.21061  -1.08427  -1.08413  -1.03541
 Alpha  occ. eigenvalues --   -1.03511  -0.96003  -0.95954  -0.87032  -0.86961
 Alpha  occ. eigenvalues --   -0.79638  -0.79543  -0.78270  -0.78188  -0.65079
 Alpha  occ. eigenvalues --   -0.65023  -0.61023  -0.60842  -0.59370  -0.59317
 Alpha  occ. eigenvalues --   -0.57665  -0.57522  -0.55426  -0.55126  -0.52678
 Alpha  occ. eigenvalues --   -0.52667  -0.52524  -0.52292  -0.50096  -0.49749
 Alpha  occ. eigenvalues --   -0.48049  -0.47787  -0.46731  -0.46490  -0.45913
 Alpha  occ. eigenvalues --   -0.45742  -0.45693  -0.45524  -0.43780  -0.43776
 Alpha virt. eigenvalues --    0.21194   0.23196   0.23456   0.24800   0.25985
 Alpha virt. eigenvalues --    0.26573   0.26973   0.27434   0.28167   0.29091
 Alpha virt. eigenvalues --    0.30237   0.31720   0.31729   0.31914   0.31923

 Mulliken charges:
               1
     1  C   -0.298349
     2  C   -0.299573
     3  C   -0.475717
     4  H    0.149560
     5  H    0.149554
     6  H    0.151975
     7  H    0.152056
     8  H    0.155139
     9  H    0.155128
    10  H    0.160190
    11  C   -0.299344
    12  C   -0.299031
    13  C   -0.483850
    14  H    0.149080
    15  H    0.151299
    16  H    0.151905
    17  H    0.152169
    18  H    0.162504
    19  H    0.154580
    20  H    0.160712
    21  C   -0.299178
    22  C   -0.299024
    23  C   -0.484016
    24  H    0.149241
    25  H    0.151051
    26  H    0.151905
    27  H    0.152193
    28  H    0.162573
    29  H    0.154611
    30  H    0.160697
    31  C   -0.298355
    32  C   -0.299582
    33  C   -0.475717
    34  H    0.149438
    35  H    0.149676
    36  H    0.151991
    37  H    0.152037
    38  H    0.155140
    39  H    0.155135
    40  H    0.160197
 Sum of Mulliken charges =  -0.00000

 Dipole moment (field-independent basis, Debye):
    X=              0.0008    Y=             -0.0047    Z=              0.0002  Tot=              0.0048
 Quadrupole moment (field-independent basis, Debye-Ang):
   XX=            -85.8987   YY=            -85.6095   ZZ=            -83.2931
   XY=              0.0044   XZ=              0.8496   YZ=             -0.0113

 Normal termination of Gaussian 16 at Thu May  6 06:50:37 2021.
