 Gaussian 16, Revision A.03,
 Gaussian 16:  EM64L-G16RevA.03 25-Dec-2016

 -------------
 #p 6-31g* mp2
 -------------

 ------------------------------------------------------
 Input file generated by CHIRIPA (05-May-2021 14:57:23)
 ------------------------------------------------------
 Symbolic Z-matrix:
 Charge =  0 Multiplicity = 1

                         Standard orientation:
 ---------------------------------------------------------------------
 Center     Atomic      Atomic             Coordinates (Angstroms)
 Number     Number       Type             X           Y           Z
 ---------------------------------------------------------------------
      1          6           0       -3.709142   -2.342885    0.538527
      2          6           0       -4.041350   -1.719526   -0.668777
      3          6           0       -3.706310   -0.380750   -0.892330
      4          6           0       -3.036158    0.307821    0.117648
      5          6           0       -2.691431   -0.285373    1.331144
      6          6           0       -3.036429   -1.625085    1.532881
      7          1           0       -3.973277   -3.383242    0.703715
      8          1           0       -4.563780   -2.274520   -1.442789
      9          1           0       -3.951371    0.126429   -1.817605
     10          1           0       -2.170561    0.293787    2.083930
     11          1           0       -2.777161   -2.106616    2.471472
     12          7           0       -2.676196    1.725618   -0.107470
     13          8           0       -2.085863    2.310371    0.798184
     14          8           0       -2.991205    2.225288   -1.185308
     15          6           0        5.552484   -0.318481    0.364266
     16          6           0        4.887141   -1.314651   -0.357875
     17          6           0        3.525916   -1.189813   -0.651182
     18          6           0        2.857950   -0.050530   -0.204926
     19          6           0        3.492944    0.959184    0.516566
     20          6           0        4.854492    0.813261    0.798416
     21          1           0        6.610043   -0.423648    0.587664
     22          1           0        5.426671   -2.194659   -0.696308
     23          1           0        2.986207   -1.945832   -1.208469
     24          1           0        2.928351    1.825017    0.840581
     25          1           0        5.368626    1.588490    1.359425
     26          7           0        1.416712    0.092792   -0.509374
     27          8           0        0.850827    1.106129   -0.104948
     28          8           0        0.880241   -0.810925   -1.146659
 ---------------------------------------------------------------------

 SCF Done:  E(RHF) =  -868.337594035     A.U. after   16 cycles
 E2 =    -0.2600532389D+01 EUMP2 =    -0.87093812642408D+03

 The electronic state is 1-A.
 Alpha  occ. eigenvalues --  -20.60627 -20.60544 -20.59215 -20.59152 -15.85608
 Alpha  occ. eigenvalues --  -15.84244 -11.31047 -11.29779 -11.27652 -11.27586
 Alpha  occ. eigenvalues --  -11.27392 -11.26676 -11.26635 -11.26408 -11.26404
 Alpha  occ. eigenvalues --  -11.26260 -11.25529 -11.25508  -1.59664  -1.58218
 Alpha  occ. eigenvalues --   -1.39207  -1.37784  -1.19231  -1.17981  -1.08619
 Alpha  occ. eigenvalues --   -1.07360  -1.04640  -1.03454  -0.95438  -0.94174
 Alpha  occ. eigenvalues --   -0.86035  -0.84852  -0.82259  -0.81036  -0.77297
 Alpha  occ. eigenvalues --   -0.76029  -0.71847  -0.70989  -0.70507  -0.70335
 Alpha  occ. eigenvalues --   -0.69446  -0.69170  -0.64876  -0.64644  -0.63679
 Alpha  occ. eigenvalues --   -0.63516  -0.61981  -0.60828  -0.55148  -0.54008
 Alpha  occ. eigenvalues --   -0.52974  -0.52731  -0.51720  -0.51595  -0.48628
 Alpha  occ. eigenvalues --   -0.48601  -0.47267  -0.47227  -0.44598  -0.43123
 Alpha  occ. eigenvalues --   -0.37224  -0.36249  -0.35960  -0.35046
 Alpha virt. eigenvalues --    0.05225   0.06586   0.11404   0.12604   0.16703
 Alpha virt. eigenvalues --    0.18010   0.21544   0.22512   0.27450   0.28375
 Alpha virt. eigenvalues --    0.28460   0.29438   0.31090   0.31986   0.32722

 Mulliken charges:
               1
     1  C   -0.170895
     2  C   -0.217568
     3  C   -0.167371
     4  C    0.169702
     5  C   -0.166215
     6  C   -0.218617
     7  H    0.219582
     8  H    0.218393
     9  H    0.272927
    10  H    0.272764
    11  H    0.216835
    12  N    0.494306
    13  O   -0.457702
    14  O   -0.466494
    15  C   -0.171062
    16  C   -0.218790
    17  C   -0.171562
    18  C    0.157700
    19  C   -0.171438
    20  C   -0.218850
    21  H    0.225015
    22  H    0.222266
    23  H    0.274051
    24  H    0.280201
    25  H    0.223960
    26  N    0.487519
    27  O   -0.453195
    28  O   -0.465462
 Sum of Mulliken charges =  -0.00000

 Dipole moment (field-independent basis, Debye):
    X=              4.0236    Y=             -5.2325    Z=              1.8482  Tot=              6.8545
 Quadrupole moment (field-independent basis, Debye-Ang):
   XX=            -69.7786   YY=           -105.2028   ZZ=           -100.8929
   XY=             13.0397   XZ=              1.9520   YZ=              2.5467

 Normal termination of Gaussian 16 at Fri May  7 04:52:53 2021.
