 Gaussian 16, Revision A.03,
 Gaussian 16:  EM64L-G16RevA.03 25-Dec-2016

 -------------
 #p 6-31g* mp2
 -------------

 ------------------------------------------------------
 Input file generated by CHIRIPA (05-May-2021 14:57:21)
 ------------------------------------------------------
 Symbolic Z-matrix:
 Charge =  0 Multiplicity = 1

                         Standard orientation:
 ---------------------------------------------------------------------
 Center     Atomic      Atomic             Coordinates (Angstroms)
 Number     Number       Type             X           Y           Z
 ---------------------------------------------------------------------
      1          6           0        5.296553    0.782946   -0.433194
      2          6           0        5.231806   -0.284998    0.467819
      3          6           0        4.010788   -0.906841    0.745263
      4          6           0        2.869072   -0.432927    0.100917
      5          6           0        2.901180    0.628930   -0.801701
      6          6           0        4.133085    1.235703   -1.063966
      7          1           0        6.249298    1.260156   -0.642824
      8          1           0        6.133754   -0.638725    0.959154
      9          1           0        3.932072   -1.735515    1.438458
     10          1           0        1.985041    0.959303   -1.276001
     11          1           0        4.180372    2.064883   -1.764159
     12          7           0        1.570672   -1.083268    0.386600
     13          8           0        0.579199   -0.646973   -0.194144
     14          8           0        1.569046   -2.016986    1.185854
     15          6           0       -2.209761    2.560032    0.727971
     16          6           0       -3.000863    1.781059    1.578782
     17          6           0       -3.490186    0.541497    1.156175
     18          6           0       -3.167492    0.109740   -0.129415
     19          6           0       -2.381681    0.862838   -1.000412
     20          6           0       -1.903234    2.099247   -0.556645
     21          1           0       -1.833867    3.521729    1.064481
     22          1           0       -3.240515    2.136383    2.576959
     23          1           0       -4.104736   -0.081863    1.794274
     24          1           0       -2.159638    0.481994   -1.989894
     25          1           0       -1.289073    2.702079   -1.219552
     26          7           0       -3.679759   -1.200860   -0.588010
     27          8           0       -3.381235   -1.558747   -1.725304
     28          8           0       -4.370098   -1.845405    0.198521
 ---------------------------------------------------------------------

 SCF Done:  E(RHF) =  -868.337064984     A.U. after   16 cycles
 E2 =    -0.2600549161D+01 EUMP2 =    -0.87093761414483D+03

 The electronic state is 1-A.
 Alpha  occ. eigenvalues --  -20.60972 -20.60966 -20.59647 -20.59634 -15.86019
 Alpha  occ. eigenvalues --  -15.84702 -11.31465 -11.30048 -11.28084 -11.28009
 Alpha  occ. eigenvalues --  -11.27780 -11.27091 -11.27038 -11.26710 -11.26699
 Alpha  occ. eigenvalues --  -11.26564 -11.25795 -11.25760  -1.60036  -1.58705
 Alpha  occ. eigenvalues --   -1.39592  -1.38265  -1.19640  -1.18269  -1.09016
 Alpha  occ. eigenvalues --   -1.07695  -1.05058  -1.03720  -0.95843  -0.94526
 Alpha  occ. eigenvalues --   -0.86450  -0.85140  -0.82679  -0.81386  -0.77720
 Alpha  occ. eigenvalues --   -0.76398  -0.72257  -0.71357  -0.70948  -0.70748
 Alpha  occ. eigenvalues --   -0.69989  -0.69481  -0.65294  -0.65062  -0.63980
 Alpha  occ. eigenvalues --   -0.63806  -0.62412  -0.61105  -0.55545  -0.54313
 Alpha  occ. eigenvalues --   -0.53377  -0.53154  -0.51978  -0.51880  -0.49010
 Alpha  occ. eigenvalues --   -0.48979  -0.47700  -0.47682  -0.44972  -0.43680
 Alpha  occ. eigenvalues --   -0.37614  -0.36666  -0.36264  -0.35245
 Alpha virt. eigenvalues --    0.04825   0.06196   0.10989   0.12362   0.16309
 Alpha virt. eigenvalues --    0.17604   0.20946   0.22166   0.26572   0.27499
 Alpha virt. eigenvalues --    0.28627   0.29141   0.30687   0.31504   0.32706

 Mulliken charges:
               1
     1  C   -0.170907
     2  C   -0.218322
     3  C   -0.170634
     4  C    0.159107
     5  C   -0.170415
     6  C   -0.218313
     7  H    0.226171
     8  H    0.224565
     9  H    0.277078
    10  H    0.269794
    11  H    0.222192
    12  N    0.491714
    13  O   -0.464643
    14  O   -0.457254
    15  C   -0.170897
    16  C   -0.218959
    17  C   -0.168491
    18  C    0.164878
    19  C   -0.151148
    20  C   -0.217222
    21  H    0.218974
    22  H    0.218910
    23  H    0.273522
    24  H    0.272934
    25  H    0.212399
    26  N    0.489815
    27  O   -0.461260
    28  O   -0.463589
 Sum of Mulliken charges =  -0.00000

 Dipole moment (field-independent basis, Debye):
    X=              6.5426    Y=              6.6464    Z=              0.6162  Tot=              9.3466
 Quadrupole moment (field-independent basis, Debye-Ang):
   XX=            -89.2453   YY=           -105.5073   ZZ=           -100.3977
   XY=            -10.8283   XZ=             -8.2562   YZ=             -2.8478

 Normal termination of Gaussian 16 at Thu May  6 17:49:21 2021.
