 Gaussian 16, Revision A.03,
 Gaussian 16:  EM64L-G16RevA.03 25-Dec-2016

 -------------
 #p 6-31g* mp2
 -------------

 ------------------------------------------------------
 Input file generated by CHIRIPA (05-May-2021 14:55:22)
 ------------------------------------------------------
 Symbolic Z-matrix:
 Charge =  0 Multiplicity = 1

                         Standard orientation:
 ---------------------------------------------------------------------
 Center     Atomic      Atomic             Coordinates (Angstroms)
 Number     Number       Type             X           Y           Z
 ---------------------------------------------------------------------
      1          6           0       -4.927638   -1.609359   -0.583823
      2          6           0       -4.100483   -1.948684    0.491906
      3          6           0       -3.065108   -1.096711    0.887742
      4          6           0       -2.884450    0.092012    0.182341
      5          6           0       -3.691789    0.458027   -0.893543
      6          6           0       -4.721015   -0.409202   -1.271902
      7          1           0       -5.729554   -2.277118   -0.884530
      8          1           0       -4.258618   -2.880093    1.028113
      9          1           0       -2.409949   -1.334755    1.716910
     10          1           0       -3.509588    1.393345   -1.408714
     11          1           0       -5.361843   -0.143093   -2.107707
     12          7           0       -1.791600    1.002034    0.592144
     13          8           0       -1.653179    2.043522   -0.045649
     14          8           0       -1.094137    0.656589    1.543380
     15          6           0        3.331415    0.494025    0.093114
     16          6           0        3.321770    1.911490   -0.480197
     17          6           0        2.132946    2.739070    0.009294
     18          1           0        2.394446   -0.011033   -0.178825
     19          1           0        3.349328    0.549902    1.190361
     20          1           0        3.305278    1.852954   -1.576061
     21          1           0        4.258953    2.413167   -0.207023
     22          1           0        2.148073    2.827151    1.100447
     23          1           0        1.188980    2.263755   -0.276369
     24          1           0        2.145722    3.748795   -0.412786
     25          6           0        4.513873   -0.345621   -0.387004
     26          6           0        4.523517   -1.763087    0.186307
     27          6           0        5.712342   -2.590666   -0.303185
     28          1           0        4.495958   -0.401499   -1.484252
     29          1           0        5.450841    0.159436   -0.115064
     30          1           0        3.586334   -2.264764   -0.086868
     31          1           0        4.540010   -1.704551    1.282170
     32          1           0        6.656307   -2.115351   -0.017522
     33          1           0        5.697214   -2.678747   -1.394337
     34          1           0        5.699565   -3.600391    0.118895
 ---------------------------------------------------------------------

 SCF Done:  E(RHF) =  -669.536216895     A.U. after   15 cycles
 E2 =    -0.2091299404D+01 EUMP2 =    -0.67162751629941D+03

 The electronic state is 1-A.
 Alpha  occ. eigenvalues --  -20.60985 -20.60980 -15.86000 -11.31323 -11.27883
 Alpha  occ. eigenvalues --  -11.27879 -11.27619 -11.26886 -11.26877 -11.20994
 Alpha  occ. eigenvalues --  -11.20607 -11.20593 -11.20347 -11.20268 -11.19214
 Alpha  occ. eigenvalues --   -1.60035  -1.39590  -1.19488  -1.08893  -1.07492
 Alpha  occ. eigenvalues --   -1.04882  -1.02513  -0.95734  -0.94927  -0.86283
 Alpha  occ. eigenvalues --   -0.85932  -0.82566  -0.78620  -0.77622  -0.77232
 Alpha  occ. eigenvalues --   -0.72208  -0.71354  -0.70595  -0.65141  -0.64884
 Alpha  occ. eigenvalues --   -0.64139  -0.62228  -0.59921  -0.58394  -0.56533
 Alpha  occ. eigenvalues --   -0.55388  -0.54217  -0.53215  -0.52973  -0.51636
 Alpha  occ. eigenvalues --   -0.51345  -0.49170  -0.48971  -0.48674  -0.46862
 Alpha  occ. eigenvalues --   -0.45679  -0.44987  -0.44752  -0.44662  -0.42778
 Alpha  occ. eigenvalues --   -0.37466  -0.36483
 Alpha virt. eigenvalues --    0.04875   0.11172   0.16374   0.21313   0.23707
 Alpha virt. eigenvalues --    0.25383   0.27232   0.27549   0.28172   0.28396
 Alpha virt. eigenvalues --    0.29182   0.30877   0.32390   0.32493   0.32582

 Mulliken charges:
               1
     1  C   -0.170528
     2  C   -0.218609
     3  C   -0.170881
     4  C    0.158882
     5  C   -0.170847
     6  C   -0.218585
     7  H    0.226112
     8  H    0.223967
     9  H    0.276062
    10  H    0.275963
    11  H    0.223936
    12  N    0.487329
    13  O   -0.458846
    14  O   -0.458214
    15  C   -0.295775
    16  C   -0.300693
    17  C   -0.478305
    18  H    0.149940
    19  H    0.151436
    20  H    0.146119
    21  H    0.146177
    22  H    0.155993
    23  H    0.175588
    24  H    0.152580
    25  C   -0.297605
    26  C   -0.298465
    27  C   -0.475048
    28  H    0.146664
    29  H    0.147836
    30  H    0.149890
    31  H    0.151979
    32  H    0.154618
    33  H    0.153691
    34  H    0.157639
 Sum of Mulliken charges =  -0.00000

 Dipole moment (field-independent basis, Debye):
    X=             -4.2250    Y=             -3.1874    Z=             -1.3551  Tot=              5.4632
 Quadrupole moment (field-independent basis, Debye-Ang):
   XX=            -74.3304   YY=            -94.5375   ZZ=            -92.5005
   XY=              8.9430   XZ=              5.6529   YZ=             -3.2550

 Normal termination of Gaussian 16 at Thu May  6 04:39:08 2021.
