 Gaussian 16, Revision A.03,
 Gaussian 16:  EM64L-G16RevA.03 25-Dec-2016

 -------------
 #p 6-31g* mp2
 -------------

 ------------------------------------------------------
 Input file generated by CHIRIPA (05-May-2021 14:51:13)
 ------------------------------------------------------
 Symbolic Z-matrix:
 Charge =  0 Multiplicity = 1

                         Standard orientation:
 ---------------------------------------------------------------------
 Center     Atomic      Atomic             Coordinates (Angstroms)
 Number     Number       Type             X           Y           Z
 ---------------------------------------------------------------------
      1          6           0        3.335408    0.534751   -0.550799
      2          6           0        3.747561   -0.937108   -0.592617
      3          6           0        4.944465   -1.190010   -1.509816
      4          1           0        3.096441    0.871092   -1.568991
      5          1           0        4.189996    1.138207   -0.214772
      6          1           0        2.892034   -1.537761   -0.927140
      7          1           0        3.985389   -1.270037    0.425819
      8          1           0        5.814365   -0.615632   -1.175205
      9          1           0        4.714797   -0.884878   -2.535851
     10          1           0        5.222182   -2.248551   -1.524780
     11          6           0        2.140207    0.803489    0.361890
     12          6           0        1.728054    2.275347    0.403707
     13          6           0        0.531150    2.528250    1.320907
     14          1           0        1.285619    0.200033    0.025863
     15          1           0        2.379174    0.467147    1.380082
     16          1           0        1.490225    2.608276   -0.614729
     17          1           0        2.583581    2.876001    0.738230
     18          1           0        0.760818    2.223117    2.346942
     19          1           0       -0.338750    1.953872    0.986296
     20          1           0        0.253433    3.586791    1.335871
     21          6           0       -2.359317   -0.757419    0.752011
     22          6           0       -1.231261   -1.786285    0.668902
     23          6           0       -0.483396   -1.951752    1.992199
     24          1           0       -1.942210    0.210314    1.062592
     25          1           0       -3.065184   -1.060209    1.537799
     26          1           0       -0.528465   -1.482371   -0.117438
     27          1           0       -1.651072   -2.751634    0.358296
     28          1           0       -1.166842   -2.278135    2.782753
     29          1           0       -0.037855   -1.001660    2.304317
     30          1           0        0.318688   -2.691888    1.910218
     31          6           0       -3.116298   -0.580821   -0.563102
     32          6           0       -4.244355    0.448046   -0.479993
     33          6           0       -4.992219    0.613513   -1.803289
     34          1           0       -2.410430   -0.278030   -1.348890
     35          1           0       -3.533404   -1.548553   -0.873683
     36          1           0       -3.824542    1.413395   -0.169388
     37          1           0       -4.947150    0.144132    0.306346
     38          1           0       -5.437759   -0.336580   -2.115408
     39          1           0       -4.308773    0.939895   -2.593845
     40          1           0       -5.794302    1.353648   -1.721309
 ---------------------------------------------------------------------

 SCF Done:  E(RHF) =  -470.732751167     A.U. after   11 cycles
 E2 =    -0.1584655986D+01 EUMP2 =    -0.47231740715314D+03

 The electronic state is 1-A.
 Alpha  occ. eigenvalues --  -11.21663 -11.21623 -11.21611 -11.21587 -11.21434
 Alpha  occ. eigenvalues --  -11.21409 -11.21374 -11.21341 -11.21152 -11.21086
 Alpha  occ. eigenvalues --  -11.21080 -11.20984  -1.08498  -1.08412  -1.03591
 Alpha  occ. eigenvalues --   -1.03506  -0.96045  -0.95948  -0.87057  -0.86970
 Alpha  occ. eigenvalues --   -0.79655  -0.79574  -0.78298  -0.78250  -0.65310
 Alpha  occ. eigenvalues --   -0.64901  -0.61062  -0.60848  -0.59406  -0.59311
 Alpha  occ. eigenvalues --   -0.57652  -0.57574  -0.55470  -0.55129  -0.52721
 Alpha  occ. eigenvalues --   -0.52653  -0.52515  -0.52328  -0.50035  -0.49877
 Alpha  occ. eigenvalues --   -0.48093  -0.47825  -0.46708  -0.46641  -0.46026
 Alpha  occ. eigenvalues --   -0.45807  -0.45572  -0.45428  -0.43826  -0.43773
 Alpha virt. eigenvalues --    0.19726   0.22902   0.23735   0.24208   0.25503
 Alpha virt. eigenvalues --    0.25978   0.26408   0.28167   0.28652   0.29554
 Alpha virt. eigenvalues --    0.31042   0.31530   0.31599   0.31897   0.32305

 Mulliken charges:
               1
     1  C   -0.298047
     2  C   -0.300031
     3  C   -0.475719
     4  H    0.149373
     5  H    0.149702
     6  H    0.151961
     7  H    0.152318
     8  H    0.155272
     9  H    0.155158
    10  H    0.160392
    11  C   -0.306227
    12  C   -0.298997
    13  C   -0.483171
    14  H    0.157299
    15  H    0.150787
    16  H    0.151655
    17  H    0.152340
    18  H    0.155608
    19  H    0.160770
    20  H    0.160979
    21  C   -0.306729
    22  C   -0.302573
    23  C   -0.478042
    24  H    0.156890
    25  H    0.150235
    26  H    0.152960
    27  H    0.152315
    28  H    0.154462
    29  H    0.159296
    30  H    0.160080
    31  C   -0.297875
    32  C   -0.299765
    33  C   -0.475680
    34  H    0.148416
    35  H    0.149897
    36  H    0.151873
    37  H    0.152203
    38  H    0.155214
    39  H    0.155026
    40  H    0.160373
 Sum of Mulliken charges =  -0.00000

 Dipole moment (field-independent basis, Debye):
    X=              0.0196    Y=              0.0144    Z=              0.0158  Tot=              0.0290
 Quadrupole moment (field-independent basis, Debye-Ang):
   XX=            -85.0401   YY=            -84.4155   ZZ=            -85.2583
   XY=              1.0059   XZ=              0.3047   YZ=             -0.0715

 Normal termination of Gaussian 16 at Wed May  5 19:57:25 2021.
