 Gaussian 16, Revision A.03,
 Gaussian 16:  EM64L-G16RevA.03 25-Dec-2016

 -------------
 #p 6-31g* mp2
 -------------

 ------------------------------------------------------
 Input file generated by CHIRIPA (05-May-2021 14:55:25)
 ------------------------------------------------------
 Symbolic Z-matrix:
 Charge =  0 Multiplicity = 1

                         Standard orientation:
 ---------------------------------------------------------------------
 Center     Atomic      Atomic             Coordinates (Angstroms)
 Number     Number       Type             X           Y           Z
 ---------------------------------------------------------------------
      1          6           0       -2.299542    1.991944    0.209021
      2          6           0       -3.475353    2.189853   -0.522294
      3          6           0       -4.396871    1.150387   -0.679984
      4          6           0       -4.109380   -0.079584   -0.090229
      5          6           0       -2.946731   -0.307855    0.644229
      6          6           0       -2.039442    0.745919    0.788926
      7          1           0       -1.589212    2.804983    0.326471
      8          1           0       -3.679972    3.156471   -0.973764
      9          1           0       -5.314945    1.276169   -1.240998
     10          1           0       -2.770382   -1.282610    1.082601
     11          1           0       -1.127109    0.589345    1.357414
     12          7           0       -5.077417   -1.187593   -0.250291
     13          8           0       -4.800814   -2.261757    0.279141
     14          8           0       -6.094438   -0.960905   -0.902148
     15          6           0        5.733905    0.183400   -0.073810
     16          6           0        6.766003   -0.820946   -0.587665
     17          6           0        8.117530   -0.175125   -0.894401
     18          1           0        5.601149    0.977814   -0.820955
     19          1           0        6.123687    0.668174    0.831982
     20          1           0        6.373808   -1.304681   -1.491434
     21          1           0        6.896176   -1.613165    0.160706
     22          1           0        8.534023    0.291972    0.003906
     23          1           0        8.008686    0.602209   -1.657622
     24          1           0        8.840304   -0.911026   -1.260332
     25          6           0        4.377674   -0.447155    0.237264
     26          6           0        3.345575    0.557189    0.751119
     27          6           0        1.994049   -0.088631    1.057854
     28          1           0        3.987891   -0.931930   -0.668528
     29          1           0        4.510430   -1.241571    0.984408
     30          1           0        3.215403    1.349409    0.002747
     31          1           0        3.737771    1.040925    1.654888
     32          1           0        2.102893   -0.865964    1.821076
     33          1           0        1.577555   -0.555728    0.159548
     34          1           0        1.271273    0.647270    1.423786
 ---------------------------------------------------------------------

 SCF Done:  E(RHF) =  -669.535468723     A.U. after   15 cycles
 E2 =    -0.2090733277D+01 EUMP2 =    -0.67162620199941D+03

 The electronic state is 1-A.
 Alpha  occ. eigenvalues --  -20.60714 -20.60709 -15.85766 -11.31121 -11.27690
 Alpha  occ. eigenvalues --  -11.27670 -11.27426 -11.26711 -11.26647 -11.22384
 Alpha  occ. eigenvalues --  -11.22114 -11.21975 -11.21961 -11.21835 -11.21383
 Alpha  occ. eigenvalues --   -1.59790  -1.39344  -1.19289  -1.08992  -1.08688
 Alpha  occ. eigenvalues --   -1.04689  -1.04133  -0.96603  -0.95526  -0.87634
 Alpha  occ. eigenvalues --   -0.86086  -0.82356  -0.80206  -0.78768  -0.77404
 Alpha  occ. eigenvalues --   -0.71985  -0.71113  -0.70403  -0.65614  -0.64940
 Alpha  occ. eigenvalues --   -0.64722  -0.62075  -0.61515  -0.59991  -0.58193
 Alpha  occ. eigenvalues --   -0.55868  -0.55200  -0.53461  -0.53038  -0.53013
 Alpha  occ. eigenvalues --   -0.52627  -0.50521  -0.48744  -0.48741  -0.48514
 Alpha  occ. eigenvalues --   -0.47211  -0.46320  -0.46217  -0.44751  -0.44382
 Alpha  occ. eigenvalues --   -0.37273  -0.36287
 Alpha virt. eigenvalues --    0.05125   0.11341   0.16612   0.20368   0.22451
 Alpha virt. eigenvalues --    0.23821   0.25823   0.26137   0.26952   0.28171
 Alpha virt. eigenvalues --    0.28347   0.30229   0.30833   0.31396   0.31921

 Mulliken charges:
               1
     1  C   -0.172763
     2  C   -0.218531
     3  C   -0.171455
     4  C    0.158855
     5  C   -0.173006
     6  C   -0.223199
     7  H    0.224908
     8  H    0.223032
     9  H    0.275292
    10  H    0.275971
    11  H    0.232856
    12  N    0.488004
    13  O   -0.460487
    14  O   -0.460723
    15  C   -0.298727
    16  C   -0.300143
    17  C   -0.475999
    18  H    0.149842
    19  H    0.150013
    20  H    0.152897
    21  H    0.152822
    22  H    0.155458
    23  H    0.155376
    24  H    0.161635
    25  C   -0.299524
    26  C   -0.299107
    27  C   -0.479975
    28  H    0.151366
    29  H    0.151316
    30  H    0.151952
    31  H    0.153474
    32  H    0.159380
    33  H    0.159896
    34  H    0.149294
 Sum of Mulliken charges =  -0.00000

 Dipole moment (field-independent basis, Debye):
    X=              3.6374    Y=              3.8583    Z=              0.5382  Tot=              5.3298
 Quadrupole moment (field-independent basis, Debye-Ang):
   XX=           -121.8471   YY=            -94.1249   ZZ=            -93.1995
   XY=            -18.9514   XZ=             -0.2329   YZ=             -2.4327

 Normal termination of Gaussian 16 at Thu May  6 01:37:48 2021.
