 Gaussian 16, Revision A.03,
 Gaussian 16:  EM64L-G16RevA.03 25-Dec-2016

 -------------
 #p 6-31g* mp2
 -------------

 ------------------------------------------------------
 Input file generated by CHIRIPA (05-May-2021 14:51:14)
 ------------------------------------------------------
 Symbolic Z-matrix:
 Charge =  0 Multiplicity = 1

                         Standard orientation:
 ---------------------------------------------------------------------
 Center     Atomic      Atomic             Coordinates (Angstroms)
 Number     Number       Type             X           Y           Z
 ---------------------------------------------------------------------
      1          6           0        3.529860    0.018635   -0.522374
      2          6           0        3.523226   -1.362973    0.132685
      3          6           0        4.227633   -2.422579   -0.715159
      4          1           0        3.045875   -0.046840   -1.506455
      5          1           0        4.569131    0.325190   -0.704952
      6          1           0        2.484321   -1.666231    0.315236
      7          1           0        4.007113   -1.294161    1.115403
      8          1           0        5.273059   -2.146340   -0.886557
      9          1           0        3.741615   -2.520524   -1.691271
     10          1           0        4.211147   -3.402561   -0.228103
     11          6           0        2.829370    1.088624    0.313189
     12          6           0        2.836004    2.470232   -0.341870
     13          6           0        2.131598    3.529838    0.505975
     14          1           0        1.790100    0.782069    0.495768
     15          1           0        3.313356    1.154099    1.297270
     16          1           0        2.352118    2.401421   -1.324588
     17          1           0        3.874910    2.773490   -0.524421
     18          1           0        2.617616    3.627783    1.482086
     19          1           0        1.086172    3.253600    0.677373
     20          1           0        2.148084    4.509820    0.018918
     21          6           0       -2.758543   -1.189353    0.060029
     22          6           0       -1.415899   -1.079308    0.783342
     23          6           0       -0.584930   -2.359017    0.685221
     24          1           0       -3.326641   -2.030294    0.480778
     25          1           0       -2.579086   -1.430989   -0.996760
     26          1           0       -1.597786   -0.836589    1.838150
     27          1           0       -0.851013   -0.238413    0.360952
     28          1           0       -0.374288   -2.602279   -0.361228
     29          1           0       -1.125305   -3.203854    1.124364
     30          1           0        0.370715   -2.258312    1.209112
     31          6           0       -3.600687    0.082094    0.149156
     32          6           0       -4.943331   -0.027951   -0.574158
     33          6           0       -5.774301    1.251758   -0.476037
     34          1           0       -3.780144    0.323730    1.205945
     35          1           0       -3.032591    0.923034   -0.271593
     36          1           0       -5.508219   -0.868846   -0.151768
     37          1           0       -4.761445   -0.270670   -1.628966
     38          1           0       -5.233926    2.096595   -0.915179
     39          1           0       -5.984942    1.495020    0.570412
     40          1           0       -6.729947    1.151053   -0.999926
 ---------------------------------------------------------------------

 SCF Done:  E(RHF) =  -470.733175349     A.U. after   11 cycles
 E2 =    -0.1583209437D+01 EUMP2 =    -0.47231638478620D+03

 The electronic state is 1-A.
 Alpha  occ. eigenvalues --  -11.21684 -11.21635 -11.21600 -11.21522 -11.21458
 Alpha  occ. eigenvalues --  -11.21397 -11.21386 -11.21325 -11.21132 -11.21095
 Alpha  occ. eigenvalues --  -11.21069 -11.21030  -1.08487  -1.08406  -1.03590
 Alpha  occ. eigenvalues --   -1.03501  -0.96036  -0.95956  -0.87063  -0.86963
 Alpha  occ. eigenvalues --   -0.79686  -0.79535  -0.78302  -0.78221  -0.65173
 Alpha  occ. eigenvalues --   -0.64999  -0.61007  -0.60902  -0.59462  -0.59268
 Alpha  occ. eigenvalues --   -0.57650  -0.57563  -0.55319  -0.55248  -0.52782
 Alpha  occ. eigenvalues --   -0.52634  -0.52470  -0.52363  -0.50017  -0.49860
 Alpha  occ. eigenvalues --   -0.48049  -0.47810  -0.46756  -0.46513  -0.45893
 Alpha  occ. eigenvalues --   -0.45785  -0.45746  -0.45584  -0.43810  -0.43744
 Alpha virt. eigenvalues --    0.20351   0.23203   0.23725   0.24289   0.25943
 Alpha virt. eigenvalues --    0.26830   0.27082   0.27460   0.27950   0.29272
 Alpha virt. eigenvalues --    0.30219   0.31460   0.31672   0.32032   0.32147

 Mulliken charges:
               1
     1  C   -0.297205
     2  C   -0.308932
     3  C   -0.474988
     4  H    0.149042
     5  H    0.149426
     6  H    0.161671
     7  H    0.151162
     8  H    0.154902
     9  H    0.154811
    10  H    0.160204
    11  C   -0.303046
    12  C   -0.299425
    13  C   -0.475729
    14  H    0.153498
    15  H    0.149690
    16  H    0.151498
    17  H    0.152079
    18  H    0.155300
    19  H    0.155101
    20  H    0.160180
    21  C   -0.298346
    22  C   -0.302935
    23  C   -0.480884
    24  H    0.150095
    25  H    0.149562
    26  H    0.152659
    27  H    0.153690
    28  H    0.155034
    29  H    0.155975
    30  H    0.165561
    31  C   -0.298346
    32  C   -0.299696
    33  C   -0.475755
    34  H    0.149770
    35  H    0.149442
    36  H    0.152063
    37  H    0.151955
    38  H    0.155246
    39  H    0.155293
    40  H    0.160378
 Sum of Mulliken charges =  -0.00000

 Dipole moment (field-independent basis, Debye):
    X=             -0.0390    Y=             -0.0189    Z=              0.0179  Tot=              0.0469
 Quadrupole moment (field-independent basis, Debye-Ang):
   XX=            -84.6175   YY=            -86.1002   ZZ=            -84.0591
   XY=              1.3986   XZ=              0.2730   YZ=             -0.6488

 Normal termination of Gaussian 16 at Thu May  6 05:37:50 2021.
