 Gaussian 16, Revision A.03,
 Gaussian 16:  EM64L-G16RevA.03 25-Dec-2016

 -------------
 #p 6-31g* mp2
 -------------

 ------------------------------------------------------
 Input file generated by CHIRIPA (05-May-2021 14:55:20)
 ------------------------------------------------------
 Symbolic Z-matrix:
 Charge =  0 Multiplicity = 1

                         Standard orientation:
 ---------------------------------------------------------------------
 Center     Atomic      Atomic             Coordinates (Angstroms)
 Number     Number       Type             X           Y           Z
 ---------------------------------------------------------------------
      1          6           0        3.867398   -1.778815   -0.731725
      2          6           0        2.592200   -1.536077   -1.252752
      3          6           0        1.925848   -0.339851   -0.970678
      4          6           0        2.567076    0.595844   -0.160375
      5          6           0        3.837082    0.383258    0.373649
      6          6           0        4.484681   -0.820063    0.078384
      7          1           0        4.377753   -2.710829   -0.955971
      8          1           0        2.110386   -2.278850   -1.882187
      9          1           0        0.938187   -0.126113   -1.360882
     10          1           0        4.291832    1.142728    0.998010
     11          1           0        5.474970   -1.005871    0.484399
     12          7           0        1.871565    1.865991    0.145227
     13          8           0        2.458056    2.674268    0.861715
     14          8           0        0.753104    2.029205   -0.337517
     15          6           0       -3.810028    0.086003   -0.052296
     16          6           0       -5.305356   -0.183415   -0.223740
     17          6           0       -6.046801    0.987587   -0.869345
     18          1           0       -3.674306    0.989180    0.558275
     19          1           0       -3.368768    0.303685   -1.034794
     20          1           0       -5.743397   -0.401884    0.758608
     21          1           0       -5.437533   -1.086164   -0.833814
     22          1           0       -5.636949    1.203159   -1.861389
     23          1           0       -5.944551    1.891327   -0.259919
     24          1           0       -7.114177    0.773613   -0.982415
     25          6           0       -3.055135   -1.075466    0.591794
     26          6           0       -1.559808   -0.806047    0.763238
     27          6           0       -0.818362   -1.977049    1.408843
     28          1           0       -3.496395   -1.293148    1.574291
     29          1           0       -3.190857   -1.978642   -0.018777
     30          1           0       -1.427631    0.096701    1.373312
     31          1           0       -1.121765   -0.587579   -0.219110
     32          1           0       -0.920613   -2.880790    0.799417
     33          1           0       -1.228215   -2.192622    2.400886
     34          1           0        0.249013   -1.763075    1.521912
 ---------------------------------------------------------------------

 SCF Done:  E(RHF) =  -669.535271853     A.U. after   15 cycles
 E2 =    -0.2092735254D+01 EUMP2 =    -0.67162800710661D+03

 The electronic state is 1-A.
 Alpha  occ. eigenvalues --  -20.60816 -20.60799 -15.85851 -11.31221 -11.27790
 Alpha  occ. eigenvalues --  -11.27782 -11.27531 -11.26805 -11.26795 -11.21328
 Alpha  occ. eigenvalues --  -11.21301 -11.21138 -11.20998 -11.20977 -11.20750
 Alpha  occ. eigenvalues --   -1.59877  -1.39430  -1.19398  -1.08788  -1.08143
 Alpha  occ. eigenvalues --   -1.04802  -1.03286  -0.95754  -0.95615  -0.86758
 Alpha  occ. eigenvalues --   -0.86198  -0.82454  -0.79343  -0.77957  -0.77470
 Alpha  occ. eigenvalues --   -0.72071  -0.71195  -0.70511  -0.65047  -0.64896
 Alpha  occ. eigenvalues --   -0.64705  -0.62182  -0.60675  -0.59113  -0.57356
 Alpha  occ. eigenvalues --   -0.55305  -0.55039  -0.53163  -0.52898  -0.52408
 Alpha  occ. eigenvalues --   -0.52135  -0.49686  -0.48846  -0.48831  -0.47638
 Alpha  occ. eigenvalues --   -0.46365  -0.45512  -0.45399  -0.44759  -0.43522
 Alpha  occ. eigenvalues --   -0.37372  -0.36374
 Alpha virt. eigenvalues --    0.05007   0.11204   0.16500   0.20872   0.23152
 Alpha virt. eigenvalues --    0.24380   0.25839   0.27372   0.27623   0.28147
 Alpha virt. eigenvalues --    0.28938   0.30616   0.31512   0.31839   0.31919

 Mulliken charges:
               1
     1  C   -0.170713
     2  C   -0.219239
     3  C   -0.169244
     4  C    0.156923
     5  C   -0.171029
     6  C   -0.218577
     7  H    0.225866
     8  H    0.223779
     9  H    0.279046
    10  H    0.275691
    11  H    0.223605
    12  N    0.487939
    13  O   -0.460360
    14  O   -0.459989
    15  C   -0.297854
    16  C   -0.299603
    17  C   -0.475495
    18  H    0.155655
    19  H    0.149963
    20  H    0.151162
    21  H    0.149289
    22  H    0.155297
    23  H    0.157192
    24  H    0.158655
    25  C   -0.298477
    26  C   -0.300816
    27  C   -0.478458
    28  H    0.149218
    29  H    0.145089
    30  H    0.163361
    31  H    0.146727
    32  H    0.148915
    33  H    0.156127
    34  H    0.160355
 Sum of Mulliken charges =  -0.00000

 Dipole moment (field-independent basis, Debye):
    X=              2.5019    Y=             -4.3275    Z=             -1.0477  Tot=              5.1073
 Quadrupole moment (field-independent basis, Debye-Ang):
   XX=            -79.9223   YY=           -100.9758   ZZ=            -92.8066
   XY=             -8.8577   XZ=             -1.3291   YZ=              1.9004

 Normal termination of Gaussian 16 at Thu May  6 17:27:24 2021.
