 Gaussian 16, Revision A.03,
 Gaussian 16:  EM64L-G16RevA.03 25-Dec-2016

 -------------
 #p 6-31g* mp2
 -------------

 ------------------------------------------------------
 Input file generated by CHIRIPA (05-May-2021 14:53:17)
 ------------------------------------------------------
 Symbolic Z-matrix:
 Charge =  0 Multiplicity = 1

                         Standard orientation:
 ---------------------------------------------------------------------
 Center     Atomic      Atomic             Coordinates (Angstroms)
 Number     Number       Type             X           Y           Z
 ---------------------------------------------------------------------
      1          6           0        3.505791   -0.531067   -0.013495
      2          6           0        4.012846   -1.234009   -1.273159
      3          6           0        3.972138   -2.758006   -1.156666
      4          1           0        4.110881   -0.850832    0.845901
      5          1           0        2.476382   -0.856767    0.190539
      6          1           0        5.040507   -0.906028   -1.475538
      7          1           0        3.406601   -0.912387   -2.129688
      8          1           0        2.948729   -3.103524   -0.978190
      9          1           0        4.591918   -3.097129   -0.320323
     10          1           0        4.338927   -3.240254   -2.068127
     11          6           0        3.540348    0.992845   -0.114621
     12          6           0        3.033293    1.695788    1.145042
     13          6           0        3.074001    3.219785    1.028549
     14          1           0        4.569757    1.318545   -0.318656
     15          1           0        2.935258    1.312610   -0.974017
     16          1           0        3.639538    1.374165    2.001572
     17          1           0        2.005632    1.367807    1.347422
     18          1           0        2.454221    3.558907    0.192207
     19          1           0        4.097410    3.565302    0.850074
     20          1           0        2.707212    3.702032    1.940011
     21          6           0       -1.669655   -1.508562    1.901944
     22          6           0       -0.882581   -0.944884    0.892338
     23          6           0       -1.471737   -0.207025   -0.138684
     24          6           0       -2.857074   -0.051978   -0.128990
     25          6           0       -3.668226   -0.601272    0.862776
     26          6           0       -3.057518   -1.335262    1.883972
     27          1           0       -1.203612   -2.080246    2.699050
     28          1           0        0.195490   -1.077842    0.903742
     29          1           0       -0.886211    0.240220   -0.932755
     30          1           0       -4.740392   -0.451565    0.824509
     31          1           0       -3.671264   -1.771883    2.666739
     32          7           0       -3.492195    0.727112   -1.215285
     33          8           0       -4.714795    0.849214   -1.184035
     34          8           0       -2.755376    1.200909   -2.077406
 ---------------------------------------------------------------------

 SCF Done:  E(RHF) =  -669.535574040     A.U. after   15 cycles
 E2 =    -0.2091575581D+01 EUMP2 =    -0.67162714962159D+03

 The electronic state is 1-A.
 Alpha  occ. eigenvalues --  -20.60773 -20.60768 -15.85827 -11.31193 -11.27769
 Alpha  occ. eigenvalues --  -11.27765 -11.27502 -11.26777 -11.26754 -11.22283
 Alpha  occ. eigenvalues --  -11.22212 -11.22200 -11.22004 -11.21665 -11.21446
 Alpha  occ. eigenvalues --   -1.59849  -1.39402  -1.19367  -1.09116  -1.08759
 Alpha  occ. eigenvalues --   -1.04772  -1.04112  -0.96564  -0.95595  -0.87572
 Alpha  occ. eigenvalues --   -0.86170  -0.82431  -0.80183  -0.78955  -0.77474
 Alpha  occ. eigenvalues --   -0.72045  -0.71172  -0.70474  -0.65810  -0.65017
 Alpha  occ. eigenvalues --   -0.64748  -0.62120  -0.61506  -0.59928  -0.58175
 Alpha  occ. eigenvalues --   -0.55863  -0.55265  -0.53220  -0.53098  -0.53021
 Alpha  occ. eigenvalues --   -0.52835  -0.50499  -0.48808  -0.48800  -0.48492
 Alpha  occ. eigenvalues --   -0.47227  -0.46458  -0.46394  -0.44808  -0.44401
 Alpha  occ. eigenvalues --   -0.37344  -0.36373
 Alpha virt. eigenvalues --    0.05052   0.11259   0.16489   0.18816   0.22920
 Alpha virt. eigenvalues --    0.23730   0.24519   0.26361   0.27313   0.28392
 Alpha virt. eigenvalues --    0.29652   0.30730   0.31337   0.31433   0.31874

 Mulliken charges:
               1
     1  C   -0.303826
     2  C   -0.299958
     3  C   -0.475918
     4  H    0.151985
     5  H    0.140879
     6  H    0.155591
     7  H    0.154439
     8  H    0.152108
     9  H    0.155622
    10  H    0.164036
    11  C   -0.299404
    12  C   -0.300934
    13  C   -0.476290
    14  H    0.153581
    15  H    0.151675
    16  H    0.152305
    17  H    0.147135
    18  H    0.158756
    19  H    0.156737
    20  H    0.161934
    21  C   -0.172579
    22  C   -0.227543
    23  C   -0.174164
    24  C    0.158695
    25  C   -0.170920
    26  C   -0.218474
    27  H    0.226747
    28  H    0.236516
    29  H    0.274969
    30  H    0.275675
    31  H    0.223476
    32  N    0.488185
    33  O   -0.460443
    34  O   -0.460594
 Sum of Mulliken charges =  -0.00000

 Dipole moment (field-independent basis, Debye):
    X=              2.4010    Y=             -2.6853    Z=              3.7873  Tot=              5.2268
 Quadrupole moment (field-independent basis, Debye-Ang):
   XX=           -101.8558   YY=            -96.0490   ZZ=            -95.2590
   XY=              8.8225   XZ=            -13.3496   YZ=             -0.3246

 Normal termination of Gaussian 16 at Thu May  6 20:32:29 2021.
