 Gaussian 16, Revision A.03,
 Gaussian 16:  EM64L-G16RevA.03 25-Dec-2016

 -------------
 #p 6-31g* mp2
 -------------

 ------------------------------------------------------
 Input file generated by CHIRIPA (05-May-2021 14:55:23)
 ------------------------------------------------------
 Symbolic Z-matrix:
 Charge =  0 Multiplicity = 1

                         Standard orientation:
 ---------------------------------------------------------------------
 Center     Atomic      Atomic             Coordinates (Angstroms)
 Number     Number       Type             X           Y           Z
 ---------------------------------------------------------------------
      1          6           0        4.182059    1.027194    0.950090
      2          6           0        4.380638    0.303813   -0.230506
      3          6           0        3.399215   -0.575160   -0.698227
      4          6           0        2.225972   -0.706937    0.043005
      5          6           0        1.998607   -0.000164    1.222864
      6          6           0        2.993772    0.873168    1.671735
      7          1           0        4.949790    1.707810    1.306106
      8          1           0        5.302489    0.421427   -0.793002
      9          1           0        3.526904   -1.147485   -1.609028
     10          1           0        1.069255   -0.138539    1.761914
     11          1           0        2.836823    1.433664    2.588935
     12          7           0        1.179709   -1.634481   -0.442172
     13          8           0        0.154865   -1.732736    0.229153
     14          8           0        1.404304   -2.245672   -1.484592
     15          6           0       -3.404703    0.022860   -0.175048
     16          6           0       -4.596563   -0.095113    0.775498
     17          6           0       -5.255696   -1.473938    0.728831
     18          1           0       -3.738404   -0.191115   -1.199646
     19          1           0       -2.663794   -0.747567    0.079688
     20          1           0       -5.334385    0.676198    0.519930
     21          1           0       -4.260025    0.119356    1.797927
     22          1           0       -4.538206   -2.253456    1.004801
     23          1           0       -5.618671   -1.693452   -0.280457
     24          1           0       -6.105323   -1.536225    1.415938
     25          6           0       -2.735223    1.395551   -0.139752
     26          6           0       -1.543363    1.513523   -1.090297
     27          6           0       -0.884230    2.892349   -1.043630
     28          1           0       -3.476132    2.165978   -0.394487
     29          1           0       -2.401522    1.609526    0.884847
     30          1           0       -1.879901    1.299055   -2.112727
     31          1           0       -0.805541    0.742214   -0.834729
     32          1           0       -0.521256    3.111862   -0.034341
     33          1           0       -1.601720    3.671868   -1.319600
     34          1           0       -0.034604    2.954636   -1.730737
 ---------------------------------------------------------------------

 SCF Done:  E(RHF) =  -669.536311348     A.U. after   15 cycles
 E2 =    -0.2092712507D+01 EUMP2 =    -0.67162902385474D+03

 The electronic state is 1-A.
 Alpha  occ. eigenvalues --  -20.61057 -20.61048 -15.86057 -11.31336 -11.27897
 Alpha  occ. eigenvalues --  -11.27886 -11.27617 -11.26889 -11.26879 -11.20973
 Alpha  occ. eigenvalues --  -11.20833 -11.20774 -11.20734 -11.20310 -11.20296
 Alpha  occ. eigenvalues --   -1.60099  -1.39659  -1.19498  -1.08911  -1.07675
 Alpha  occ. eigenvalues --   -1.04887  -1.02881  -0.95762  -0.95331  -0.86352
 Alpha  occ. eigenvalues --   -0.86289  -0.82601  -0.78946  -0.77681  -0.77428
 Alpha  occ. eigenvalues --   -0.72293  -0.71414  -0.70607  -0.65161  -0.64891
 Alpha  occ. eigenvalues --   -0.64292  -0.62237  -0.60288  -0.58715  -0.56935
 Alpha  occ. eigenvalues --   -0.55393  -0.54628  -0.53209  -0.52979  -0.52069
 Alpha  occ. eigenvalues --   -0.51754  -0.49294  -0.49053  -0.49031  -0.47276
 Alpha  occ. eigenvalues --   -0.46066  -0.45370  -0.45020  -0.44413  -0.43090
 Alpha  occ. eigenvalues --   -0.37466  -0.36479
 Alpha virt. eigenvalues --    0.04835   0.11125   0.16292   0.21148   0.23395
 Alpha virt. eigenvalues --    0.24813   0.26893   0.27413   0.28113   0.28318
 Alpha virt. eigenvalues --    0.28846   0.31010   0.31804   0.32174   0.32458

 Mulliken charges:
               1
     1  C   -0.170223
     2  C   -0.218512
     3  C   -0.170566
     4  C    0.157395
     5  C   -0.171110
     6  C   -0.218250
     7  H    0.226288
     8  H    0.224028
     9  H    0.275957
    10  H    0.275424
    11  H    0.224080
    12  N    0.490590
    13  O   -0.460772
    14  O   -0.456585
    15  C   -0.308671
    16  C   -0.298445
    17  C   -0.475815
    18  H    0.148005
    19  H    0.175252
    20  H    0.147665
    21  H    0.148037
    22  H    0.160073
    23  H    0.154656
    24  H    0.156162
    25  C   -0.295136
    26  C   -0.303986
    27  C   -0.474276
    28  H    0.145824
    29  H    0.142744
    30  H    0.153219
    31  H    0.156536
    32  H    0.148760
    33  H    0.154174
    34  H    0.157476
 Sum of Mulliken charges =  -0.00000

 Dipole moment (field-independent basis, Debye):
    X=              3.9169    Y=              3.0233    Z=              1.6714  Tot=              5.2227
 Quadrupole moment (field-independent basis, Debye-Ang):
   XX=            -77.6057   YY=           -100.9976   ZZ=            -91.3086
   XY=              3.7265   XZ=              2.1326   YZ=              0.0274

 Normal termination of Gaussian 16 at Thu May  6 03:07:22 2021.
