 Gaussian 16, Revision A.03,
 Gaussian 16:  EM64L-G16RevA.03 25-Dec-2016

 -------------
 #p 6-31g* mp2
 -------------

 ------------------------------------------------------
 Input file generated by CHIRIPA (05-May-2021 14:55:22)
 ------------------------------------------------------
 Symbolic Z-matrix:
 Charge =  0 Multiplicity = 1

                         Standard orientation:
 ---------------------------------------------------------------------
 Center     Atomic      Atomic             Coordinates (Angstroms)
 Number     Number       Type             X           Y           Z
 ---------------------------------------------------------------------
      1          6           0       -1.235041   -0.800822    1.305323
      2          6           0       -2.189667   -1.803621    1.106318
      3          6           0       -3.386204   -1.522700    0.440037
      4          6           0       -3.596287   -0.222269   -0.016070
      5          6           0       -2.664574    0.798400    0.166791
      6          6           0       -1.475118    0.494704    0.835753
      7          1           0       -0.308292   -1.027894    1.823948
      8          1           0       -2.005913   -2.810638    1.469907
      9          1           0       -4.142367   -2.280014    0.272374
     10          1           0       -2.876122    1.792823   -0.207092
     11          1           0       -0.735537    1.275484    0.988877
     12          7           0       -4.859260    0.087185   -0.722851
     13          8           0       -5.020389    1.240821   -1.115024
     14          8           0       -5.664133   -0.829759   -0.871269
     15          6           0        3.999096    0.872515    0.314338
     16          6           0        2.653798    1.352056   -0.231736
     17          6           0        1.990485    2.397605    0.665280
     18          1           0        3.851652    0.454753    1.319664
     19          1           0        4.668859    1.735930    0.429787
     20          1           0        1.987235    0.487807   -0.347425
     21          1           0        2.804430    1.768551   -1.235955
     22          1           0        2.633238    3.277463    0.771668
     23          1           0        1.811400    1.989441    1.665246
     24          1           0        1.030139    2.726492    0.256099
     25          6           0        4.674526   -0.172944   -0.571403
     26          6           0        6.019826   -0.652483   -0.025329
     27          6           0        6.683138   -1.698033   -0.922345
     28          1           0        4.004764   -1.036358   -0.686852
     29          1           0        4.821971    0.244819   -1.576728
     30          1           0        5.869193   -1.068979    0.978891
     31          1           0        6.686388    0.211766    0.090361
     32          1           0        6.862222   -1.289870   -1.922312
     33          1           0        6.040384   -2.577891   -1.028733
     34          1           0        7.643484   -2.026919   -0.513164
 ---------------------------------------------------------------------

 SCF Done:  E(RHF) =  -669.535390615     A.U. after   15 cycles
 E2 =    -0.2091475204D+01 EUMP2 =    -0.67162686581911D+03

 The electronic state is 1-A.
 Alpha  occ. eigenvalues --  -20.60732 -20.60727 -15.85783 -11.31146 -11.27711
 Alpha  occ. eigenvalues --  -11.27692 -11.27451 -11.26735 -11.26644 -11.22562
 Alpha  occ. eigenvalues --  -11.22298 -11.22203 -11.22166 -11.22031 -11.21541
 Alpha  occ. eigenvalues --   -1.59807  -1.39361  -1.19311  -1.09204  -1.08708
 Alpha  occ. eigenvalues --   -1.04715  -1.04328  -0.96800  -0.95546  -0.87822
 Alpha  occ. eigenvalues --   -0.86105  -0.82377  -0.80390  -0.78971  -0.77427
 Alpha  occ. eigenvalues --   -0.72003  -0.71130  -0.70428  -0.65862  -0.64961
 Alpha  occ. eigenvalues --   -0.64744  -0.62174  -0.61649  -0.60157  -0.58377
 Alpha  occ. eigenvalues --   -0.56092  -0.55216  -0.53573  -0.53231  -0.53040
 Alpha  occ. eigenvalues --   -0.52671  -0.50717  -0.48762  -0.48758  -0.48694
 Alpha  occ. eigenvalues --   -0.47419  -0.46521  -0.46430  -0.44767  -0.44571
 Alpha  occ. eigenvalues --   -0.37294  -0.36308
 Alpha virt. eigenvalues --    0.05099   0.11269   0.16583   0.19640   0.22583
 Alpha virt. eigenvalues --    0.23927   0.25653   0.26136   0.26755   0.27750
 Alpha virt. eigenvalues --    0.29287   0.30156   0.30910   0.31302   0.32229

 Mulliken charges:
               1
     1  C   -0.174192
     2  C   -0.218342
     3  C   -0.171421
     4  C    0.159008
     5  C   -0.173440
     6  C   -0.225126
     7  H    0.225008
     8  H    0.223022
     9  H    0.275391
    10  H    0.275397
    11  H    0.236888
    12  N    0.488050
    13  O   -0.460465
    14  O   -0.460620
    15  C   -0.298676
    16  C   -0.301733
    17  C   -0.482693
    18  H    0.147152
    19  H    0.152465
    20  H    0.150528
    21  H    0.157636
    22  H    0.164148
    23  H    0.150388
    24  H    0.157244
    25  C   -0.298676
    26  C   -0.300079
    27  C   -0.476045
    28  H    0.148850
    29  H    0.152199
    30  H    0.151229
    31  H    0.153328
    32  H    0.156615
    33  H    0.155195
    34  H    0.161768
 Sum of Mulliken charges =  -0.00000

 Dipole moment (field-independent basis, Debye):
    X=              4.6852    Y=             -1.0464    Z=              2.4273  Tot=              5.3794
 Quadrupole moment (field-independent basis, Debye-Ang):
   XX=           -126.3616   YY=            -89.6530   ZZ=            -95.6600
   XY=              5.5642   XZ=             -9.3751   YZ=             -2.0352

 Normal termination of Gaussian 16 at Thu May  6 06:15:56 2021.
