 Gaussian 16, Revision A.03,
 Gaussian 16:  EM64L-G16RevA.03 25-Dec-2016

 -------------
 #p 6-31g* mp2
 -------------

 ------------------------------------------------------
 Input file generated by CHIRIPA (05-May-2021 14:57:22)
 ------------------------------------------------------
 Symbolic Z-matrix:
 Charge =  0 Multiplicity = 1

                         Standard orientation:
 ---------------------------------------------------------------------
 Center     Atomic      Atomic             Coordinates (Angstroms)
 Number     Number       Type             X           Y           Z
 ---------------------------------------------------------------------
      1          6           0       -4.349711    1.880948    0.882692
      2          6           0       -3.054625    1.575138    1.313682
      3          6           0       -2.432741    0.390349    0.908611
      4          6           0       -3.138233   -0.469719    0.068460
      5          6           0       -4.429542   -0.193107   -0.377965
      6          6           0       -5.031834    0.997407    0.039730
      7          1           0       -4.825195    2.803545    1.202264
      8          1           0       -2.522486    2.259437    1.968364
      9          1           0       -1.430996    0.128829    1.227254
     10          1           0       -4.934787   -0.894962   -1.030304
     11          1           0       -6.037706    1.232307   -0.296557
     12          7           0       -2.490243   -1.727033   -0.367053
     13          8           0       -3.133073   -2.468112   -1.107464
     14          8           0       -1.351789   -1.947629    0.040250
     15          6           0        2.000304    2.198453   -1.174000
     16          6           0        1.413172    0.929486   -1.135005
     17          6           0        2.093616   -0.150450   -0.564668
     18          6           0        3.365365    0.075337   -0.040297
     19          6           0        3.977030    1.327770   -0.064136
     20          6           0        3.278106    2.393201   -0.639383
     21          1           0        1.464542    3.031739   -1.618959
     22          1           0        0.420940    0.775304   -1.549430
     23          1           0        1.662630   -1.143315   -0.521232
     24          1           0        4.967459    1.450519    0.357054
     25          1           0        3.736549    3.377599   -0.668280
     26          7           0        4.095502   -1.060264    0.566093
     27          8           0        5.214797   -0.835218    1.021251
     28          8           0        3.534663   -2.153892    0.574740
 ---------------------------------------------------------------------

 SCF Done:  E(RHF) =  -868.338794704     A.U. after   16 cycles
 E2 =    -0.2599667631D+01 EUMP2 =    -0.87093846233469D+03

 The electronic state is 1-A.
 Alpha  occ. eigenvalues --  -20.61479 -20.61432 -20.60328 -20.60290 -15.86495
 Alpha  occ. eigenvalues --  -15.85366 -11.31799 -11.30791 -11.28344 -11.28335
 Alpha  occ. eigenvalues --  -11.28067 -11.27461 -11.27342 -11.27329 -11.27245
 Alpha  occ. eigenvalues --  -11.27238 -11.26500 -11.26398  -1.60523  -1.59391
 Alpha  occ. eigenvalues --   -1.40078  -1.38937  -1.19961  -1.19008  -1.09365
 Alpha  occ. eigenvalues --   -1.08411  -1.05343  -1.04401  -0.96206  -0.95213
 Alpha  occ. eigenvalues --   -0.86743  -0.85805  -0.83034  -0.82028  -0.78097
 Alpha  occ. eigenvalues --   -0.77039  -0.72704  -0.71852  -0.71579  -0.71048
 Alpha  occ. eigenvalues --   -0.70722  -0.70109  -0.65605  -0.65330  -0.64652
 Alpha  occ. eigenvalues --   -0.64404  -0.62681  -0.61698  -0.55835  -0.54954
 Alpha  occ. eigenvalues --   -0.53695  -0.53423  -0.52767  -0.52470  -0.49465
 Alpha  occ. eigenvalues --   -0.49450  -0.48360  -0.48321  -0.45490  -0.44327
 Alpha  occ. eigenvalues --   -0.37944  -0.37070  -0.36938  -0.36017
 Alpha virt. eigenvalues --    0.04390   0.05453   0.10641   0.11634   0.15886
 Alpha virt. eigenvalues --    0.16860   0.20855   0.21773   0.26739   0.27271
 Alpha virt. eigenvalues --    0.27918   0.28746   0.30591   0.31173   0.32023

 Mulliken charges:
               1
     1  C   -0.170851
     2  C   -0.219504
     3  C   -0.175331
     4  C    0.155922
     5  C   -0.170919
     6  C   -0.218582
     7  H    0.227254
     8  H    0.225432
     9  H    0.277664
    10  H    0.277114
    11  H    0.225380
    12  N    0.488880
    13  O   -0.455470
    14  O   -0.465048
    15  C   -0.172487
    16  C   -0.225159
    17  C   -0.176028
    18  C    0.157085
    19  C   -0.171255
    20  C   -0.219979
    21  H    0.222202
    22  H    0.223921
    23  H    0.295445
    24  H    0.274380
    25  H    0.220940
    26  N    0.487331
    27  O   -0.463789
    28  O   -0.454550
 Sum of Mulliken charges =  -0.00000

 Dipole moment (field-independent basis, Debye):
    X=             -5.1185    Y=              8.2285    Z=             -0.5810  Tot=              9.7080
 Quadrupole moment (field-independent basis, Debye-Ang):
   XX=           -101.7750   YY=           -107.2825   ZZ=           -104.2119
   XY=              3.6525   XZ=             -8.8178   YZ=              0.9322

 Normal termination of Gaussian 16 at Fri May  7 04:48:14 2021.
