 Gaussian 16, Revision A.03,
 Gaussian 16:  EM64L-G16RevA.03 25-Dec-2016

 -------------
 #p 6-31g* mp2
 -------------

 ------------------------------------------------------
 Input file generated by CHIRIPA (05-May-2021 14:55:24)
 ------------------------------------------------------
 Symbolic Z-matrix:
 Charge =  0 Multiplicity = 1

                         Standard orientation:
 ---------------------------------------------------------------------
 Center     Atomic      Atomic             Coordinates (Angstroms)
 Number     Number       Type             X           Y           Z
 ---------------------------------------------------------------------
      1          6           0        1.082699   -1.476991    1.133723
      2          6           0        0.820227   -0.467096    0.202197
      3          6           0        1.868926    0.245348   -0.387042
      4          6           0        3.173865   -0.079756   -0.019986
      5          6           0        3.467609   -1.080502    0.904954
      6          6           0        2.403224   -1.779937    1.481516
      7          1           0        0.261952   -2.025382    1.586535
      8          1           0       -0.204317   -0.229673   -0.069803
      9          1           0        1.694173    1.031973   -1.110990
     10          1           0        4.499384   -1.294497    1.156077
     11          1           0        2.610044   -2.563731    2.204659
     12          7           0        4.292379    0.667591   -0.637077
     13          8           0        5.433202    0.362026   -0.296798
     14          8           0        4.007067    1.544775   -1.449347
     15          6           0       -4.192614   -0.407502   -0.039526
     16          6           0       -3.687717   -1.473490   -1.012528
     17          6           0       -4.429719   -2.802767   -0.870227
     18          1           0       -4.087469   -0.779497    0.988826
     19          1           0       -5.267023   -0.248409   -0.206046
     20          1           0       -2.614286   -1.629530   -0.845159
     21          1           0       -3.793898   -1.098838   -2.038674
     22          1           0       -5.499949   -2.668563   -1.057843
     23          1           0       -4.313634   -3.202270    0.142454
     24          1           0       -4.052844   -3.550382   -1.575136
     25          6           0       -3.460560    0.926997   -0.169672
     26          6           0       -3.965457    1.992985    0.803330
     27          6           0       -3.223454    3.322262    0.661029
     28          1           0       -2.386150    0.767904   -0.003153
     29          1           0       -3.565704    1.298991   -1.198025
     30          1           0       -3.859276    1.618333    1.829476
     31          1           0       -5.038888    2.149025    0.635961
     32          1           0       -3.339540    3.721764   -0.351652
     33          1           0       -2.153225    3.188058    0.848644
     34          1           0       -3.600330    4.069876    1.365938
 ---------------------------------------------------------------------

 SCF Done:  E(RHF) =  -669.535474008     A.U. after   15 cycles
 E2 =    -0.2091487119D+01 EUMP2 =    -0.67162696112671D+03

 The electronic state is 1-A.
 Alpha  occ. eigenvalues --  -20.60747 -20.60741 -15.85800 -11.31170 -11.27744
 Alpha  occ. eigenvalues --  -11.27734 -11.27490 -11.26760 -11.26729 -11.22544
 Alpha  occ. eigenvalues --  -11.22394 -11.22314 -11.22263 -11.21848 -11.21653
 Alpha  occ. eigenvalues --   -1.59822  -1.39375  -1.19344  -1.09317  -1.08740
 Alpha  occ. eigenvalues --   -1.04748  -1.04319  -0.96760  -0.95573  -0.87770
 Alpha  occ. eigenvalues --   -0.86151  -0.82406  -0.80386  -0.79155  -0.77448
 Alpha  occ. eigenvalues --   -0.72019  -0.71145  -0.70456  -0.66016  -0.64996
 Alpha  occ. eigenvalues --   -0.64721  -0.62098  -0.61718  -0.60126  -0.58371
 Alpha  occ. eigenvalues --   -0.56056  -0.55252  -0.53420  -0.53196  -0.53075
 Alpha  occ. eigenvalues --   -0.52838  -0.50703  -0.48784  -0.48773  -0.48695
 Alpha  occ. eigenvalues --   -0.47437  -0.46649  -0.46594  -0.44780  -0.44601
 Alpha  occ. eigenvalues --   -0.37328  -0.36349
 Alpha virt. eigenvalues --    0.05084   0.11256   0.16559   0.18697   0.22857
 Alpha virt. eigenvalues --    0.23493   0.24451   0.26257   0.27230   0.28063
 Alpha virt. eigenvalues --    0.29415   0.30660   0.31144   0.31267   0.31575

 Mulliken charges:
               1
     1  C   -0.173574
     2  C   -0.229596
     3  C   -0.173650
     4  C    0.159011
     5  C   -0.171121
     6  C   -0.218517
     7  H    0.225402
     8  H    0.238775
     9  H    0.276401
    10  H    0.275576
    11  H    0.223324
    12  N    0.488030
    13  O   -0.460592
    14  O   -0.460282
    15  C   -0.298752
    16  C   -0.301037
    17  C   -0.475982
    18  H    0.148319
    19  H    0.154233
    20  H    0.143894
    21  H    0.155993
    22  H    0.158595
    23  H    0.153979
    24  H    0.162864
    25  C   -0.304279
    26  C   -0.299546
    27  C   -0.476492
    28  H    0.142602
    29  H    0.153774
    30  H    0.152207
    31  H    0.155150
    32  H    0.157206
    33  H    0.154521
    34  H    0.163565
 Sum of Mulliken charges =  -0.00000

 Dipole moment (field-independent basis, Debye):
    X=             -4.1653    Y=             -2.5830    Z=              2.1474  Tot=              5.3510
 Quadrupole moment (field-independent basis, Debye-Ang):
   XX=           -116.6632   YY=            -93.9862   ZZ=            -93.4700
   XY=            -10.9415   XZ=              9.6577   YZ=             -1.9962

 Normal termination of Gaussian 16 at Wed May  5 19:08:32 2021.
