 Gaussian 16, Revision A.03,
 Gaussian 16:  EM64L-G16RevA.03 25-Dec-2016

 -------------
 #p 6-31g* mp2
 -------------

 ------------------------------------------------------
 Input file generated by CHIRIPA (05-May-2021 14:53:18)
 ------------------------------------------------------
 Symbolic Z-matrix:
 Charge =  0 Multiplicity = 1

                         Standard orientation:
 ---------------------------------------------------------------------
 Center     Atomic      Atomic             Coordinates (Angstroms)
 Number     Number       Type             X           Y           Z
 ---------------------------------------------------------------------
      1          6           0        4.810463   -0.389577    0.226723
      2          6           0        5.356840   -1.438201   -0.742733
      3          6           0        6.308840   -2.426966   -0.069061
      4          1           0        5.650300    0.156843    0.677326
      5          1           0        4.290202   -0.897681    1.050467
      6          1           0        5.874722   -0.928220   -1.565129
      7          1           0        4.515597   -1.982058   -1.191224
      8          1           0        5.799950   -2.961856    0.739347
      9          1           0        7.166798   -1.902031    0.363319
     10          1           0        6.687539   -3.167697   -0.780233
     11          6           0        3.857261    0.606063   -0.431939
     12          6           0        3.310884    1.654687    0.537517
     13          6           0        2.358884    2.643452   -0.136155
     14          1           0        4.377522    1.114167   -1.255683
     15          1           0        3.017424    0.059644   -0.882542
     16          1           0        4.152127    2.198545    0.986008
     17          1           0        2.793002    1.144707    1.359913
     18          1           0        1.500926    2.118517   -0.568535
     19          1           0        2.867774    3.178343   -0.944563
     20          1           0        1.980185    3.384183    0.575017
     21          6           0       -1.219050    1.062954    0.675299
     22          6           0       -1.886614    1.397747   -0.507408
     23          6           0       -3.087852    0.768395   -0.847247
     24          6           0       -3.595306   -0.195503    0.022627
     25          6           0       -2.953706   -0.550866    1.208105
     26          6           0       -1.753784    0.091430    1.527777
     27          1           0       -0.286410    1.556878    0.931462
     28          1           0       -1.473674    2.151872   -1.171351
     29          1           0       -3.625403    1.008343   -1.756578
     30          1           0       -3.390017   -1.306567    1.849950
     31          1           0       -1.237520   -0.170591    2.446940
     32          7           0       -4.866307   -0.868621   -0.326471
     33          8           0       -5.292545   -1.714479    0.456779
     34          8           0       -5.412212   -0.537607   -1.376735
 ---------------------------------------------------------------------

 SCF Done:  E(RHF) =  -669.535416901     A.U. after   15 cycles
 E2 =    -0.2091352383D+01 EUMP2 =    -0.67162676928443D+03

 The electronic state is 1-A.
 Alpha  occ. eigenvalues --  -20.60741 -20.60736 -15.85795 -11.31155 -11.27728
 Alpha  occ. eigenvalues --  -11.27724 -11.27401 -11.26730 -11.26719 -11.22693
 Alpha  occ. eigenvalues --  -11.22388 -11.22205 -11.22123 -11.22026 -11.21499
 Alpha  occ. eigenvalues --   -1.59817  -1.39370  -1.19326  -1.09223  -1.08716
 Alpha  occ. eigenvalues --   -1.04730  -1.04359  -0.96822  -0.95551  -0.87840
 Alpha  occ. eigenvalues --   -0.86124  -0.82389  -0.80433  -0.78978  -0.77440
 Alpha  occ. eigenvalues --   -0.72012  -0.71140  -0.70456  -0.65858  -0.64975
 Alpha  occ. eigenvalues --   -0.64737  -0.62085  -0.61760  -0.60216  -0.58394
 Alpha  occ. eigenvalues --   -0.56250  -0.55067  -0.53513  -0.53241  -0.53046
 Alpha  occ. eigenvalues --   -0.52816  -0.50744  -0.48771  -0.48769  -0.48734
 Alpha  occ. eigenvalues --   -0.47463  -0.46530  -0.46424  -0.44777  -0.44584
 Alpha  occ. eigenvalues --   -0.37294  -0.36339
 Alpha virt. eigenvalues --    0.05083   0.11275   0.16531   0.19627   0.22559
 Alpha virt. eigenvalues --    0.23783   0.25550   0.25903   0.26753   0.27551
 Alpha virt. eigenvalues --    0.29339   0.30064   0.30770   0.31165   0.31590

 Mulliken charges:
               1
     1  C   -0.298670
     2  C   -0.300409
     3  C   -0.476114
     4  H    0.150948
     5  H    0.149068
     6  H    0.152986
     7  H    0.153217
     8  H    0.155530
     9  H    0.155740
    10  H    0.162242
    11  C   -0.299241
    12  C   -0.300352
    13  C   -0.484821
    14  H    0.152046
    15  H    0.150984
    16  H    0.157106
    17  H    0.147325
    18  H    0.149752
    19  H    0.163231
    20  H    0.159573
    21  C   -0.176744
    22  C   -0.221984
    23  C   -0.170752
    24  C    0.158163
    25  C   -0.170743
    26  C   -0.220228
    27  H    0.236637
    28  H    0.224406
    29  H    0.275533
    30  H    0.275379
    31  H    0.223185
    32  N    0.488072
    33  O   -0.460559
    34  O   -0.460508
 Sum of Mulliken charges =  -0.00000

 Dipole moment (field-independent basis, Debye):
    X=              4.7181    Y=              2.3613    Z=              1.1889  Tot=              5.4083
 Quadrupole moment (field-independent basis, Debye-Ang):
   XX=           -126.6849   YY=            -94.9129   ZZ=            -91.4807
   XY=             -8.5370   XZ=             -4.6111   YZ=             -2.7514

 Normal termination of Gaussian 16 at Thu May  6 15:39:23 2021.
