 Gaussian 16, Revision A.03,
 Gaussian 16:  EM64L-G16RevA.03 25-Dec-2016

 -------------
 #p 6-31g* mp2
 -------------

 ------------------------------------------------------
 Input file generated by CHIRIPA (05-May-2021 14:57:21)
 ------------------------------------------------------
 Symbolic Z-matrix:
 Charge =  0 Multiplicity = 1

                         Standard orientation:
 ---------------------------------------------------------------------
 Center     Atomic      Atomic             Coordinates (Angstroms)
 Number     Number       Type             X           Y           Z
 ---------------------------------------------------------------------
      1          6           0       -0.869720    0.975262   -1.063716
      2          6           0       -1.117477   -0.401225   -1.084191
      3          6           0       -2.365828   -0.903668   -0.705087
      4          6           0       -3.347963    0.002973   -0.309227
      5          6           0       -3.131728    1.379770   -0.278206
      6          6           0       -1.875862    1.859807   -0.661498
      7          1           0        0.102948    1.356869   -1.359840
      8          1           0       -0.337973   -1.090519   -1.396107
      9          1           0       -2.584645   -1.964561   -0.711564
     10          1           0       -3.928570    2.042190    0.037484
     11          1           0       -1.686282    2.929302   -0.644615
     12          7           0       -4.673514   -0.517081    0.094330
     13          8           0       -5.522065    0.302525    0.439067
     14          8           0       -4.838830   -1.734458    0.058260
     15          6           0        1.037580    0.178708    1.760768
     16          6           0        1.774189    1.305396    1.380635
     17          6           0        2.934837    1.169137    0.613251
     18          6           0        3.331735   -0.114534    0.241839
     19          6           0        2.619279   -1.256407    0.604914
     20          6           0        1.461728   -1.096350    1.372379
     21          1           0        0.137163    0.293801    2.356921
     22          1           0        1.447165    2.296853    1.680825
     23          1           0        3.524020    2.024329    0.305146
     24          1           0        2.970311   -2.231778    0.290516
     25          1           0        0.891650   -1.973138    1.666147
     26          7           0        4.558823   -0.271383   -0.570599
     27          8           0        4.887351   -1.413243   -0.885020
     28          8           0        5.168850    0.750510   -0.877582
 ---------------------------------------------------------------------

 SCF Done:  E(RHF) =  -868.336422361     A.U. after   16 cycles
 E2 =    -0.2603604944D+01 EUMP2 =    -0.87094002730448D+03

 The electronic state is 1-A.
 Alpha  occ. eigenvalues --  -20.61544 -20.61538 -20.61266 -20.61261 -15.86606
 Alpha  occ. eigenvalues --  -15.86323 -11.32082 -11.31711 -11.28683 -11.28652
 Alpha  occ. eigenvalues --  -11.28313 -11.28285 -11.28273 -11.27931 -11.27624
 Alpha  occ. eigenvalues --  -11.27575 -11.27291 -11.27194  -1.60623  -1.60345
 Alpha  occ. eigenvalues --   -1.40172  -1.39897  -1.20275  -1.19889  -1.09624
 Alpha  occ. eigenvalues --   -1.09235  -1.05684  -1.05295  -0.96420  -0.96086
 Alpha  occ. eigenvalues --   -0.87044  -0.86667  -0.83248  -0.82922  -0.78306
 Alpha  occ. eigenvalues --   -0.77983  -0.72807  -0.72533  -0.71964  -0.71680
 Alpha  occ. eigenvalues --   -0.71274  -0.70951  -0.65875  -0.65647  -0.65506
 Alpha  occ. eigenvalues --   -0.65278  -0.63002  -0.62639  -0.56064  -0.55781
 Alpha  occ. eigenvalues --   -0.54439  -0.53721  -0.53394  -0.53172  -0.49578
 Alpha  occ. eigenvalues --   -0.49565  -0.49296  -0.49290  -0.45555  -0.45299
 Alpha  occ. eigenvalues --   -0.38938  -0.37641  -0.37044  -0.36569
 Alpha virt. eigenvalues --    0.04131   0.04589   0.09845   0.11177   0.15586
 Alpha virt. eigenvalues --    0.16194   0.20374   0.21314   0.25945   0.27169
 Alpha virt. eigenvalues --    0.27623   0.27946   0.30048   0.30650   0.31720

 Mulliken charges:
               1
     1  C   -0.166722
     2  C   -0.217004
     3  C   -0.176916
     4  C    0.156804
     5  C   -0.172299
     6  C   -0.225615
     7  H    0.229929
     8  H    0.225563
     9  H    0.275133
    10  H    0.276106
    11  H    0.222436
    12  N    0.487985
    13  O   -0.459758
    14  O   -0.460183
    15  C   -0.161858
    16  C   -0.224353
    17  C   -0.176891
    18  C    0.156809
    19  C   -0.176584
    20  C   -0.221142
    21  H    0.232370
    22  H    0.224193
    23  H    0.276906
    24  H    0.277642
    25  H    0.227088
    26  N    0.488021
    27  O   -0.458464
    28  O   -0.459196
 Sum of Mulliken charges =  -0.00000

 Dipole moment (field-independent basis, Debye):
    X=              0.4475    Y=              2.3489    Z=              1.5259  Tot=              2.8365
 Quadrupole moment (field-independent basis, Debye-Ang):
   XX=           -166.0023   YY=            -95.7525   ZZ=           -103.6539
   XY=             -4.8090   XZ=             11.6126   YZ=              0.1579

 Normal termination of Gaussian 16 at Wed May  5 16:13:16 2021.
