 Gaussian 16, Revision A.03,
 Gaussian 16:  EM64L-G16RevA.03 25-Dec-2016

 -------------
 #p 6-31g* mp2
 -------------

 ------------------------------------------------------
 Input file generated by CHIRIPA (05-May-2021 14:55:20)
 ------------------------------------------------------
 Symbolic Z-matrix:
 Charge =  0 Multiplicity = 1

                         Standard orientation:
 ---------------------------------------------------------------------
 Center     Atomic      Atomic             Coordinates (Angstroms)
 Number     Number       Type             X           Y           Z
 ---------------------------------------------------------------------
      1          6           0        6.097512    0.257626    0.709419
      2          6           0        5.060245    0.977766    1.311080
      3          6           0        3.729089    0.730818    0.962388
      4          6           0        3.470119   -0.247780    0.003967
      5          6           0        4.481641   -0.981986   -0.613328
      6          6           0        5.805414   -0.718232   -0.249175
      7          1           0        7.128718    0.455988    0.986296
      8          1           0        5.284128    1.736215    2.055847
      9          1           0        2.906720    1.273581    1.412428
     10          1           0        4.227225   -1.731879   -1.352484
     11          1           0        6.608940   -1.279048   -0.718084
     12          7           0        2.064791   -0.518109   -0.373361
     13          8           0        1.863013   -1.385461   -1.220488
     14          8           0        1.191684    0.142478    0.185160
     15          6           0       -3.995904    0.243215   -0.263883
     16          6           0       -3.475613    1.569778   -0.818423
     17          6           0       -1.988966    1.520164   -1.172275
     18          1           0       -3.414121   -0.027531    0.627839
     19          1           0       -3.820502   -0.549658   -1.004141
     20          1           0       -3.653196    2.360166   -0.077906
     21          1           0       -4.058830    1.837494   -1.708818
     22          1           0       -1.798391    0.751747   -1.928461
     23          1           0       -1.390453    1.277389   -0.288282
     24          1           0       -1.637979    2.478819   -1.566800
     25          6           0       -5.480534    0.277044    0.094525
     26          6           0       -6.000826   -1.049517    0.649065
     27          6           0       -7.487473   -0.999904    1.002917
     28          1           0       -5.655937    1.069917    0.834783
     29          1           0       -6.062319    0.547791   -0.797197
     30          1           0       -5.417610   -1.317234    1.539460
     31          1           0       -5.823242   -1.839907   -0.091453
     32          1           0       -8.085986   -0.757129    0.118924
     33          1           0       -7.678049   -0.231487    1.759103
     34          1           0       -7.838460   -1.958559    1.397441
 ---------------------------------------------------------------------

 SCF Done:  E(RHF) =  -669.535872386     A.U. after   15 cycles
 E2 =    -0.2090760535D+01 EUMP2 =    -0.67162663292149D+03

 The electronic state is 1-A.
 Alpha  occ. eigenvalues --  -20.60889 -20.60879 -15.85928 -11.31266 -11.27832
 Alpha  occ. eigenvalues --  -11.27828 -11.27573 -11.26844 -11.26834 -11.20873
 Alpha  occ. eigenvalues --  -11.20530 -11.20483 -11.20385 -11.20253 -11.19348
 Alpha  occ. eigenvalues --   -1.59948  -1.39505  -1.19436  -1.08837  -1.07447
 Alpha  occ. eigenvalues --   -1.04836  -1.02492  -0.95678  -0.94913  -0.86236
 Alpha  occ. eigenvalues --   -0.85920  -0.82512  -0.78582  -0.77561  -0.77215
 Alpha  occ. eigenvalues --   -0.72153  -0.71264  -0.70546  -0.65093  -0.64839
 Alpha  occ. eigenvalues --   -0.64088  -0.62184  -0.59893  -0.58355  -0.56522
 Alpha  occ. eigenvalues --   -0.55339  -0.54191  -0.53166  -0.52929  -0.51631
 Alpha  occ. eigenvalues --   -0.51323  -0.49026  -0.48899  -0.48712  -0.46841
 Alpha  occ. eigenvalues --   -0.45629  -0.44933  -0.44723  -0.44650  -0.42764
 Alpha  occ. eigenvalues --   -0.37416  -0.36438
 Alpha virt. eigenvalues --    0.04970   0.11217   0.16462   0.21345   0.23786
 Alpha virt. eigenvalues --    0.25389   0.27264   0.27614   0.28180   0.28465
 Alpha virt. eigenvalues --    0.29173   0.30912   0.32331   0.32559   0.32688

 Mulliken charges:
               1
     1  C   -0.170674
     2  C   -0.218533
     3  C   -0.170754
     4  C    0.157783
     5  C   -0.170575
     6  C   -0.218582
     7  H    0.225867
     8  H    0.223689
     9  H    0.275528
    10  H    0.275823
    11  H    0.223709
    12  N    0.491616
    13  O   -0.459343
    14  O   -0.462380
    15  C   -0.297392
    16  C   -0.300032
    17  C   -0.479672
    18  H    0.152476
    19  H    0.150937
    20  H    0.146299
    21  H    0.146311
    22  H    0.157831
    23  H    0.177280
    24  H    0.150198
    25  C   -0.297536
    26  C   -0.298978
    27  C   -0.475132
    28  H    0.146946
    29  H    0.147420
    30  H    0.151730
    31  H    0.152027
    32  H    0.154044
    33  H    0.153743
    34  H    0.158328
 Sum of Mulliken charges =  -0.00000

 Dipole moment (field-independent basis, Debye):
    X=              5.2980    Y=              0.8585    Z=              1.3623  Tot=              5.5373
 Quadrupole moment (field-independent basis, Debye-Ang):
   XX=            -62.9769   YY=            -93.5242   ZZ=            -92.5083
   XY=              1.1401   XZ=              4.0836   YZ=              2.9344

 Normal termination of Gaussian 16 at Thu May  6 19:04:37 2021.
