 Gaussian 16, Revision A.03,
 Gaussian 16:  EM64L-G16RevA.03 25-Dec-2016

 -------------
 #p 6-31g* mp2
 -------------

 ------------------------------------------------------
 Input file generated by CHIRIPA (05-May-2021 14:51:13)
 ------------------------------------------------------
 Symbolic Z-matrix:
 Charge =  0 Multiplicity = 1

                         Standard orientation:
 ---------------------------------------------------------------------
 Center     Atomic      Atomic             Coordinates (Angstroms)
 Number     Number       Type             X           Y           Z
 ---------------------------------------------------------------------
      1          6           0        4.253603   -0.480444   -0.344824
      2          6           0        5.455261    0.041033    0.443887
      3          6           0        6.766658   -0.070538   -0.334306
      4          1           0        4.430553   -1.529351   -0.619465
      5          1           0        4.170976    0.079586   -1.286596
      6          1           0        5.534775   -0.518877    1.384522
      7          1           0        5.275346    1.088763    0.716848
      8          1           0        6.712107    0.502857   -1.265350
      9          1           0        6.973010   -1.113918   -0.593882
     10          1           0        7.612528    0.307841    0.248097
     11          6           0        2.935300   -0.375580    0.419903
     12          6           0        1.733642   -0.897056   -0.368808
     13          6           0        0.422245   -0.785485    0.409385
     14          1           0        3.017927   -0.935610    1.361675
     15          1           0        2.758350    0.673327    0.694545
     16          1           0        1.913557   -1.944787   -0.641768
     17          1           0        1.654128   -0.337146   -1.309443
     18          1           0        0.215893    0.257894    0.668961
     19          1           0        0.476796   -1.358880    1.340429
     20          1           0       -0.423625   -1.163864   -0.173017
     21          6           0       -2.882016    0.703147   -0.024591
     22          6           0       -2.821315    2.230714   -0.053563
     23          6           0       -1.389348    2.766037   -0.027183
     24          1           0       -2.369526    0.339193    0.876428
     25          1           0       -2.324716    0.304638   -0.883662
     26          1           0       -3.379729    2.626254    0.804538
     27          1           0       -3.334175    2.591083   -0.954520
     28          1           0       -0.825023    2.399351   -0.890711
     29          1           0       -0.870836    2.434724    0.878343
     30          1           0       -1.369297    3.860113   -0.048539
     31          6           0       -4.306887    0.152876   -0.050488
     32          6           0       -4.367589   -1.374691   -0.021516
     33          6           0       -5.799555   -1.910013   -0.047896
     34          1           0       -4.864186    0.551386    0.808583
     35          1           0       -4.819377    0.516831   -0.951507
     36          1           0       -3.854728   -1.735059    0.879441
     37          1           0       -3.809174   -1.770231   -0.879617
     38          1           0       -6.318067   -1.578700   -0.953422
     39          1           0       -6.363879   -1.543328    0.815632
     40          1           0       -5.819606   -3.004089   -0.026540
 ---------------------------------------------------------------------

 SCF Done:  E(RHF) =  -470.731446948     A.U. after   11 cycles
 E2 =    -0.1584173538D+01 EUMP2 =    -0.47231562048623D+03

 The electronic state is 1-A.
 Alpha  occ. eigenvalues --  -11.21592 -11.21586 -11.21565 -11.21502 -11.21349
 Alpha  occ. eigenvalues --  -11.21338 -11.21287 -11.21246 -11.21111 -11.21058
 Alpha  occ. eigenvalues --  -11.21043 -11.20833  -1.08423  -1.08348  -1.03554
 Alpha  occ. eigenvalues --   -1.03430  -0.95979  -0.95903  -0.87015  -0.86920
 Alpha  occ. eigenvalues --   -0.79715  -0.79458  -0.78275  -0.78080  -0.65040
 Alpha  occ. eigenvalues --   -0.64997  -0.60953  -0.60863  -0.59376  -0.59272
 Alpha  occ. eigenvalues --   -0.57726  -0.57388  -0.55283  -0.55177  -0.52828
 Alpha  occ. eigenvalues --   -0.52643  -0.52401  -0.52172  -0.49972  -0.49859
 Alpha  occ. eigenvalues --   -0.47997  -0.47746  -0.46694  -0.46523  -0.45859
 Alpha  occ. eigenvalues --   -0.45709  -0.45638  -0.45405  -0.43774  -0.43595
 Alpha virt. eigenvalues --    0.21725   0.23051   0.23638   0.24423   0.25924
 Alpha virt. eigenvalues --    0.26274   0.26581   0.27560   0.27889   0.29803
 Alpha virt. eigenvalues --    0.30341   0.31433   0.31667   0.31849   0.32433

 Mulliken charges:
               1
     1  C   -0.298145
     2  C   -0.299599
     3  C   -0.475658
     4  H    0.149478
     5  H    0.149352
     6  H    0.151782
     7  H    0.151942
     8  H    0.155121
     9  H    0.155087
    10  H    0.160119
    11  C   -0.298473
    12  C   -0.300180
    13  C   -0.482014
    14  H    0.149191
    15  H    0.149695
    16  H    0.151152
    17  H    0.150737
    18  H    0.162309
    19  H    0.152578
    20  H    0.163756
    21  C   -0.301213
    22  C   -0.299196
    23  C   -0.478385
    24  H    0.155482
    25  H    0.150767
    26  H    0.151681
    27  H    0.151577
    28  H    0.155731
    29  H    0.156040
    30  H    0.160650
    31  C   -0.297896
    32  C   -0.300174
    33  C   -0.475543
    34  H    0.149084
    35  H    0.148989
    36  H    0.152483
    37  H    0.151168
    38  H    0.155121
    39  H    0.155234
    40  H    0.160168
 Sum of Mulliken charges =  -0.00000

 Dipole moment (field-independent basis, Debye):
    X=             -0.0418    Y=              0.0229    Z=              0.0132  Tot=              0.0495
 Quadrupole moment (field-independent basis, Debye-Ang):
   XX=            -87.0120   YY=            -84.2774   ZZ=            -83.7820
   XY=             -0.6109   XZ=              0.4204   YZ=             -0.3494

 Normal termination of Gaussian 16 at Thu May  6 03:59:17 2021.
