 Gaussian 16, Revision A.03,
 Gaussian 16:  EM64L-G16RevA.03 25-Dec-2016

 -------------
 #p 6-31g* mp2
 -------------

 ------------------------------------------------------
 Input file generated by CHIRIPA (05-May-2021 14:57:26)
 ------------------------------------------------------
 Symbolic Z-matrix:
 Charge =  0 Multiplicity = 1

                         Standard orientation:
 ---------------------------------------------------------------------
 Center     Atomic      Atomic             Coordinates (Angstroms)
 Number     Number       Type             X           Y           Z
 ---------------------------------------------------------------------
      1          6           0        5.574254    1.299061   -0.370250
      2          6           0        5.207733    0.240748   -1.208198
      3          6           0        4.068901   -0.521775   -0.932214
      4          6           0        3.316198   -0.196833    0.195235
      5          6           0        3.655392    0.851457    1.049240
      6          6           0        4.798281    1.600506    0.753813
      7          1           0        6.460502    1.886173   -0.592193
      8          1           0        5.808476    0.004366   -2.081856
      9          1           0        3.762229   -1.346496   -1.564040
     10          1           0        3.036644    1.063116    1.912820
     11          1           0        5.080523    2.421839    1.406345
     12          7           0        2.108419   -0.996950    0.497699
     13          8           0        1.462086   -0.690432    1.497167
     14          8           0        1.830965   -1.915449   -0.270426
     15          6           0       -5.770675    1.181895    0.031993
     16          6           0       -5.648188   -0.190387    0.273574
     17          6           0       -4.403479   -0.819789    0.178172
     18          6           0       -3.297208   -0.043016   -0.162534
     19          6           0       -3.386999    1.326069   -0.409175
     20          6           0       -4.641680    1.934417   -0.308011
     21          1           0       -6.741470    1.662652    0.108341
     22          1           0       -6.523262   -0.777303    0.537805
     23          1           0       -4.280198   -1.880533    0.359947
     24          1           0       -2.496578    1.884807   -0.670673
     25          1           0       -4.733824    3.000319   -0.496176
     26          7           0       -1.974211   -0.698192   -0.266581
     27          8           0       -1.014870    0.008375   -0.568349
     28          8           0       -1.921641   -1.905878   -0.044395
 ---------------------------------------------------------------------

 SCF Done:  E(RHF) =  -868.335205641     A.U. after   16 cycles
 E2 =    -0.2601422604D+01 EUMP2 =    -0.87093662824508D+03

 The electronic state is 1-A.
 Alpha  occ. eigenvalues --  -20.59558 -20.59535 -20.59108 -20.59063 -15.84630
 Alpha  occ. eigenvalues --  -15.84173 -11.30406 -11.30086 -11.27040 -11.27005
 Alpha  occ. eigenvalues --  -11.26849 -11.26736 -11.26708 -11.26585 -11.26147
 Alpha  occ. eigenvalues --  -11.26121 -11.25885 -11.25863  -1.58584  -1.58108
 Alpha  occ. eigenvalues --   -1.38147  -1.37678  -1.18614  -1.18310  -1.07930
 Alpha  occ. eigenvalues --   -1.07600  -1.04083  -1.03804  -0.94701  -0.94345
 Alpha  occ. eigenvalues --   -0.85462  -0.85177  -0.81545  -0.81202  -0.76512
 Alpha  occ. eigenvalues --   -0.76139  -0.70914  -0.70429  -0.69942  -0.69727
 Alpha  occ. eigenvalues --   -0.69430  -0.69346  -0.64264  -0.64094  -0.63960
 Alpha  occ. eigenvalues --   -0.63822  -0.61430  -0.61152  -0.54576  -0.54298
 Alpha  occ. eigenvalues --   -0.52385  -0.52187  -0.52095  -0.51913  -0.47806
 Alpha  occ. eigenvalues --   -0.47539  -0.47108  -0.46923  -0.43563  -0.42872
 Alpha  occ. eigenvalues --   -0.36616  -0.36315  -0.35705  -0.35434
 Alpha virt. eigenvalues --    0.06035   0.06444   0.11944   0.12215   0.17460
 Alpha virt. eigenvalues --    0.17831   0.22006   0.22242   0.27883   0.28108
 Alpha virt. eigenvalues --    0.28933   0.29184   0.31518   0.31741   0.33188

 Mulliken charges:
               1
     1  C   -0.172938
     2  C   -0.218714
     3  C   -0.170996
     4  C    0.162909
     5  C   -0.171513
     6  C   -0.218788
     7  H    0.221148
     8  H    0.219860
     9  H    0.275524
    10  H    0.273248
    11  H    0.218980
    12  N    0.494644
    13  O   -0.462331
    14  O   -0.451651
    15  C   -0.172270
    16  C   -0.218509
    17  C   -0.171166
    18  C    0.160596
    19  C   -0.171299
    20  C   -0.218518
    21  H    0.222562
    22  H    0.221269
    23  H    0.276162
    24  H    0.273089
    25  H    0.220078
    26  N    0.490622
    27  O   -0.462214
    28  O   -0.449784
 Sum of Mulliken charges =  -0.00000

 Dipole moment (field-independent basis, Debye):
    X=             -0.5388    Y=              4.7922    Z=             -0.7038  Tot=              4.8735
 Quadrupole moment (field-independent basis, Debye-Ang):
   XX=            -49.1638   YY=           -101.4312   ZZ=           -103.1575
   XY=              2.6867   XZ=             -4.8047   YZ=              1.8327

 Normal termination of Gaussian 16 at Fri May  7 05:05:30 2021.
