 Gaussian 16, Revision A.03,
 Gaussian 16:  EM64L-G16RevA.03 25-Dec-2016

 -------------
 #p 6-31g* mp2
 -------------

 ------------------------------------------------------
 Input file generated by CHIRIPA (05-May-2021 14:57:22)
 ------------------------------------------------------
 Symbolic Z-matrix:
 Charge =  0 Multiplicity = 1

                         Standard orientation:
 ---------------------------------------------------------------------
 Center     Atomic      Atomic             Coordinates (Angstroms)
 Number     Number       Type             X           Y           Z
 ---------------------------------------------------------------------
      1          6           0       -2.567347    2.789745   -0.247886
      2          6           0       -1.597025    1.921689   -0.759234
      3          6           0       -1.795674    0.538138   -0.729678
      4          6           0       -2.981610    0.054798   -0.179016
      5          6           0       -3.967226    0.893959    0.338344
      6          6           0       -3.747270    2.274018    0.298308
      7          1           0       -2.404755    3.863164   -0.274916
      8          1           0       -0.679724    2.319389   -1.184014
      9          1           0       -1.061126   -0.156562   -1.118584
     10          1           0       -4.871552    0.467796    0.755475
     11          1           0       -4.502579    2.945784    0.696158
     12          7           0       -3.203189   -1.408057   -0.142179
     13          8           0       -4.256515   -1.808792    0.348283
     14          8           0       -2.319342   -2.126208   -0.604466
     15          6           0        1.217007   -2.099361    0.541674
     16          6           0        2.120556   -2.196086   -0.521700
     17          6           0        3.082265   -1.202729   -0.728836
     18          6           0        3.112156   -0.121542    0.150614
     19          6           0        2.225636    0.003258    1.219163
     20          6           0        1.272334   -1.001933    1.407186
     21          1           0        0.473194   -2.875622    0.695159
     22          1           0        2.079923   -3.047234   -1.195451
     23          1           0        3.793858   -1.252523   -1.544050
     24          1           0        2.290732    0.863623    1.874109
     25          1           0        0.571893   -0.924186    2.233856
     26          7           0        4.125824    0.936345   -0.058555
     27          8           0        4.131399    1.878826    0.730327
     28          8           0        4.895570    0.803004   -1.007422
 ---------------------------------------------------------------------

 SCF Done:  E(RHF) =  -868.340365899     A.U. after   16 cycles
 E2 =    -0.2599906124D+01 EUMP2 =    -0.87094027202220D+03

 The electronic state is 1-A.
 Alpha  occ. eigenvalues --  -20.61547 -20.61491 -20.60932 -20.60920 -15.86554
 Alpha  occ. eigenvalues --  -15.85980 -11.31645 -11.31216 -11.28197 -11.28142
 Alpha  occ. eigenvalues --  -11.27858 -11.27800 -11.27769 -11.27289 -11.27138
 Alpha  occ. eigenvalues --  -11.27082 -11.26691 -11.26649  -1.60594  -1.60013
 Alpha  occ. eigenvalues --   -1.40155  -1.39568  -1.19797  -1.19375  -1.09238
 Alpha  occ. eigenvalues --   -1.08741  -1.05146  -1.04751  -0.96117  -0.95593
 Alpha  occ. eigenvalues --   -0.86555  -0.86119  -0.82957  -0.82431  -0.78036
 Alpha  occ. eigenvalues --   -0.77545  -0.72790  -0.72190  -0.71919  -0.71348
 Alpha  occ. eigenvalues --   -0.70881  -0.70310  -0.65441  -0.65130  -0.64983
 Alpha  occ. eigenvalues --   -0.64700  -0.62490  -0.62093  -0.55647  -0.55065
 Alpha  occ. eigenvalues --   -0.53546  -0.53300  -0.52981  -0.52797  -0.49544
 Alpha  occ. eigenvalues --   -0.49507  -0.48959  -0.48936  -0.45617  -0.45002
 Alpha  occ. eigenvalues --   -0.37780  -0.37294  -0.36832  -0.36266
 Alpha virt. eigenvalues --    0.04434   0.04995   0.10698   0.11479   0.15905
 Alpha virt. eigenvalues --    0.16600   0.21119   0.21722   0.27021   0.27438
 Alpha virt. eigenvalues --    0.27928   0.28741   0.30732   0.31410   0.32097

 Mulliken charges:
               1
     1  C   -0.170258
     2  C   -0.220628
     3  C   -0.171537
     4  C    0.154011
     5  C   -0.171426
     6  C   -0.219228
     7  H    0.228979
     8  H    0.228755
     9  H    0.277755
    10  H    0.275544
    11  H    0.224931
    12  N    0.488296
    13  O   -0.457521
    14  O   -0.468914
    15  C   -0.169138
    16  C   -0.223034
    17  C   -0.173397
    18  C    0.154501
    19  C   -0.174575
    20  C   -0.223545
    21  H    0.244009
    22  H    0.227899
    23  H    0.275188
    24  H    0.273607
    25  H    0.225078
    26  N    0.487824
    27  O   -0.462695
    28  O   -0.460481
 Sum of Mulliken charges =  -0.00000

 Dipole moment (field-independent basis, Debye):
    X=             -2.9461    Y=              1.3462    Z=              0.6112  Tot=              3.2962
 Quadrupole moment (field-independent basis, Debye-Ang):
   XX=           -128.4357   YY=           -102.2980   ZZ=           -101.4024
   XY=            -28.9653   XZ=             -1.9254   YZ=              0.8404

 Normal termination of Gaussian 16 at Wed May  5 19:22:18 2021.
