 Gaussian 16, Revision A.03,
 Gaussian 16:  EM64L-G16RevA.03 25-Dec-2016

 -------------
 #p 6-31g* mp2
 -------------

 ------------------------------------------------------
 Input file generated by CHIRIPA (05-May-2021 14:51:11)
 ------------------------------------------------------
 Symbolic Z-matrix:
 Charge =  0 Multiplicity = 1

                         Standard orientation:
 ---------------------------------------------------------------------
 Center     Atomic      Atomic             Coordinates (Angstroms)
 Number     Number       Type             X           Y           Z
 ---------------------------------------------------------------------
      1          6           0       -4.182750    0.643360   -0.274001
      2          6           0       -3.830852    1.962523    0.414446
      3          6           0       -4.782344    3.098390    0.037270
      4          1           0       -4.167774    0.789876   -1.362695
      5          1           0       -5.212099    0.363433   -0.010418
      6          1           0       -2.801995    2.239173    0.150750
      7          1           0       -3.846480    1.812802    1.501624
      8          1           0       -5.811026    2.847746    0.315823
      9          1           0       -4.760607    3.276539   -1.042726
     10          1           0       -4.512460    4.032019    0.540619
     11          6           0       -3.240559   -0.501744    0.093068
     12          6           0       -3.592458   -1.820908   -0.595380
     13          6           0       -2.640965   -2.956775   -0.218203
     14          1           0       -2.211210   -0.221817   -0.170516
     15          1           0       -3.255535   -0.648261    1.181762
     16          1           0       -3.576830   -1.671186   -1.682557
     17          1           0       -4.621314   -2.097557   -0.331683
     18          1           0       -2.662703   -3.134924    0.861793
     19          1           0       -1.612284   -2.706130   -0.496756
     20          1           0       -2.910849   -3.890403   -0.721553
     21          6           0        4.435699    0.052181    0.300385
     22          6           0        5.202690    0.954142   -0.667178
     23          6           0        6.649695    1.190860   -0.233663
     24          1           0        4.450775    0.503075    1.302089
     25          1           0        4.956864   -0.911596    0.383555
     26          1           0        4.679477    1.915431   -0.749563
     27          1           0        5.185623    0.501143   -1.666737
     28          1           0        7.192753    0.242389   -0.169688
     29          1           0        6.683731    1.664712    0.752696
     30          1           0        7.179467    1.838181   -0.939481
     31          6           0        2.987610   -0.193796   -0.119452
     32          6           0        2.220619   -1.095757    0.848111
     33          6           0        0.773614   -1.332475    0.414597
     34          1           0        2.466446    0.769980   -0.202622
     35          1           0        2.972534   -0.644690   -1.121156
     36          1           0        2.237687   -0.642759    1.847670
     37          1           0        2.743832   -2.057046    0.930496
     38          1           0        0.739578   -1.806328   -0.571763
     39          1           0        0.230557   -0.384004    0.350622
     40          1           0        0.243842   -1.979797    1.120414
 ---------------------------------------------------------------------

 SCF Done:  E(RHF) =  -470.732334212     A.U. after   11 cycles
 E2 =    -0.1583492696D+01 EUMP2 =    -0.47231582690781D+03

 The electronic state is 1-A.
 Alpha  occ. eigenvalues --  -11.21615 -11.21602 -11.21579 -11.21497 -11.21422
 Alpha  occ. eigenvalues --  -11.21362 -11.21330 -11.21247 -11.21081 -11.21077
 Alpha  occ. eigenvalues --  -11.21053 -11.20877  -1.08450  -1.08355  -1.03566
 Alpha  occ. eigenvalues --   -1.03440  -0.96026  -0.95884  -0.87067  -0.86890
 Alpha  occ. eigenvalues --   -0.79725  -0.79439  -0.78292  -0.78124  -0.65081
 Alpha  occ. eigenvalues --   -0.64991  -0.60969  -0.60854  -0.59440  -0.59216
 Alpha  occ. eigenvalues --   -0.57649  -0.57484  -0.55456  -0.55057  -0.52820
 Alpha  occ. eigenvalues --   -0.52599  -0.52452  -0.52218  -0.50110  -0.49656
 Alpha  occ. eigenvalues --   -0.48001  -0.47798  -0.46662  -0.46535  -0.45913
 Alpha  occ. eigenvalues --   -0.45732  -0.45686  -0.45446  -0.43751  -0.43694
 Alpha virt. eigenvalues --    0.22104   0.22980   0.23729   0.24632   0.25476
 Alpha virt. eigenvalues --    0.26472   0.26956   0.27465   0.27801   0.29450
 Alpha virt. eigenvalues --    0.30046   0.31204   0.31591   0.31942   0.32428

 Mulliken charges:
               1
     1  C   -0.297892
     2  C   -0.299399
     3  C   -0.475612
     4  H    0.149328
     5  H    0.149332
     6  H    0.150950
     7  H    0.151834
     8  H    0.155241
     9  H    0.155147
    10  H    0.160001
    11  C   -0.303445
    12  C   -0.299036
    13  C   -0.482595
    14  H    0.156213
    15  H    0.148821
    16  H    0.151075
    17  H    0.151162
    18  H    0.153304
    19  H    0.166599
    20  H    0.158692
    21  C   -0.298257
    22  C   -0.299631
    23  C   -0.475714
    24  H    0.149737
    25  H    0.149622
    26  H    0.151872
    27  H    0.151901
    28  H    0.155224
    29  H    0.155217
    30  H    0.160275
    31  C   -0.298577
    32  C   -0.300554
    33  C   -0.479818
    34  H    0.149228
    35  H    0.149528
    36  H    0.152072
    37  H    0.152069
    38  H    0.153953
    39  H    0.157800
    40  H    0.164332
 Sum of Mulliken charges =  -0.00000

 Dipole moment (field-independent basis, Debye):
    X=              0.0523    Y=             -0.0040    Z=              0.0087  Tot=              0.0532
 Quadrupole moment (field-independent basis, Debye-Ang):
   XX=            -86.1337   YY=            -85.0759   ZZ=            -83.9405
   XY=              0.0818   XZ=             -0.9406   YZ=              0.3482

 Normal termination of Gaussian 16 at Thu May  6 03:52:54 2021.
