 Gaussian 16, Revision A.03,
 Gaussian 16:  EM64L-G16RevA.03 25-Dec-2016

 -------------
 #p 6-31g* mp2
 -------------

 ------------------------------------------------------
 Input file generated by CHIRIPA (05-May-2021 14:53:11)
 ------------------------------------------------------
 Symbolic Z-matrix:
 Charge =  0 Multiplicity = 1

                         Standard orientation:
 ---------------------------------------------------------------------
 Center     Atomic      Atomic             Coordinates (Angstroms)
 Number     Number       Type             X           Y           Z
 ---------------------------------------------------------------------
      1          6           0       -3.757374    0.710032    0.133012
      2          6           0       -4.054817    1.816214   -0.879842
      3          6           0       -3.531107    3.181936   -0.434504
      4          1           0       -4.203713    0.977801    1.100497
      5          1           0       -2.672031    0.652657    0.294671
      6          1           0       -5.139172    1.870559   -1.040584
      7          1           0       -3.607882    1.545691   -1.845079
      8          1           0       -2.445979    3.150846   -0.292619
      9          1           0       -3.985969    3.477560    0.516447
     10          1           0       -3.754568    3.957966   -1.173219
     11          6           0       -4.274751   -0.661183   -0.298054
     12          6           0       -3.977308   -1.767365    0.714801
     13          6           0       -4.501018   -3.133086    0.269462
     14          1           0       -5.360094   -0.603808   -0.459713
     15          1           0       -3.828412   -0.928951   -1.265538
     16          1           0       -4.424243   -1.496841    1.680037
     17          1           0       -2.892953   -1.821710    0.875543
     18          1           0       -4.046156   -3.428711   -0.681489
     19          1           0       -5.586146   -3.101997    0.127577
     20          1           0       -4.277556   -3.909117    1.008178
     21          6           0        0.709557    0.402585    0.605743
     22          6           0        1.712319    1.033072    1.349704
     23          6           0        3.060894    0.806839    1.058652
     24          6           0        3.372278   -0.059847    0.012141
     25          6           0        2.396087   -0.702921   -0.747330
     26          6           0        1.054035   -0.461875   -0.438558
     27          1           0       -0.335515    0.584082    0.838722
     28          1           0        1.447737    1.704923    2.161281
     29          1           0        3.857392    1.281789    1.618503
     30          1           0        2.690853   -1.367390   -1.550456
     31          1           0        0.277393   -0.952897   -1.018014
     32          7           0        4.796502   -0.307191   -0.305362
     33          8           0        5.044644   -1.075187   -1.232316
     34          8           0        5.637698    0.271622    0.378744
 ---------------------------------------------------------------------

 SCF Done:  E(RHF) =  -669.535508864     A.U. after   15 cycles
 E2 =    -0.2091368895D+01 EUMP2 =    -0.67162687775928D+03

 The electronic state is 1-A.
 Alpha  occ. eigenvalues --  -20.60754 -20.60749 -15.85808 -11.31177 -11.27749
 Alpha  occ. eigenvalues --  -11.27743 -11.27469 -11.26767 -11.26752 -11.22586
 Alpha  occ. eigenvalues --  -11.22529 -11.22513 -11.22350 -11.21941 -11.21812
 Alpha  occ. eigenvalues --   -1.59830  -1.39383  -1.19350  -1.09437  -1.08743
 Alpha  occ. eigenvalues --   -1.04754  -1.04432  -0.96884  -0.95579  -0.87892
 Alpha  occ. eigenvalues --   -0.86151  -0.82415  -0.80497  -0.79273  -0.77458
 Alpha  occ. eigenvalues --   -0.72026  -0.71153  -0.70480  -0.66080  -0.65001
 Alpha  occ. eigenvalues --   -0.64753  -0.62103  -0.61829  -0.60245  -0.58497
 Alpha  occ. eigenvalues --   -0.56205  -0.55261  -0.53528  -0.53295  -0.53082
 Alpha  occ. eigenvalues --   -0.52846  -0.50825  -0.48816  -0.48781  -0.48777
 Alpha  occ. eigenvalues --   -0.47541  -0.46785  -0.46726  -0.44788  -0.44719
 Alpha  occ. eigenvalues --   -0.37328  -0.36360
 Alpha virt. eigenvalues --    0.05072   0.11288   0.16537   0.18453   0.22795
 Alpha virt. eigenvalues --    0.23346   0.24709   0.26112   0.26860   0.27619
 Alpha virt. eigenvalues --    0.30048   0.30346   0.31009   0.31217   0.31572

 Mulliken charges:
               1
     1  C   -0.303777
     2  C   -0.299827
     3  C   -0.476218
     4  H    0.153270
     5  H    0.140544
     6  H    0.156162
     7  H    0.153022
     8  H    0.151375
     9  H    0.156547
    10  H    0.164783
    11  C   -0.298624
    12  C   -0.299865
    13  C   -0.476054
    14  H    0.154289
    15  H    0.148775
    16  H    0.154437
    17  H    0.145988
    18  H    0.155239
    19  H    0.157802
    20  H    0.163127
    21  C   -0.178595
    22  C   -0.220367
    23  C   -0.170595
    24  C    0.158317
    25  C   -0.170776
    26  C   -0.221911
    27  H    0.237552
    28  H    0.224382
    29  H    0.275574
    30  H    0.275580
    31  H    0.222733
    32  N    0.487991
    33  O   -0.460493
    34  O   -0.460386
 Sum of Mulliken charges =  -0.00000

 Dipole moment (field-independent basis, Debye):
    X=             -5.2706    Y=              0.8799    Z=              1.0997  Tot=              5.4555
 Quadrupole moment (field-independent basis, Debye-Ang):
   XX=           -126.9284   YY=            -94.1570   ZZ=            -92.1416
   XY=              3.7165   XZ=              4.5101   YZ=              2.4440

 Normal termination of Gaussian 16 at Thu May  6 00:52:47 2021.
