 Gaussian 16, Revision A.03,
 Gaussian 16:  EM64L-G16RevA.03 25-Dec-2016

 -------------
 #p 6-31g* mp2
 -------------

 ------------------------------------------------------
 Input file generated by CHIRIPA (05-May-2021 14:53:16)
 ------------------------------------------------------
 Symbolic Z-matrix:
 Charge =  0 Multiplicity = 1

                         Standard orientation:
 ---------------------------------------------------------------------
 Center     Atomic      Atomic             Coordinates (Angstroms)
 Number     Number       Type             X           Y           Z
 ---------------------------------------------------------------------
      1          6           0       -4.863954   -0.483740    0.471256
      2          6           0       -3.510862    0.207792    0.641288
      3          6           0       -2.482677   -0.671941    1.353115
      4          1           0       -5.247716   -0.772517    1.459325
      5          1           0       -4.723240   -1.415482   -0.093944
      6          1           0       -3.654293    1.138648    1.204805
      7          1           0       -3.130367    0.495128   -0.347285
      8          1           0       -2.310291   -1.595201    0.790553
      9          1           0       -2.837194   -0.948025    2.351462
     10          1           0       -1.522763   -0.158020    1.464066
     11          6           0       -5.902361    0.383112   -0.238679
     12          6           0       -7.255453   -0.308420   -0.408712
     13          6           0       -8.283638    0.571313   -1.120538
     14          1           0       -6.043075    1.314854    0.326521
     15          1           0       -5.518599    0.671889   -1.226748
     16          1           0       -7.635948   -0.595756    0.579862
     17          1           0       -7.112022   -1.239276   -0.972228
     18          1           0       -7.929121    0.847397   -2.118885
     19          1           0       -8.456024    1.494573   -0.557976
     20          1           0       -9.243552    0.057392   -1.231489
     21          6           0        1.708114   -0.005477    0.264849
     22          6           0        2.419041    1.186159    0.441224
     23          6           0        3.803034    1.222658    0.246861
     24          6           0        4.447038    0.043638   -0.125238
     25          6           0        3.766619   -1.159133   -0.308709
     26          6           0        2.382982   -1.172262   -0.108895
     27          1           0        0.633133   -0.024753    0.417952
     28          1           0        1.897555    2.093829    0.731454
     29          1           0        4.378024    2.131494    0.376572
     30          1           0        4.314123   -2.047840   -0.598288
     31          1           0        1.833446   -2.099137   -0.246586
     32          7           0        5.912022    0.069907   -0.333886
     33          8           0        6.456036   -0.982407   -0.661483
     34          8           0        6.488522    1.142314   -0.165876
 ---------------------------------------------------------------------

 SCF Done:  E(RHF) =  -669.535545072     A.U. after   15 cycles
 E2 =    -0.2090622170D+01 EUMP2 =    -0.67162616724237D+03

 The electronic state is 1-A.
 Alpha  occ. eigenvalues --  -20.60725 -20.60719 -15.85778 -11.31135 -11.27707
 Alpha  occ. eigenvalues --  -11.27703 -11.27411 -11.26716 -11.26705 -11.22591
 Alpha  occ. eigenvalues --  -11.22341 -11.22157 -11.22114 -11.21990 -11.21500
 Alpha  occ. eigenvalues --   -1.59801  -1.39354  -1.19307  -1.09170  -1.08700
 Alpha  occ. eigenvalues --   -1.04711  -1.04310  -0.96775  -0.95537  -0.87794
 Alpha  occ. eigenvalues --   -0.86106  -0.82373  -0.80379  -0.78937  -0.77422
 Alpha  occ. eigenvalues --   -0.71996  -0.71124  -0.70431  -0.65793  -0.64957
 Alpha  occ. eigenvalues --   -0.64717  -0.62060  -0.61696  -0.60222  -0.58380
 Alpha  occ. eigenvalues --   -0.56052  -0.55243  -0.53444  -0.53173  -0.53036
 Alpha  occ. eigenvalues --   -0.52801  -0.50696  -0.48761  -0.48752  -0.48684
 Alpha  occ. eigenvalues --   -0.47394  -0.46489  -0.46384  -0.44762  -0.44553
 Alpha  occ. eigenvalues --   -0.37281  -0.36318
 Alpha virt. eigenvalues --    0.05111   0.11337   0.16587   0.19769   0.22413
 Alpha virt. eigenvalues --    0.23708   0.25932   0.26106   0.26754   0.27336
 Alpha virt. eigenvalues --    0.28788   0.30272   0.30724   0.31387   0.32481

 Mulliken charges:
               1
     1  C   -0.298988
     2  C   -0.300275
     3  C   -0.481062
     4  H    0.151667
     5  H    0.150393
     6  H    0.154250
     7  H    0.151426
     8  H    0.155322
     9  H    0.162191
    10  H    0.152331
    11  C   -0.298884
    12  C   -0.300200
    13  C   -0.476097
    14  H    0.150476
    15  H    0.150238
    16  H    0.152800
    17  H    0.152528
    18  H    0.155715
    19  H    0.155787
    20  H    0.161792
    21  C   -0.177632
    22  C   -0.221149
    23  C   -0.170760
    24  C    0.158263
    25  C   -0.170764
    26  C   -0.221241
    27  H    0.237109
    28  H    0.223285
    29  H    0.275403
    30  H    0.275382
    31  H    0.223849
    32  N    0.488012
    33  O   -0.460575
    34  O   -0.460592
 Sum of Mulliken charges =  -0.00000

 Dipole moment (field-independent basis, Debye):
    X=             -5.4354    Y=             -0.1089    Z=              0.7481  Tot=              5.4878
 Quadrupole moment (field-independent basis, Debye-Ang):
   XX=           -140.9830   YY=            -90.1501   ZZ=            -94.8994
   XY=             -0.2057   XZ=              3.1530   YZ=              1.9204

 Normal termination of Gaussian 16 at Thu May  6 05:54:55 2021.
