 Gaussian 16, Revision A.03,
 Gaussian 16:  EM64L-G16RevA.03 25-Dec-2016

 -------------
 #p 6-31g* mp2
 -------------

 ------------------------------------------------------
 Input file generated by CHIRIPA (05-May-2021 14:51:12)
 ------------------------------------------------------
 Symbolic Z-matrix:
 Charge =  0 Multiplicity = 1

                         Standard orientation:
 ---------------------------------------------------------------------
 Center     Atomic      Atomic             Coordinates (Angstroms)
 Number     Number       Type             X           Y           Z
 ---------------------------------------------------------------------
      1          6           0       -3.050549   -0.954047   -0.270270
      2          6           0       -1.667645   -0.610232    0.284123
      3          6           0       -0.565295   -1.508143   -0.278348
      4          1           0       -3.279177   -2.004191   -0.042515
      5          1           0       -3.030320   -0.869012   -1.365603
      6          1           0       -1.690852   -0.694547    1.378184
      7          1           0       -1.442364    0.439270    0.055190
      8          1           0       -0.513141   -1.417433   -1.368143
      9          1           0       -0.763041   -2.557692   -0.037632
     10          1           0        0.414914   -1.244985    0.131285
     11          6           0       -4.163065   -0.065051    0.282652
     12          6           0       -5.545969   -0.408866   -0.271741
     13          6           0       -6.648319    0.489045    0.290730
     14          1           0       -4.183295   -0.150086    1.377985
     15          1           0       -3.934438    0.985093    0.054898
     16          1           0       -5.771251   -1.458368   -0.042808
     17          1           0       -5.522763   -0.324551   -1.365802
     18          1           0       -6.450573    1.538594    0.050014
     19          1           0       -6.700473    0.398335    1.380525
     20          1           0       -7.628528    0.225888   -0.118903
     21          6           0        3.793959   -0.215524   -0.156774
     22          6           0        5.175315   -0.606975    0.369159
     23          6           0        5.535427   -2.060465    0.060159
     24          1           0        3.039194   -0.882866    0.281322
     25          1           0        3.762994   -0.378972   -1.242923
     26          1           0        5.204114   -0.441531    1.453786
     27          1           0        5.926859    0.061499   -0.070091
     28          1           0        5.534459   -2.236222   -1.020447
     29          1           0        4.807607   -2.742109    0.512088
     30          1           0        6.526842   -2.318974    0.445034
     31          6           0        3.419655    1.234622    0.144391
     32          6           0        2.038299    1.626073   -0.381541
     33          6           0        1.678187    3.079563   -0.072541
     34          1           0        3.450620    1.398069    1.230541
     35          1           0        4.174422    1.901964   -0.293705
     36          1           0        1.286755    0.957599    0.057709
     37          1           0        2.009500    1.460628   -1.466168
     38          1           0        2.406008    3.761207   -0.524470
     39          1           0        1.679156    3.255320    1.008066
     40          1           0        0.686772    3.338072   -0.457416
 ---------------------------------------------------------------------

 SCF Done:  E(RHF) =  -470.732822122     A.U. after   11 cycles
 E2 =    -0.1583414563D+01 EUMP2 =    -0.47231623668433D+03

 The electronic state is 1-A.
 Alpha  occ. eigenvalues --  -11.21614 -11.21606 -11.21596 -11.21542 -11.21414
 Alpha  occ. eigenvalues --  -11.21399 -11.21354 -11.21338 -11.21074 -11.21062
 Alpha  occ. eigenvalues --  -11.21058 -11.21040  -1.08453  -1.08409  -1.03565
 Alpha  occ. eigenvalues --   -1.03489  -0.95987  -0.95968  -0.87015  -0.86971
 Alpha  occ. eigenvalues --   -0.79600  -0.79582  -0.78264  -0.78228  -0.65120
 Alpha  occ. eigenvalues --   -0.65028  -0.61030  -0.60850  -0.59473  -0.59223
 Alpha  occ. eigenvalues --   -0.57622  -0.57559  -0.55290  -0.55234  -0.52783
 Alpha  occ. eigenvalues --   -0.52592  -0.52436  -0.52371  -0.49924  -0.49905
 Alpha  occ. eigenvalues --   -0.47949  -0.47869  -0.46685  -0.46554  -0.45800
 Alpha  occ. eigenvalues --   -0.45762  -0.45734  -0.45626  -0.43790  -0.43723
 Alpha virt. eigenvalues --    0.21189   0.23011   0.23649   0.24329   0.25854
 Alpha virt. eigenvalues --    0.26452   0.26861   0.27227   0.28132   0.29001
 Alpha virt. eigenvalues --    0.30911   0.31160   0.31721   0.31874   0.32345

 Mulliken charges:
               1
     1  C   -0.298296
     2  C   -0.302207
     3  C   -0.481337
     4  H    0.149773
     5  H    0.149699
     6  H    0.151469
     7  H    0.153916
     8  H    0.155949
     9  H    0.155115
    10  H    0.165177
    11  C   -0.298269
    12  C   -0.299664
    13  C   -0.475711
    14  H    0.149488
    15  H    0.149665
    16  H    0.151953
    17  H    0.151957
    18  H    0.155208
    19  H    0.155177
    20  H    0.160275
    21  C   -0.302098
    22  C   -0.299491
    23  C   -0.475711
    24  H    0.152687
    25  H    0.149913
    26  H    0.151808
    27  H    0.152063
    28  H    0.155294
    29  H    0.155333
    30  H    0.160182
    31  C   -0.298118
    32  C   -0.307717
    33  C   -0.475308
    34  H    0.149097
    35  H    0.149610
    36  H    0.161840
    37  H    0.151531
    38  H    0.155067
    39  H    0.155131
    40  H    0.159550
 Sum of Mulliken charges =  -0.00000

 Dipole moment (field-independent basis, Debye):
    X=             -0.0028    Y=             -0.0109    Z=             -0.0066  Tot=              0.0130
 Quadrupole moment (field-independent basis, Debye-Ang):
   XX=            -85.6076   YY=            -85.7201   ZZ=            -83.5094
   XY=              1.1071   XZ=             -0.1505   YZ=             -1.1045

 Normal termination of Gaussian 16 at Thu May  6 00:45:03 2021.
