 Gaussian 16, Revision A.03,
 Gaussian 16:  EM64L-G16RevA.03 25-Dec-2016

 -------------
 #p 6-31g* mp2
 -------------

 ------------------------------------------------------
 Input file generated by CHIRIPA (05-May-2021 14:51:12)
 ------------------------------------------------------
 Symbolic Z-matrix:
 Charge =  0 Multiplicity = 1

                         Standard orientation:
 ---------------------------------------------------------------------
 Center     Atomic      Atomic             Coordinates (Angstroms)
 Number     Number       Type             X           Y           Z
 ---------------------------------------------------------------------
      1          6           0       -2.854433   -0.643841   -0.597030
      2          6           0       -1.559795   -1.285471   -1.097238
      3          6           0       -1.774099   -2.693958   -1.652244
      4          1           0       -3.296227   -1.282433    0.180121
      5          1           0       -3.579891   -0.607611   -1.421526
      6          1           0       -0.836513   -1.319220   -0.272410
      7          1           0       -1.120932   -0.645181   -1.873153
      8          1           0       -2.475842   -2.674342   -2.492347
      9          1           0       -2.189807   -3.352210   -0.882509
     10          1           0       -0.835760   -3.133853   -2.004198
     11          6           0       -2.656438    0.764473   -0.039198
     12          6           0       -3.951076    1.406103    0.461009
     13          6           0       -3.736772    2.814590    1.016016
     14          1           0       -1.930980    0.728244    0.785297
     15          1           0       -2.214644    1.403065   -0.816349
     16          1           0       -4.389939    0.765813    1.236924
     17          1           0       -4.674358    1.439852   -0.363818
     18          1           0       -3.321064    3.472843    0.246281
     19          1           0       -3.035029    2.794974    1.856119
     20          1           0       -4.675111    3.254486    1.367970
     21          6           0        2.124384   -0.477015    0.425667
     22          6           0        2.317130   -1.624295    1.417929
     23          6           0        1.045844   -2.448769    1.622545
     24          1           0        1.315763    0.175675    0.782141
     25          1           0        1.793048   -0.887077   -0.538419
     26          1           0        2.649336   -1.212314    2.379453
     27          1           0        3.125515   -2.274223    1.059148
     28          1           0        0.714249   -2.886899    0.675609
     29          1           0        0.235364   -1.818957    2.003415
     30          1           0        1.206122   -3.263460    2.335600
     31          6           0        3.386488    0.356383    0.210562
     32          6           0        3.193741    1.503662   -0.781700
     33          6           0        4.465028    2.328136   -0.986316
     34          1           0        3.717822    0.766446    1.174647
     35          1           0        4.195108   -0.296306   -0.145913
     36          1           0        2.385356    2.153590   -0.422920
     37          1           0        2.861536    1.091682   -1.743224
     38          1           0        5.275507    1.698325   -1.367186
     39          1           0        4.796622    2.766266   -0.039380
     40          1           0        4.304749    3.142828   -1.699371
 ---------------------------------------------------------------------

 SCF Done:  E(RHF) =  -470.732221439     A.U. after   11 cycles
 E2 =    -0.1584497754D+01 EUMP2 =    -0.47231671919280D+03

 The electronic state is 1-A.
 Alpha  occ. eigenvalues --  -11.21643 -11.21596 -11.21584 -11.21404 -11.21385
 Alpha  occ. eigenvalues --  -11.21359 -11.21344 -11.21278 -11.21128 -11.21069
 Alpha  occ. eigenvalues --  -11.21068 -11.21021  -1.08468  -1.08353  -1.03594
 Alpha  occ. eigenvalues --   -1.03443  -0.96022  -0.95929  -0.87031  -0.86952
 Alpha  occ. eigenvalues --   -0.79744  -0.79461  -0.78415  -0.78005  -0.65079
 Alpha  occ. eigenvalues --   -0.65017  -0.61017  -0.60872  -0.59467  -0.59212
 Alpha  occ. eigenvalues --   -0.57672  -0.57493  -0.55346  -0.55179  -0.52706
 Alpha  occ. eigenvalues --   -0.52630  -0.52446  -0.52359  -0.49964  -0.49869
 Alpha  occ. eigenvalues --   -0.48221  -0.47724  -0.46664  -0.46566  -0.46126
 Alpha  occ. eigenvalues --   -0.45739  -0.45648  -0.45096  -0.43803  -0.43723
 Alpha virt. eigenvalues --    0.20974   0.23054   0.23240   0.24168   0.25542
 Alpha virt. eigenvalues --    0.26336   0.26820   0.27953   0.28298   0.29849
 Alpha virt. eigenvalues --    0.31114   0.31167   0.31638   0.31840   0.32227

 Mulliken charges:
               1
     1  C   -0.297703
     2  C   -0.311057
     3  C   -0.476247
     4  H    0.149101
     5  H    0.148861
     6  H    0.168153
     7  H    0.150424
     8  H    0.155060
     9  H    0.155385
    10  H    0.158309
    11  C   -0.298831
    12  C   -0.299591
    13  C   -0.475636
    14  H    0.148682
    15  H    0.149892
    16  H    0.151870
    17  H    0.152114
    18  H    0.155163
    19  H    0.154715
    20  H    0.160251
    21  C   -0.302312
    22  C   -0.298768
    23  C   -0.481620
    24  H    0.150689
    25  H    0.152856
    26  H    0.151882
    27  H    0.152072
    28  H    0.160234
    29  H    0.154541
    30  H    0.161343
    31  C   -0.298143
    32  C   -0.299624
    33  C   -0.475715
    34  H    0.149376
    35  H    0.149532
    36  H    0.152341
    37  H    0.151876
    38  H    0.155110
    39  H    0.155179
    40  H    0.160237
 Sum of Mulliken charges =  -0.00000

 Dipole moment (field-independent basis, Debye):
    X=              0.0421    Y=             -0.0131    Z=              0.0191  Tot=              0.0480
 Quadrupole moment (field-independent basis, Debye-Ang):
   XX=            -85.4992   YY=            -85.7995   ZZ=            -83.6634
   XY=             -0.8565   XZ=              0.1050   YZ=             -0.2274

 Normal termination of Gaussian 16 at Wed May  5 18:20:29 2021.
