 Gaussian 16, Revision A.03,
 Gaussian 16:  EM64L-G16RevA.03 25-Dec-2016

 -------------
 #p 6-31g* mp2
 -------------

 ------------------------------------------------------
 Input file generated by CHIRIPA (05-May-2021 14:55:22)
 ------------------------------------------------------
 Symbolic Z-matrix:
 Charge =  0 Multiplicity = 1

                         Standard orientation:
 ---------------------------------------------------------------------
 Center     Atomic      Atomic             Coordinates (Angstroms)
 Number     Number       Type             X           Y           Z
 ---------------------------------------------------------------------
      1          6           0        0.394779   -1.537405    0.441195
      2          6           0        1.374755   -1.520763    1.439139
      3          6           0        2.615089   -0.919183    1.206283
      4          6           0        2.842643   -0.341114   -0.041653
      5          6           0        1.886517   -0.341520   -1.056106
      6          6           0        0.653332   -0.948768   -0.801052
      7          1           0       -0.565965   -2.006928    0.630705
      8          1           0        1.176739   -1.977129    2.404833
      9          1           0        3.391620   -0.892026    1.961055
     10          1           0        2.113194    0.121600   -2.008763
     11          1           0       -0.105857   -0.960196   -1.577934
     12          7           0        4.151944    0.298752   -0.299917
     13          8           0        4.327696    0.801115   -1.407789
     14          8           0        4.977632    0.285800    0.610418
     15          6           0       -2.751508    1.026886   -0.055952
     16          6           0       -3.000747    2.441647    0.467802
     17          6           0       -1.769390    3.340547    0.351472
     18          1           0       -1.915393    0.579416    0.498690
     19          1           0       -2.435194    1.082847   -1.106765
     20          1           0       -3.317831    2.382946    1.516910
     21          1           0       -3.836490    2.885730   -0.088020
     22          1           0       -1.454175    3.428815   -0.693251
     23          1           0       -0.932569    2.923175    0.920798
     24          1           0       -1.969796    4.347136    0.731575
     25          6           0       -3.973238    0.116339    0.053618
     26          6           0       -3.723999   -1.298422   -0.470136
     27          6           0       -4.955356   -2.197323   -0.353806
     28          1           0       -4.289553    0.060377    1.104432
     29          1           0       -4.809353    0.563808   -0.501023
     30          1           0       -2.888256   -1.742506    0.085687
     31          1           0       -3.406915   -1.239722   -1.519244
     32          1           0       -5.792177   -1.779951   -0.923131
     33          1           0       -5.270572   -2.285591    0.690918
     34          1           0       -4.754950   -3.203910   -0.733909
 ---------------------------------------------------------------------

 SCF Done:  E(RHF) =  -669.535161391     A.U. after   15 cycles
 E2 =    -0.2092930131D+01 EUMP2 =    -0.67162809152242D+03

 The electronic state is 1-A.
 Alpha  occ. eigenvalues --  -20.60742 -20.60736 -15.85794 -11.31163 -11.27726
 Alpha  occ. eigenvalues --  -11.27707 -11.27437 -11.26751 -11.26713 -11.22804
 Alpha  occ. eigenvalues --  -11.22248 -11.22147 -11.22081 -11.21996 -11.21428
 Alpha  occ. eigenvalues --   -1.59817  -1.39370  -1.19332  -1.09263  -1.08722
 Alpha  occ. eigenvalues --   -1.04730  -1.04295  -0.96699  -0.95564  -0.87719
 Alpha  occ. eigenvalues --   -0.86126  -0.82395  -0.80413  -0.79066  -0.77433
 Alpha  occ. eigenvalues --   -0.72012  -0.71139  -0.70462  -0.65891  -0.64977
 Alpha  occ. eigenvalues --   -0.64725  -0.62075  -0.61699  -0.60102  -0.58322
 Alpha  occ. eigenvalues --   -0.55974  -0.55263  -0.53403  -0.53212  -0.52977
 Alpha  occ. eigenvalues --   -0.52813  -0.50648  -0.48778  -0.48768  -0.48690
 Alpha  occ. eigenvalues --   -0.47456  -0.46570  -0.46484  -0.44775  -0.44544
 Alpha  occ. eigenvalues --   -0.37269  -0.36321
 Alpha virt. eigenvalues --    0.05058   0.11278   0.16461   0.19449   0.22736
 Alpha virt. eigenvalues --    0.23600   0.24309   0.25432   0.27284   0.28095
 Alpha virt. eigenvalues --    0.29268   0.30391   0.31115   0.31264   0.31795

 Mulliken charges:
               1
     1  C   -0.175953
     2  C   -0.220636
     3  C   -0.171081
     4  C    0.158543
     5  C   -0.171632
     6  C   -0.218407
     7  H    0.233061
     8  H    0.223530
     9  H    0.275390
    10  H    0.275481
    11  H    0.226092
    12  N    0.488027
    13  O   -0.460389
    14  O   -0.460540
    15  C   -0.303550
    16  C   -0.300107
    17  C   -0.476270
    18  H    0.152430
    19  H    0.146171
    20  H    0.152579
    21  H    0.153192
    22  H    0.155532
    23  H    0.157772
    24  H    0.162587
    25  C   -0.298016
    26  C   -0.304425
    27  C   -0.475504
    28  H    0.151255
    29  H    0.153494
    30  H    0.142440
    31  H    0.150966
    32  H    0.159579
    33  H    0.157252
    34  H    0.161139
 Sum of Mulliken charges =  -0.00000

 Dipole moment (field-independent basis, Debye):
    X=             -4.7556    Y=             -2.1686    Z=              0.9136  Tot=              5.3059
 Quadrupole moment (field-independent basis, Debye-Ang):
   XX=           -121.1280   YY=            -93.9910   ZZ=            -89.7755
   XY=             -5.9929   XZ=              4.6797   YZ=             -1.7056

 Normal termination of Gaussian 16 at Thu May  6 03:02:39 2021.
