 Gaussian 16, Revision A.03,
 Gaussian 16:  EM64L-G16RevA.03 25-Dec-2016

 -------------
 #p 6-31g* mp2
 -------------

 ------------------------------------------------------
 Input file generated by CHIRIPA (05-May-2021 14:55:22)
 ------------------------------------------------------
 Symbolic Z-matrix:
 Charge =  0 Multiplicity = 1

                         Standard orientation:
 ---------------------------------------------------------------------
 Center     Atomic      Atomic             Coordinates (Angstroms)
 Number     Number       Type             X           Y           Z
 ---------------------------------------------------------------------
      1          6           0        2.702085    2.521562   -0.154013
      2          6           0        1.853048    1.533597   -0.663503
      3          6           0        2.236980    0.189410   -0.646024
      4          6           0        3.482509   -0.132721   -0.109202
      5          6           0        4.350660    0.828644    0.405951
      6          6           0        3.945989    2.166559    0.378150
      7          1           0        2.395782    3.563323   -0.171601
      8          1           0        0.886443    1.806378   -1.077400
      9          1           0        1.599301   -0.595708   -1.033805
     10          1           0        5.308180    0.525956    0.812097
     11          1           0        4.607419    2.931701    0.774524
     12          7           0        3.899939   -1.552431   -0.085234
     13          8           0        5.002352   -1.810254    0.393150
     14          8           0        3.116803   -2.380495   -0.545285
     15          6           0       -5.005794    0.263948   -0.009220
     16          6           0       -6.274545   -0.587426    0.049217
     17          6           0       -7.539083    0.214033   -0.261268
     18          1           0       -5.097588    1.096666    0.701484
     19          1           0       -4.920005    0.713591   -1.008147
     20          1           0       -6.357189   -1.036441    1.047300
     21          1           0       -6.179640   -1.418323   -0.661571
     22          1           0       -7.482676    0.649436   -1.264186
     23          1           0       -7.661233    1.033487    0.454395
     24          1           0       -8.434176   -0.414001   -0.213919
     25          6           0       -3.733309   -0.523186    0.298890
     26          6           0       -2.464557    0.328189    0.240453
     27          6           0       -1.200019   -0.473271    0.550939
     28          1           0       -3.819098   -0.972830    1.297817
     29          1           0       -3.641516   -1.355903   -0.411814
     30          1           0       -2.559463    1.159086    0.951241
     31          1           0       -2.381914    0.777204   -0.757631
     32          1           0       -1.077869   -1.292725   -0.164725
     33          1           0       -1.256426   -0.908674    1.553856
     34          1           0       -0.304926    0.154763    0.503590
 ---------------------------------------------------------------------

 SCF Done:  E(RHF) =  -669.534219651     A.U. after   15 cycles
 E2 =    -0.2092610783D+01 EUMP2 =    -0.67162683043403D+03

 The electronic state is 1-A.
 Alpha  occ. eigenvalues --  -20.60748 -20.60742 -15.85802 -11.31173 -11.27766
 Alpha  occ. eigenvalues --  -11.27727 -11.27516 -11.26774 -11.26753 -11.22105
 Alpha  occ. eigenvalues --  -11.21815 -11.21717 -11.21648 -11.21424 -11.21263
 Alpha  occ. eigenvalues --   -1.59822  -1.39375  -1.19372  -1.08767  -1.08750
 Alpha  occ. eigenvalues --   -1.04797  -1.03863  -0.96314  -0.95586  -0.87333
 Alpha  occ. eigenvalues --   -0.86167  -0.82430  -0.79944  -0.78562  -0.77467
 Alpha  occ. eigenvalues --   -0.72022  -0.71146  -0.70476  -0.65390  -0.65031
 Alpha  occ. eigenvalues --   -0.64778  -0.62213  -0.61247  -0.59672  -0.57927
 Alpha  occ. eigenvalues --   -0.55589  -0.55260  -0.53470  -0.52945  -0.52735
 Alpha  occ. eigenvalues --   -0.52531  -0.50230  -0.48781  -0.48773  -0.48245
 Alpha  occ. eigenvalues --   -0.46971  -0.46101  -0.46023  -0.44780  -0.44128
 Alpha  occ. eigenvalues --   -0.37356  -0.36285
 Alpha virt. eigenvalues --    0.05047   0.11228   0.16394   0.20579   0.22720
 Alpha virt. eigenvalues --    0.24007   0.26081   0.26559   0.26854   0.28110
 Alpha virt. eigenvalues --    0.29446   0.29691   0.31236   0.31796   0.32217

 Mulliken charges:
               1
     1  C   -0.171491
     2  C   -0.222064
     3  C   -0.169005
     4  C    0.157098
     5  C   -0.170858
     6  C   -0.218941
     7  H    0.225843
     8  H    0.226062
     9  H    0.280272
    10  H    0.275702
    11  H    0.223456
    12  N    0.488175
    13  O   -0.460626
    14  O   -0.460113
    15  C   -0.298400
    16  C   -0.300020
    17  C   -0.475857
    18  H    0.149247
    19  H    0.148509
    20  H    0.152945
    21  H    0.153028
    22  H    0.154944
    23  H    0.155012
    24  H    0.161342
    25  C   -0.298531
    26  C   -0.299871
    27  C   -0.487424
    28  H    0.152003
    29  H    0.151781
    30  H    0.151753
    31  H    0.145399
    32  H    0.157362
    33  H    0.161305
    34  H    0.161964
 Sum of Mulliken charges =  -0.00000

 Dipole moment (field-independent basis, Debye):
    X=             -1.5011    Y=              4.9522    Z=             -0.0428  Tot=              5.1749
 Quadrupole moment (field-independent basis, Debye-Ang):
   XX=           -102.1211   YY=            -96.4506   ZZ=            -93.5503
   XY=             19.6968   XZ=              1.6097   YZ=              0.4099

 Normal termination of Gaussian 16 at Thu May  6 14:14:25 2021.
