 Gaussian 16, Revision A.03,
 Gaussian 16:  EM64L-G16RevA.03 25-Dec-2016

 -------------
 #p 6-31g* mp2
 -------------

 ------------------------------------------------------
 Input file generated by CHIRIPA (05-May-2021 14:51:11)
 ------------------------------------------------------
 Symbolic Z-matrix:
 Charge =  0 Multiplicity = 1

                         Standard orientation:
 ---------------------------------------------------------------------
 Center     Atomic      Atomic             Coordinates (Angstroms)
 Number     Number       Type             X           Y           Z
 ---------------------------------------------------------------------
      1          6           0        3.005550   -0.387615   -0.631410
      2          6           0        3.056429   -1.787175   -0.017711
      3          6           0        2.410959   -2.847776   -0.910061
      4          1           0        1.958640   -0.117357   -0.826053
      5          1           0        3.510704   -0.404075   -1.607086
      6          1           0        2.552539   -1.767762    0.957140
      7          1           0        4.103326   -2.054056    0.175671
      8          1           0        2.918041   -2.896403   -1.879135
      9          1           0        1.358442   -2.608483   -1.093225
     10          1           0        2.458413   -3.840704   -0.452129
     11          6           0        3.646907    0.683573    0.248900
     12          6           0        3.596028    2.083134   -0.364800
     13          6           0        4.241498    3.143734    0.527551
     14          1           0        3.141752    0.700033    1.224575
     15          1           0        4.693816    0.413315    0.443543
     16          1           0        2.549130    2.350014   -0.558181
     17          1           0        4.099918    2.063721   -1.339650
     18          1           0        5.294014    2.904441    0.710715
     19          1           0        3.734415    3.192361    1.496624
     20          1           0        4.194044    4.136662    0.069619
     21          6           0       -3.956325    0.240251    0.380167
     22          6           0       -4.677130    0.848911   -0.823145
     23          6           0       -5.935754    1.622469   -0.429100
     24          1           0       -4.646627   -0.427243    0.913907
     25          1           0       -3.690206    1.041672    1.083231
     26          1           0       -4.940585    0.046743   -1.524381
     27          1           0       -3.984973    1.514885   -1.354194
     28          1           0       -5.686550    2.442184    0.252490
     29          1           0       -6.647591    0.965701    0.081334
     30          1           0       -6.435305    2.049102   -1.304482
     31          6           0       -2.696131   -0.536209    0.002343
     32          6           0       -1.975326   -1.144869    1.205655
     33          6           0       -0.716703   -1.918427    0.811610
     34          1           0       -2.962251   -1.337630   -0.700722
     35          1           0       -2.005830    0.131285   -0.531398
     36          1           0       -2.667483   -1.810844    1.736702
     37          1           0       -1.711871   -0.342701    1.906892
     38          1           0       -0.004865   -1.261658    0.301176
     39          1           0       -0.965907   -2.738143    0.130021
     40          1           0       -0.217151   -2.345060    1.686992
 ---------------------------------------------------------------------

 SCF Done:  E(RHF) =  -470.731931362     A.U. after   11 cycles
 E2 =    -0.1584013461D+01 EUMP2 =    -0.47231594482323D+03

 The electronic state is 1-A.
 Alpha  occ. eigenvalues --  -11.21642 -11.21630 -11.21608 -11.21487 -11.21453
 Alpha  occ. eigenvalues --  -11.21391 -11.21391 -11.21332 -11.21111 -11.21093
 Alpha  occ. eigenvalues --  -11.21078 -11.20855  -1.08486  -1.08395  -1.03618
 Alpha  occ. eigenvalues --   -1.03440  -0.96082  -0.95879  -0.87087  -0.86915
 Alpha  occ. eigenvalues --   -0.79675  -0.79523  -0.78302  -0.78210  -0.65213
 Alpha  occ. eigenvalues --   -0.64972  -0.61158  -0.60746  -0.59429  -0.59271
 Alpha  occ. eigenvalues --   -0.57701  -0.57479  -0.55319  -0.55244  -0.52704
 Alpha  occ. eigenvalues --   -0.52606  -0.52531  -0.52258  -0.50053  -0.49790
 Alpha  occ. eigenvalues --   -0.48086  -0.47743  -0.46685  -0.46541  -0.45922
 Alpha  occ. eigenvalues --   -0.45759  -0.45701  -0.45525  -0.43821  -0.43735
 Alpha virt. eigenvalues --    0.21052   0.23076   0.23801   0.24868   0.25911
 Alpha virt. eigenvalues --    0.26545   0.26887   0.27821   0.27945   0.29270
 Alpha virt. eigenvalues --    0.30643   0.31078   0.31366   0.31843   0.32373

 Mulliken charges:
               1
     1  C   -0.301508
     2  C   -0.302428
     3  C   -0.478682
     4  H    0.149978
     5  H    0.150008
     6  H    0.154589
     7  H    0.151990
     8  H    0.153482
     9  H    0.161755
    10  H    0.159050
    11  C   -0.298134
    12  C   -0.299546
    13  C   -0.475683
    14  H    0.149395
    15  H    0.149918
    16  H    0.151320
    17  H    0.152059
    18  H    0.155303
    19  H    0.155075
    20  H    0.160194
    21  C   -0.298263
    22  C   -0.299691
    23  C   -0.475738
    24  H    0.149860
    25  H    0.149533
    26  H    0.152047
    27  H    0.151958
    28  H    0.155204
    29  H    0.155241
    30  H    0.160383
    31  C   -0.298423
    32  C   -0.300355
    33  C   -0.481190
    34  H    0.149719
    35  H    0.148930
    36  H    0.152073
    37  H    0.151568
    38  H    0.161565
    39  H    0.156365
    40  H    0.161078
 Sum of Mulliken charges =  -0.00000

 Dipole moment (field-independent basis, Debye):
    X=             -0.0403    Y=             -0.0142    Z=              0.0142  Tot=              0.0451
 Quadrupole moment (field-independent basis, Debye-Ang):
   XX=            -84.8162   YY=            -85.1755   ZZ=            -84.9115
   XY=              0.6072   XZ=             -0.4018   YZ=             -0.4308

 Normal termination of Gaussian 16 at Thu May  6 02:14:17 2021.
