 Gaussian 16, Revision A.03,
 Gaussian 16:  EM64L-G16RevA.03 25-Dec-2016

 -------------
 #p 6-31g* mp2
 -------------

 ------------------------------------------------------
 Input file generated by CHIRIPA (05-May-2021 14:51:08)
 ------------------------------------------------------
 Symbolic Z-matrix:
 Charge =  0 Multiplicity = 1

                         Standard orientation:
 ---------------------------------------------------------------------
 Center     Atomic      Atomic             Coordinates (Angstroms)
 Number     Number       Type             X           Y           Z
 ---------------------------------------------------------------------
      1          6           0        4.987394    0.055688   -0.102285
      2          6           0        6.074056   -0.962139    0.245824
      3          6           0        7.485764   -0.394474    0.095391
      4          1           0        5.136376    0.403282   -1.133754
      5          1           0        5.099906    0.937229    0.543951
      6          1           0        5.958677   -1.842082   -0.399934
      7          1           0        5.922355   -1.307493    1.276519
      8          1           0        7.625022    0.470730    0.751616
      9          1           0        7.661549   -0.066896   -0.934363
     10          1           0        8.246937   -1.138811    0.349238
     11          6           0        3.570670   -0.496980    0.043256
     12          6           0        2.484008    0.520847   -0.304853
     13          6           0        1.072300   -0.046818   -0.154421
     14          1           0        3.458158   -1.378521   -0.602980
     15          1           0        3.421688   -0.844574    1.074725
     16          1           0        2.635708    0.866201   -1.335548
     17          1           0        2.599387    1.400790    0.340905
     18          1           0        0.896514   -0.374396    0.875334
     19          1           0        0.933042   -0.912022   -0.810645
     20          1           0        0.311126    0.697518   -0.408267
     21          6           0       -4.017021    0.917144    0.201775
     22          6           0       -2.560638    1.135949   -0.209391
     23          6           0       -2.050871    2.534004    0.141853
     24          1           0       -4.647004    1.672404   -0.287763
     25          1           0       -4.114125    1.082747    1.283691
     26          1           0       -2.466042    0.968629   -1.289979
     27          1           0       -1.934074    0.379961    0.281033
     28          1           0       -2.116351    2.708137    1.220738
     29          1           0       -2.651343    3.300149   -0.359200
     30          1           0       -1.007768    2.668777   -0.160857
     31          6           0       -4.541043   -0.475851   -0.142746
     32          6           0       -5.997426   -0.694657    0.268420
     33          6           0       -6.507194   -2.092712   -0.082824
     34          1           0       -4.443938   -0.641456   -1.224661
     35          1           0       -3.911059   -1.231111    0.346792
     36          1           0       -6.623991    0.061331   -0.222004
     37          1           0       -6.092022   -0.527336    1.349008
     38          1           0       -5.906721   -2.858857    0.418230
     39          1           0       -6.441713   -2.266845   -1.161708
     40          1           0       -7.550296   -2.227484    0.219886
 ---------------------------------------------------------------------

 SCF Done:  E(RHF) =  -470.732195182     A.U. after   11 cycles
 E2 =    -0.1583242864D+01 EUMP2 =    -0.47231543804640D+03

 The electronic state is 1-A.
 Alpha  occ. eigenvalues --  -11.21590 -11.21578 -11.21570 -11.21521 -11.21386
 Alpha  occ. eigenvalues --  -11.21370 -11.21326 -11.21311 -11.21074 -11.21063
 Alpha  occ. eigenvalues --  -11.21053 -11.20966  -1.08424  -1.08388  -1.03573
 Alpha  occ. eigenvalues --   -1.03453  -0.96048  -0.95883  -0.86997  -0.86967
 Alpha  occ. eigenvalues --   -0.79688  -0.79474  -0.78252  -0.78181  -0.65055
 Alpha  occ. eigenvalues --   -0.65020  -0.60972  -0.60868  -0.59818  -0.59021
 Alpha  occ. eigenvalues --   -0.57836  -0.57246  -0.55287  -0.55204  -0.52845
 Alpha  occ. eigenvalues --   -0.52536  -0.52476  -0.52148  -0.49918  -0.49878
 Alpha  occ. eigenvalues --   -0.47919  -0.47852  -0.46654  -0.46551  -0.45800
 Alpha  occ. eigenvalues --   -0.45734  -0.45699  -0.45658  -0.43776  -0.43676
 Alpha virt. eigenvalues --    0.22081   0.23030   0.23441   0.25139   0.26342
 Alpha virt. eigenvalues --    0.26694   0.26922   0.27139   0.27825   0.28992
 Alpha virt. eigenvalues --    0.30353   0.31190   0.31481   0.31624   0.32245

 Mulliken charges:
               1
     1  C   -0.298206
     2  C   -0.299590
     3  C   -0.475683
     4  H    0.149575
     5  H    0.149469
     6  H    0.151888
     7  H    0.151874
     8  H    0.155165
     9  H    0.155158
    10  H    0.160201
    11  C   -0.298499
    12  C   -0.299845
    13  C   -0.484321
    14  H    0.149464
    15  H    0.149465
    16  H    0.151546
    17  H    0.151639
    18  H    0.153578
    19  H    0.154880
    20  H    0.172878
    21  C   -0.297653
    22  C   -0.305448
    23  C   -0.479237
    24  H    0.149223
    25  H    0.149279
    26  H    0.151567
    27  H    0.159065
    28  H    0.155585
    29  H    0.155766
    30  H    0.161303
    31  C   -0.298285
    32  C   -0.299641
    33  C   -0.475678
    34  H    0.149446
    35  H    0.149894
    36  H    0.151864
    37  H    0.151839
    38  H    0.155185
    39  H    0.155135
    40  H    0.160155
 Sum of Mulliken charges =  -0.00000

 Dipole moment (field-independent basis, Debye):
    X=             -0.0168    Y=             -0.0012    Z=              0.0008  Tot=              0.0168
 Quadrupole moment (field-independent basis, Debye-Ang):
   XX=            -86.3556   YY=            -85.6397   ZZ=            -83.0130
   XY=             -0.8666   XZ=              0.2232   YZ=             -0.1744

 Normal termination of Gaussian 16 at Thu May  6 00:30:21 2021.
