 Gaussian 16, Revision A.03,
 Gaussian 16:  EM64L-G16RevA.03 25-Dec-2016

 -------------
 #p 6-31g* mp2
 -------------

 ------------------------------------------------------
 Input file generated by CHIRIPA (05-May-2021 14:53:12)
 ------------------------------------------------------
 Symbolic Z-matrix:
 Charge =  0 Multiplicity = 1

                         Standard orientation:
 ---------------------------------------------------------------------
 Center     Atomic      Atomic             Coordinates (Angstroms)
 Number     Number       Type             X           Y           Z
 ---------------------------------------------------------------------
      1          6           0       -2.490414    0.788493    0.193706
      2          6           0       -2.477871    2.204602   -0.382888
      3          6           0       -1.860473    3.226391    0.572393
      4          1           0       -3.046963    0.790028    1.140911
      5          1           0       -1.461206    0.489778    0.436390
      6          1           0       -3.506648    2.500031   -0.625699
      7          1           0       -1.921451    2.199658   -1.328927
      8          1           0       -0.824943    2.958676    0.806076
      9          1           0       -2.419146    3.260756    1.513299
     10          1           0       -1.861667    4.231912    0.140207
     11          6           0       -3.104595   -0.244289   -0.749625
     12          6           0       -3.117138   -1.660398   -0.173031
     13          6           0       -3.734536   -2.682187   -1.128312
     14          1           0       -4.133803    0.054426   -0.992309
     15          1           0       -2.548046   -0.245823   -1.696830
     16          1           0       -3.673557   -1.655454    0.773007
     17          1           0       -2.088361   -1.955827    0.069779
     18          1           0       -3.175863   -2.716552   -2.069218
     19          1           0       -4.770066   -2.414472   -1.361995
     20          1           0       -3.733342   -3.687708   -0.696126
     21          6           0        3.391566    0.475517   -1.889494
     22          6           0        3.462116   -0.848221   -1.443107
     23          6           0        2.797896   -1.240711   -0.277212
     24          6           0        2.068957   -0.279103    0.420819
     25          6           0        1.979574    1.047407    0.001684
     26          6           0        2.651823    1.417446   -1.166948
     27          1           0        3.910666    0.771692   -2.796252
     28          1           0        4.035862   -1.581875   -2.002225
     29          1           0        2.835668   -2.258767    0.090965
     30          1           0        1.399757    1.756196    0.580344
     31          1           0        2.595266    2.446184   -1.511249
     32          7           0        1.361526   -0.682730    1.656549
     33          8           0        0.725982    0.183489    2.253529
     34          8           0        1.455983   -1.857669    2.004734
 ---------------------------------------------------------------------

 SCF Done:  E(RHF) =  -669.535790668     A.U. after   15 cycles
 E2 =    -0.2093000683D+01 EUMP2 =    -0.67162879135133D+03

 The electronic state is 1-A.
 Alpha  occ. eigenvalues --  -20.60970 -20.60960 -15.85977 -11.31311 -11.27868
 Alpha  occ. eigenvalues --  -11.27865 -11.27601 -11.26878 -11.26867 -11.21365
 Alpha  occ. eigenvalues --  -11.21083 -11.20948 -11.20948 -11.20766 -11.20687
 Alpha  occ. eigenvalues --   -1.60020  -1.39576  -1.19478  -1.08880  -1.08003
 Alpha  occ. eigenvalues --   -1.04873  -1.03184  -0.95721  -0.95633  -0.86655
 Alpha  occ. eigenvalues --   -0.86274  -0.82552  -0.79234  -0.77816  -0.77564
 Alpha  occ. eigenvalues --   -0.72203  -0.71336  -0.70588  -0.65132  -0.64907
 Alpha  occ. eigenvalues --   -0.64622  -0.62240  -0.60586  -0.58994  -0.57225
 Alpha  occ. eigenvalues --   -0.55385  -0.54935  -0.53201  -0.52966  -0.52362
 Alpha  occ. eigenvalues --   -0.52041  -0.49600  -0.48986  -0.48961  -0.47549
 Alpha  occ. eigenvalues --   -0.46297  -0.45554  -0.45299  -0.44588  -0.43403
 Alpha  occ. eigenvalues --   -0.37453  -0.36467
 Alpha virt. eigenvalues --    0.04894   0.11099   0.16377   0.20390   0.23096
 Alpha virt. eigenvalues --    0.24083   0.26076   0.27270   0.27574   0.28019
 Alpha virt. eigenvalues --    0.29193   0.30498   0.31412   0.31983   0.32247

 Mulliken charges:
               1
     1  C   -0.301763
     2  C   -0.300151
     3  C   -0.476603
     4  H    0.153894
     5  H    0.157266
     6  H    0.151371
     7  H    0.145517
     8  H    0.151939
     9  H    0.161361
    10  H    0.155860
    11  C   -0.298682
    12  C   -0.299027
    13  C   -0.475504
    14  H    0.147318
    15  H    0.145002
    16  H    0.155055
    17  H    0.154806
    18  H    0.151920
    19  H    0.153702
    20  H    0.160947
    21  C   -0.170455
    22  C   -0.218648
    23  C   -0.170390
    24  C    0.157038
    25  C   -0.176703
    26  C   -0.220837
    27  H    0.226172
    28  H    0.223970
    29  H    0.275892
    30  H    0.284657
    31  H    0.224580
    32  N    0.486754
    33  O   -0.457859
    34  O   -0.458402
 Sum of Mulliken charges =  -0.00000

 Dipole moment (field-independent basis, Debye):
    X=              2.5834    Y=              1.3385    Z=             -4.1871  Tot=              5.0988
 Quadrupole moment (field-independent basis, Debye-Ang):
   XX=            -83.8091   YY=            -92.2776   ZZ=            -99.1971
   XY=             -0.0698   XZ=             -9.5511   YZ=              2.0114

 Normal termination of Gaussian 16 at Thu May  6 00:56:37 2021.
