 Gaussian 16, Revision A.03,
 Gaussian 16:  EM64L-G16RevA.03 25-Dec-2016

 -------------
 #p 6-31g* mp2
 -------------

 ------------------------------------------------------
 Input file generated by CHIRIPA (05-May-2021 14:53:16)
 ------------------------------------------------------
 Symbolic Z-matrix:
 Charge =  0 Multiplicity = 1

                         Standard orientation:
 ---------------------------------------------------------------------
 Center     Atomic      Atomic             Coordinates (Angstroms)
 Number     Number       Type             X           Y           Z
 ---------------------------------------------------------------------
      1          6           0        3.986699   -0.165103   -0.154867
      2          6           0        3.081443    1.014687   -0.510667
      3          6           0        1.595062    0.672363   -0.404464
      4          1           0        3.755199   -1.009757   -0.818126
      5          1           0        3.758338   -0.498369    0.866984
      6          1           0        3.312402    1.346514   -1.531041
      7          1           0        3.315258    1.856694    0.153390
      8          1           0        1.343114    0.361867    0.614710
      9          1           0        1.340242   -0.151211   -1.079291
     10          1           0        0.966111    1.529902   -0.663128
     11          6           0        5.475567    0.161557   -0.256330
     12          6           0        6.380823   -1.018232    0.099469
     13          6           0        7.867204   -0.675909   -0.006734
     14          1           0        5.703928    0.494824   -1.278181
     15          1           0        5.707067    1.006211    0.406928
     16          1           0        6.147008   -1.860239   -0.564587
     17          1           0        6.149864   -1.350059    1.119844
     18          1           0        8.122024    0.147666    0.668094
     19          1           0        8.119152   -0.365413   -1.025908
     20          1           0        8.496155   -1.533448    0.251931
     21          6           0       -1.689196    1.263031    1.024405
     22          6           0       -2.635388    1.914623    0.226489
     23          6           0       -3.751296    1.225489   -0.257651
     24          6           0       -3.890227   -0.120586    0.077117
     25          6           0       -2.964836   -0.797605    0.869951
     26          6           0       -1.856644   -0.088620    1.343027
     27          1           0       -0.825328    1.806077    1.396198
     28          1           0       -2.507926    2.964277   -0.022558
     29          1           0       -4.499092    1.705381   -0.877265
     30          1           0       -3.119089   -1.844546    1.101339
     31          1           0       -1.123421   -0.597228    1.962500
     32          7           0       -5.067504   -0.860650   -0.429564
     33          8           0       -5.166945   -2.046043   -0.120386
     34          8           0       -5.868522   -0.241304   -1.126284
 ---------------------------------------------------------------------

 SCF Done:  E(RHF) =  -669.535001206     A.U. after   15 cycles
 E2 =    -0.2091635175D+01 EUMP2 =    -0.67162663638129D+03

 The electronic state is 1-A.
 Alpha  occ. eigenvalues --  -20.60715 -20.60710 -15.85770 -11.31116 -11.27707
 Alpha  occ. eigenvalues --  -11.27699 -11.27413 -11.26701 -11.26689 -11.22308
 Alpha  occ. eigenvalues --  -11.22018 -11.21993 -11.21962 -11.21860 -11.21420
 Alpha  occ. eigenvalues --   -1.59792  -1.39346  -1.19299  -1.09002  -1.08693
 Alpha  occ. eigenvalues --   -1.04704  -1.04119  -0.96588  -0.95525  -0.87603
 Alpha  occ. eigenvalues --   -0.86101  -0.82365  -0.80187  -0.78792  -0.77414
 Alpha  occ. eigenvalues --   -0.71989  -0.71116  -0.70415  -0.65633  -0.64953
 Alpha  occ. eigenvalues --   -0.64714  -0.62061  -0.61514  -0.59971  -0.58177
 Alpha  occ. eigenvalues --   -0.55919  -0.55176  -0.53438  -0.53023  -0.52824
 Alpha  occ. eigenvalues --   -0.52790  -0.50513  -0.48747  -0.48744  -0.48498
 Alpha  occ. eigenvalues --   -0.47214  -0.46339  -0.46251  -0.44756  -0.44368
 Alpha  occ. eigenvalues --   -0.37213  -0.36307
 Alpha virt. eigenvalues --    0.05120   0.11268   0.16593   0.20352   0.22527
 Alpha virt. eigenvalues --    0.23967   0.25708   0.26437   0.26993   0.27417
 Alpha virt. eigenvalues --    0.29338   0.30330   0.31041   0.31170   0.31642

 Mulliken charges:
               1
     1  C   -0.298565
     2  C   -0.300924
     3  C   -0.474357
     4  H    0.151749
     5  H    0.147579
     6  H    0.155008
     7  H    0.150162
     8  H    0.144948
     9  H    0.161824
    10  H    0.157714
    11  C   -0.298572
    12  C   -0.300009
    13  C   -0.475986
    14  H    0.150895
    15  H    0.149518
    16  H    0.153020
    17  H    0.151652
    18  H    0.155255
    19  H    0.155971
    20  H    0.161485
    21  C   -0.164852
    22  C   -0.221276
    23  C   -0.170587
    24  C    0.157999
    25  C   -0.171351
    26  C   -0.218458
    27  H    0.227173
    28  H    0.222856
    29  H    0.275346
    30  H    0.275356
    31  H    0.222741
    32  N    0.488147
    33  O   -0.460716
    34  O   -0.460747
 Sum of Mulliken charges =  -0.00000

 Dipole moment (field-independent basis, Debye):
    X=              4.2879    Y=              2.5878    Z=              1.7251  Tot=              5.2970
 Quadrupole moment (field-independent basis, Debye-Ang):
   XX=           -128.1354   YY=            -92.1516   ZZ=            -93.0925
   XY=            -12.4506   XZ=             -5.9432   YZ=             -1.9182

 Normal termination of Gaussian 16 at Thu May  6 12:12:21 2021.
