 Gaussian 16, Revision A.03,
 Gaussian 16:  EM64L-G16RevA.03 25-Dec-2016

 -------------
 #p 6-31g* mp2
 -------------

 ------------------------------------------------------
 Input file generated by CHIRIPA (05-May-2021 14:51:14)
 ------------------------------------------------------
 Symbolic Z-matrix:
 Charge =  0 Multiplicity = 1

                         Standard orientation:
 ---------------------------------------------------------------------
 Center     Atomic      Atomic             Coordinates (Angstroms)
 Number     Number       Type             X           Y           Z
 ---------------------------------------------------------------------
      1          6           0        2.491928   -0.475076   -0.215818
      2          6           0        2.882078   -1.572209   -1.206811
      3          6           0        2.050450   -2.844120   -1.038195
      4          1           0        2.606603   -0.856824    0.807932
      5          1           0        1.426728   -0.237390   -0.343294
      6          1           0        3.946557   -1.806781   -1.078450
      7          1           0        2.766644   -1.187742   -2.228318
      8          1           0        0.986835   -2.631499   -1.186914
      9          1           0        2.173452   -3.254055   -0.030512
     10          1           0        2.345962   -3.615175   -1.756531
     11          6           0        3.314461    0.802734   -0.371925
     12          6           0        2.924311    1.899868    0.619068
     13          6           0        3.755939    3.171779    0.450452
     14          1           0        4.379660    0.565048   -0.244449
     15          1           0        3.199786    1.184482   -1.395675
     16          1           0        3.039744    1.515401    1.640575
     17          1           0        1.859832    2.134440    0.490706
     18          1           0        3.632936    3.581713   -0.557231
     19          1           0        4.819553    2.959157    0.599171
     20          1           0        3.460426    3.942833    1.168788
     21          6           0       -2.293755   -0.267164    0.742579
     22          6           0       -1.856718   -1.728868    0.844576
     23          6           0       -0.636300   -1.919479    1.745709
     24          1           0       -1.456815    0.333355    0.360672
     25          1           0       -2.517181    0.112571    1.749195
     26          1           0       -1.635512   -2.106138   -0.162077
     27          1           0       -2.694857   -2.326007    1.226103
     28          1           0       -0.848727   -1.569483    2.761080
     29          1           0        0.216637   -1.348366    1.365013
     30          1           0       -0.341006   -2.971724    1.804393
     31          6           0       -3.512633   -0.060496   -0.154835
     32          6           0       -3.949670    1.401209   -0.256833
     33          6           0       -5.170089    1.591821   -1.157966
     34          1           0       -3.289207   -0.440230   -1.161453
     35          1           0       -4.349574   -0.661014    0.227071
     36          1           0       -3.111531    1.998349   -0.638360
     37          1           0       -4.170877    1.778480    0.749820
     38          1           0       -6.023025    1.020707   -0.777269
     39          1           0       -4.957661    1.241825   -2.173337
     40          1           0       -5.465383    2.644065   -1.216650
 ---------------------------------------------------------------------

 SCF Done:  E(RHF) =  -470.732299109     A.U. after   11 cycles
 E2 =    -0.1584421825D+01 EUMP2 =    -0.47231672093372D+03

 The electronic state is 1-A.
 Alpha  occ. eigenvalues --  -11.21654 -11.21643 -11.21607 -11.21542 -11.21471
 Alpha  occ. eigenvalues --  -11.21407 -11.21398 -11.21338 -11.21100 -11.21076
 Alpha  occ. eigenvalues --  -11.21073 -11.20821  -1.08509  -1.08398  -1.03595
 Alpha  occ. eigenvalues --   -1.03461  -0.96023  -0.95926  -0.87041  -0.86946
 Alpha  occ. eigenvalues --   -0.79684  -0.79525  -0.78387  -0.78164  -0.65190
 Alpha  occ. eigenvalues --   -0.64984  -0.61038  -0.60847  -0.59386  -0.59305
 Alpha  occ. eigenvalues --   -0.57739  -0.57441  -0.55323  -0.55217  -0.52720
 Alpha  occ. eigenvalues --   -0.52663  -0.52531  -0.52221  -0.49982  -0.49908
 Alpha  occ. eigenvalues --   -0.48018  -0.47798  -0.46739  -0.46633  -0.46019
 Alpha  occ. eigenvalues --   -0.45767  -0.45711  -0.45280  -0.43833  -0.43740
 Alpha virt. eigenvalues --    0.20277   0.23184   0.23440   0.24527   0.25611
 Alpha virt. eigenvalues --    0.26050   0.26496   0.27926   0.28749   0.29666
 Alpha virt. eigenvalues --    0.29981   0.30710   0.31546   0.32209   0.32360

 Mulliken charges:
               1
     1  C   -0.305277
     2  C   -0.299204
     3  C   -0.478857
     4  H    0.152477
     5  H    0.152300
     6  H    0.152214
     7  H    0.151695
     8  H    0.157968
     9  H    0.157063
    10  H    0.159943
    11  C   -0.296843
    12  C   -0.300142
    13  C   -0.475714
    14  H    0.149864
    15  H    0.149566
    16  H    0.152414
    17  H    0.151686
    18  H    0.155165
    19  H    0.155325
    20  H    0.160563
    21  C   -0.299961
    22  C   -0.301382
    23  C   -0.484327
    24  H    0.149506
    25  H    0.149978
    26  H    0.151999
    27  H    0.151832
    28  H    0.153139
    29  H    0.167749
    30  H    0.159478
    31  C   -0.298179
    32  C   -0.299557
    33  C   -0.475688
    34  H    0.149119
    35  H    0.149933
    36  H    0.151485
    37  H    0.152064
    38  H    0.155280
    39  H    0.155093
    40  H    0.160234
 Sum of Mulliken charges =  -0.00000

 Dipole moment (field-independent basis, Debye):
    X=              0.0666    Y=              0.0080    Z=             -0.0044  Tot=              0.0673
 Quadrupole moment (field-independent basis, Debye-Ang):
   XX=            -84.8793   YY=            -85.7488   ZZ=            -84.1362
   XY=             -0.4865   XZ=             -0.5264   YZ=             -0.1148

 Normal termination of Gaussian 16 at Wed May  5 16:54:58 2021.
