 Gaussian 16, Revision A.03,
 Gaussian 16:  EM64L-G16RevA.03 25-Dec-2016

 -------------
 #p 6-31g* mp2
 -------------

 ------------------------------------------------------
 Input file generated by CHIRIPA (05-May-2021 14:55:21)
 ------------------------------------------------------
 Symbolic Z-matrix:
 Charge =  0 Multiplicity = 1

                         Standard orientation:
 ---------------------------------------------------------------------
 Center     Atomic      Atomic             Coordinates (Angstroms)
 Number     Number       Type             X           Y           Z
 ---------------------------------------------------------------------
      1          6           0       -2.986500   -2.668744   -0.072532
      2          6           0       -3.463950   -1.816146   -1.073351
      3          6           0       -3.244028   -0.437655   -0.996249
      4          6           0       -2.539637    0.056442    0.100560
      5          6           0       -2.051329   -0.767242    1.113669
      6          6           0       -2.282953   -2.142499    1.015865
      7          1           0       -3.161886   -3.738333   -0.140468
      8          1           0       -4.010651   -2.222041   -1.919763
      9          1           0       -3.602526    0.245146   -1.756959
     10          1           0       -1.509693   -0.333179    1.945318
     11          1           0       -1.910992   -2.802253    1.794591
     12          7           0       -2.300621    1.514077    0.193143
     13          8           0       -1.677228    1.924517    1.169645
     14          8           0       -2.741198    2.218531   -0.712547
     15          6           0        3.640940   -0.343522   -0.473872
     16          6           0        4.021445   -1.501821    0.448919
     17          6           0        4.700259   -2.652100   -0.295303
     18          1           0        2.973662   -0.715894   -1.263191
     19          1           0        4.544547    0.026953   -0.977497
     20          1           0        3.117599   -1.869098    0.951697
     21          1           0        4.687742   -1.126609    1.236244
     22          1           0        5.617569   -2.307113   -0.783288
     23          1           0        4.038506   -3.053820   -1.069451
     24          1           0        4.963728   -3.469339    0.383346
     25          6           0        2.961376    0.814034    0.255501
     26          6           0        2.580870    1.972334   -0.667290
     27          6           0        1.902056    3.122612    0.076932
     28          1           0        2.057768    0.443559    0.759126
     29          1           0        3.628653    1.186407    1.044820
     30          1           0        1.914574    1.597122   -1.454615
     31          1           0        3.484715    2.339610   -1.170069
     32          1           0        2.563809    3.524332    0.851079
     33          1           0        0.984747    2.777625    0.564916
     34          1           0        1.638587    3.939852   -0.601717
 ---------------------------------------------------------------------

 SCF Done:  E(RHF) =  -669.536332328     A.U. after   15 cycles
 E2 =    -0.2091335852D+01 EUMP2 =    -0.67162766817992D+03

 The electronic state is 1-A.
 Alpha  occ. eigenvalues --  -20.60996 -20.60990 -15.86016 -11.31331 -11.27892
 Alpha  occ. eigenvalues --  -11.27886 -11.27623 -11.26895 -11.26885 -11.21534
 Alpha  occ. eigenvalues --  -11.21144 -11.21076 -11.20950 -11.20876 -11.19839
 Alpha  occ. eigenvalues --   -1.60047  -1.39605  -1.19496  -1.08901  -1.08065
 Alpha  occ. eigenvalues --   -1.04890  -1.03069  -0.95746  -0.95489  -0.86503
 Alpha  occ. eigenvalues --   -0.86290  -0.82578  -0.79173  -0.77839  -0.77631
 Alpha  occ. eigenvalues --   -0.72237  -0.71361  -0.70602  -0.65151  -0.64891
 Alpha  occ. eigenvalues --   -0.64705  -0.62237  -0.60467  -0.58934  -0.57094
 Alpha  occ. eigenvalues --   -0.55393  -0.54771  -0.53222  -0.52981  -0.52170
 Alpha  occ. eigenvalues --   -0.51909  -0.49473  -0.48999  -0.48957  -0.47464
 Alpha  occ. eigenvalues --   -0.46247  -0.45422  -0.45344  -0.44831  -0.43335
 Alpha  occ. eigenvalues --   -0.37472  -0.36491
 Alpha virt. eigenvalues --    0.04850   0.11148   0.16326   0.21237   0.23129
 Alpha virt. eigenvalues --    0.24786   0.26624   0.27290   0.27695   0.28393
 Alpha virt. eigenvalues --    0.28685   0.30782   0.31832   0.32029   0.32401

 Mulliken charges:
               1
     1  C   -0.170573
     2  C   -0.218530
     3  C   -0.170805
     4  C    0.158320
     5  C   -0.171475
     6  C   -0.218513
     7  H    0.226225
     8  H    0.224011
     9  H    0.275987
    10  H    0.275977
    11  H    0.224119
    12  N    0.488271
    13  O   -0.459784
    14  O   -0.457856
    15  C   -0.297697
    16  C   -0.298330
    17  C   -0.475312
    18  H    0.147805
    19  H    0.149623
    20  H    0.147530
    21  H    0.152446
    22  H    0.156084
    23  H    0.153584
    24  H    0.158471
    25  C   -0.297003
    26  C   -0.299303
    27  C   -0.485682
    28  H    0.146976
    29  H    0.149200
    30  H    0.149248
    31  H    0.148568
    32  H    0.149586
    33  H    0.178335
    34  H    0.160497
 Sum of Mulliken charges =  -0.00000

 Dipole moment (field-independent basis, Debye):
    X=             -1.0773    Y=             -5.0822    Z=             -0.3065  Tot=              5.2041
 Quadrupole moment (field-independent basis, Debye-Ang):
   XX=            -89.7238   YY=            -96.4739   ZZ=            -91.5004
   XY=             13.6387   XZ=              3.6956   YZ=             -1.4216

 Normal termination of Gaussian 16 at Thu May  6 01:25:18 2021.
