 Gaussian 16, Revision A.03,
 Gaussian 16:  EM64L-G16RevA.03 25-Dec-2016

 -------------
 #p 6-31g* mp2
 -------------

 ------------------------------------------------------
 Input file generated by CHIRIPA (05-May-2021 14:57:22)
 ------------------------------------------------------
 Symbolic Z-matrix:
 Charge =  0 Multiplicity = 1

                         Standard orientation:
 ---------------------------------------------------------------------
 Center     Atomic      Atomic             Coordinates (Angstroms)
 Number     Number       Type             X           Y           Z
 ---------------------------------------------------------------------
      1          6           0       -5.946563    1.059161    0.150104
      2          6           0       -5.166862    1.122102   -1.009476
      3          6           0       -3.981097    0.388134   -1.108465
      4          6           0       -3.603295   -0.402034   -0.023942
      5          6           0       -4.358595   -0.485631    1.144743
      6          6           0       -5.540657    0.256910    1.221624
      7          1           0       -6.866256    1.632655    0.218414
      8          1           0       -5.479633    1.744296   -1.843199
      9          1           0       -3.358476    0.418429   -1.994379
     10          1           0       -4.020873   -1.114768    1.959328
     11          1           0       -6.144191    0.206097    2.123405
     12          7           0       -2.349939   -1.183591   -0.117034
     13          8           0       -2.038992   -1.872213    0.852372
     14          8           0       -1.702237   -1.092754   -1.157644
     15          6           0        6.201420   -0.518520    0.148323
     16          6           0        5.195453   -1.399045   -0.263049
     17          6           0        3.866933   -0.971254   -0.344160
     18          6           0        3.578657    0.349766   -0.004909
     19          6           0        4.558632    1.250922    0.408439
     20          6           0        5.880365    0.801326    0.482165
     21          1           0        7.230809   -0.859308    0.208464
     22          1           0        5.441866   -2.424613   -0.522928
     23          1           0        3.068477   -1.631869   -0.659554
     24          1           0        4.282202    2.267386    0.661032
     25          1           0        6.659549    1.487361    0.801964
     26          7           0        2.175805    0.814191   -0.086870
     27          8           0        1.947830    1.982969    0.217471
     28          8           0        1.330787    0.000636   -0.453899
 ---------------------------------------------------------------------

 SCF Done:  E(RHF) =  -868.336282651     A.U. after   16 cycles
 E2 =    -0.2599975129D+01 EUMP2 =    -0.87093625778027D+03

 The electronic state is 1-A.
 Alpha  occ. eigenvalues --  -20.59860 -20.59738 -20.59621 -20.59503 -15.84839
 Alpha  occ. eigenvalues --  -15.84619 -11.30434 -11.30261 -11.27077 -11.26980
 Alpha  occ. eigenvalues --  -11.26888 -11.26853 -11.26847 -11.26691 -11.26140
 Alpha  occ. eigenvalues --  -11.26086 -11.25975 -11.25949  -1.58888  -1.58610
 Alpha  occ. eigenvalues --   -1.38426  -1.38164  -1.18640  -1.18464  -1.08003
 Alpha  occ. eigenvalues --   -1.07811  -1.04074  -1.03916  -0.94796  -0.94597
 Alpha  occ. eigenvalues --   -0.85463  -0.85303  -0.81617  -0.81433  -0.76619
 Alpha  occ. eigenvalues --   -0.76434  -0.71129  -0.70784  -0.70226  -0.69896
 Alpha  occ. eigenvalues --   -0.69745  -0.69590  -0.64285  -0.64121  -0.64084
 Alpha  occ. eigenvalues --   -0.63935  -0.61411  -0.61265  -0.54588  -0.54428
 Alpha  occ. eigenvalues --   -0.52399  -0.52222  -0.52168  -0.52023  -0.47928
 Alpha  occ. eigenvalues --   -0.47812  -0.47601  -0.47534  -0.43780  -0.43481
 Alpha  occ. eigenvalues --   -0.36648  -0.36462  -0.35689  -0.35529
 Alpha virt. eigenvalues --    0.05911   0.06130   0.11961   0.12123   0.17351
 Alpha virt. eigenvalues --    0.17560   0.22059   0.22173   0.27958   0.28057
 Alpha virt. eigenvalues --    0.28996   0.29100   0.31587   0.31688   0.33315

 Mulliken charges:
               1
     1  C   -0.171776
     2  C   -0.218561
     3  C   -0.169043
     4  C    0.161166
     5  C   -0.171176
     6  C   -0.218590
     7  H    0.222378
     8  H    0.221034
     9  H    0.276760
    10  H    0.273639
    11  H    0.220236
    12  N    0.490282
    13  O   -0.466385
    14  O   -0.449465
    15  C   -0.171645
    16  C   -0.219028
    17  C   -0.171141
    18  C    0.158063
    19  C   -0.171796
    20  C   -0.218895
    21  H    0.223024
    22  H    0.222497
    23  H    0.282457
    24  H    0.273361
    25  H    0.220551
    26  N    0.486932
    27  O   -0.469509
    28  O   -0.445370
 Sum of Mulliken charges =  -0.00000

 Dipole moment (field-independent basis, Debye):
    X=              0.5305    Y=              0.9639    Z=              0.4501  Tot=              1.1888
 Quadrupole moment (field-independent basis, Debye-Ang):
   XX=            -41.0732   YY=           -104.6493   ZZ=           -101.1032
   XY=            -11.1195   XZ=             -0.3059   YZ=             -0.2961

 Normal termination of Gaussian 16 at Thu May  6 01:44:35 2021.
