 Gaussian 16, Revision A.03,
 Gaussian 16:  EM64L-G16RevA.03 25-Dec-2016

 -------------
 #p 6-31g* mp2
 -------------

 ------------------------------------------------------
 Input file generated by CHIRIPA (05-May-2021 14:51:10)
 ------------------------------------------------------
 Symbolic Z-matrix:
 Charge =  0 Multiplicity = 1

                         Standard orientation:
 ---------------------------------------------------------------------
 Center     Atomic      Atomic             Coordinates (Angstroms)
 Number     Number       Type             X           Y           Z
 ---------------------------------------------------------------------
      1          6           0       -3.799101   -0.253842   -0.487076
      2          6           0       -3.258512   -1.655400   -0.201798
      3          6           0       -4.165321   -2.760498   -0.744245
      4          1           0       -4.800838   -0.157422   -0.046429
      5          1           0       -3.921544   -0.129443   -1.571939
      6          1           0       -3.135817   -1.776633    0.882114
      7          1           0       -2.257866   -1.748431   -0.643011
      8          1           0       -4.278874   -2.667768   -1.829191
      9          1           0       -5.161813   -2.696129   -0.295401
     10          1           0       -3.759937   -3.754130   -0.529256
     11          6           0       -2.903556    0.861624    0.049078
     12          6           0       -3.444145    2.263182   -0.236200
     13          6           0       -2.537335    3.368280    0.306247
     14          1           0       -2.781112    0.737224    1.133941
     15          1           0       -1.901818    0.765204   -0.391569
     16          1           0       -4.444791    2.356213    0.205013
     17          1           0       -3.566839    2.384414   -1.320112
     18          1           0       -1.540843    3.303911   -0.142597
     19          1           0       -2.423783    3.275549    1.391193
     20          1           0       -2.942719    4.361912    0.091258
     21          6           0        2.645049   -0.118168    0.442849
     22          6           0        1.838366   -1.311217    0.956544
     23          6           0        0.427553   -0.923707    1.400657
     24          1           0        2.703865    0.643725    1.232155
     25          1           0        2.108821    0.343456   -0.397840
     26          1           0        2.376631   -1.771293    1.795124
     27          1           0        1.781626   -2.070440    0.165989
     28          1           0       -0.131397   -0.484451    0.568052
     29          1           0        0.466989   -0.183604    2.206443
     30          1           0       -0.131479   -1.791571    1.764190
     31          6           0        4.057608   -0.489613   -0.004851
     32          6           0        4.864290    0.703435   -0.518546
     33          6           0        6.275103    0.315925   -0.962658
     34          1           0        4.593834   -0.951238    0.835838
     35          1           0        3.998790   -1.251506   -0.794157
     36          1           0        4.921030    1.462659    0.272009
     37          1           0        4.326025    1.163512   -1.357126
     38          1           0        6.235667   -0.424178   -1.768445
     39          1           0        6.834053   -0.123331   -0.130054
     40          1           0        6.834135    1.183789   -1.326192
 ---------------------------------------------------------------------

 SCF Done:  E(RHF) =  -470.732671850     A.U. after   11 cycles
 E2 =    -0.1583395421D+01 EUMP2 =    -0.47231606727096D+03

 The electronic state is 1-A.
 Alpha  occ. eigenvalues --  -11.21594 -11.21580 -11.21554 -11.21544 -11.21388
 Alpha  occ. eigenvalues --  -11.21377 -11.21329 -11.21316 -11.21066 -11.21051
 Alpha  occ. eigenvalues --  -11.21048 -11.20916  -1.08429  -1.08387  -1.03509
 Alpha  occ. eigenvalues --   -1.03487  -0.95980  -0.95919  -0.86977  -0.86955
 Alpha  occ. eigenvalues --   -0.79591  -0.79560  -0.78306  -0.78120  -0.65106
 Alpha  occ. eigenvalues --   -0.64984  -0.60915  -0.60884  -0.59384  -0.59251
 Alpha  occ. eigenvalues --   -0.57682  -0.57451  -0.55312  -0.55178  -0.52718
 Alpha  occ. eigenvalues --   -0.52591  -0.52478  -0.52253  -0.49954  -0.49866
 Alpha  occ. eigenvalues --   -0.47992  -0.47797  -0.46709  -0.46602  -0.45905
 Alpha  occ. eigenvalues --   -0.45736  -0.45677  -0.45308  -0.43775  -0.43719
 Alpha virt. eigenvalues --    0.21719   0.23142   0.24004   0.24262   0.25655
 Alpha virt. eigenvalues --    0.26134   0.27014   0.27667   0.27898   0.29701
 Alpha virt. eigenvalues --    0.30470   0.31480   0.31545   0.31848   0.32203

 Mulliken charges:
               1
     1  C   -0.298449
     2  C   -0.300886
     3  C   -0.475798
     4  H    0.149508
     5  H    0.148924
     6  H    0.153178
     7  H    0.153451
     8  H    0.154854
     9  H    0.155048
    10  H    0.160064
    11  C   -0.301142
    12  C   -0.299160
    13  C   -0.475575
    14  H    0.151751
    15  H    0.151313
    16  H    0.151860
    17  H    0.151516
    18  H    0.155090
    19  H    0.155335
    20  H    0.160098
    21  C   -0.297966
    22  C   -0.300196
    23  C   -0.481119
    24  H    0.149828
    25  H    0.148344
    26  H    0.151465
    27  H    0.151218
    28  H    0.163133
    29  H    0.153976
    30  H    0.160496
    31  C   -0.298193
    32  C   -0.299608
    33  C   -0.475687
    34  H    0.149605
    35  H    0.149476
    36  H    0.152004
    37  H    0.151707
    38  H    0.155114
    39  H    0.155205
    40  H    0.160217
 Sum of Mulliken charges =  -0.00000

 Dipole moment (field-independent basis, Debye):
    X=             -0.0271    Y=              0.0084    Z=              0.0126  Tot=              0.0310
 Quadrupole moment (field-independent basis, Debye-Ang):
   XX=            -85.9109   YY=            -85.6822   ZZ=            -83.3410
   XY=             -0.2855   XZ=             -0.0042   YZ=             -0.1739

 Normal termination of Gaussian 16 at Thu May  6 02:12:17 2021.
