 Gaussian 16, Revision A.03,
 Gaussian 16:  EM64L-G16RevA.03 25-Dec-2016

 -------------
 #p 6-31g* mp2
 -------------

 ------------------------------------------------------
 Input file generated by CHIRIPA (05-May-2021 14:51:08)
 ------------------------------------------------------
 Symbolic Z-matrix:
 Charge =  0 Multiplicity = 1

                         Standard orientation:
 ---------------------------------------------------------------------
 Center     Atomic      Atomic             Coordinates (Angstroms)
 Number     Number       Type             X           Y           Z
 ---------------------------------------------------------------------
      1          6           0       -3.483782    0.916368   -0.092794
      2          6           0       -4.573502    1.961646    0.147809
      3          6           0       -4.035889    3.392767    0.122153
      4          1           0       -2.701348    1.029376    0.670077
      5          1           0       -3.005461    1.112026   -1.062496
      6          1           0       -5.050559    1.763245    1.116142
      7          1           0       -5.353527    1.846012   -0.615609
      8          1           0       -3.577329    3.614713   -0.846901
      9          1           0       -3.272640    3.531475    0.894690
     10          1           0       -4.831636    4.123737    0.296304
     11          6           0       -4.005721   -0.519178   -0.070092
     12          6           0       -2.916001   -1.564456   -0.310694
     13          6           0       -3.453614   -2.995577   -0.285038
     14          1           0       -4.484042   -0.714835    0.899610
     15          1           0       -4.788155   -0.632186   -0.832962
     16          1           0       -2.135976   -1.448822    0.452723
     17          1           0       -2.438944   -1.366055   -1.279028
     18          1           0       -4.216863   -3.134285   -1.057575
     19          1           0       -3.912174   -3.217522    0.684015
     20          1           0       -2.657866   -3.726547   -0.459189
     21          6           0        3.403158   -0.879897    0.132176
     22          6           0        1.893830   -0.786121    0.358277
     23          6           0        1.224648   -2.157294    0.457640
     24          1           0        3.595080   -1.450605   -0.786738
     25          1           0        3.855355   -1.450862    0.954921
     26          1           0        1.444796   -0.214317   -0.463931
     27          1           0        1.705474   -0.215406    1.276658
     28          1           0        1.645353   -2.731932    1.289145
     29          1           0        1.383194   -2.730838   -0.461333
     30          1           0        0.145965   -2.066817    0.619245
     31          6           0        4.086345    0.482706    0.030710
     32          6           0        5.595673    0.388931   -0.195392
     33          6           0        6.264855    1.760104   -0.294755
     34          1           0        3.634148    1.053673   -0.792036
     35          1           0        3.894423    1.053415    0.949624
     36          1           0        5.784029   -0.181785   -1.113772
     37          1           0        6.044707   -0.182872    0.626816
     38          1           0        6.106309    2.333647    0.624219
     39          1           0        5.844150    2.334742   -1.126259
     40          1           0        7.343538    1.669626   -0.456359
 ---------------------------------------------------------------------

 SCF Done:  E(RHF) =  -470.733267832     A.U. after   11 cycles
 E2 =    -0.1582496151D+01 EUMP2 =    -0.47231576398226D+03

 The electronic state is 1-A.
 Alpha  occ. eigenvalues --  -11.21612 -11.21604 -11.21590 -11.21572 -11.21410
 Alpha  occ. eigenvalues --  -11.21386 -11.21351 -11.21327 -11.21071 -11.21070
 Alpha  occ. eigenvalues --  -11.21062 -11.21003  -1.08440  -1.08407  -1.03549
 Alpha  occ. eigenvalues --   -1.03494  -0.95993  -0.95944  -0.87006  -0.86965
 Alpha  occ. eigenvalues --   -0.79636  -0.79539  -0.78254  -0.78222  -0.65075
 Alpha  occ. eigenvalues --   -0.65039  -0.60958  -0.60902  -0.59501  -0.59197
 Alpha  occ. eigenvalues --   -0.57686  -0.57467  -0.55269  -0.55240  -0.52721
 Alpha  occ. eigenvalues --   -0.52618  -0.52425  -0.52365  -0.49921  -0.49895
 Alpha  occ. eigenvalues --   -0.48020  -0.47788  -0.46623  -0.46603  -0.45788
 Alpha  occ. eigenvalues --   -0.45764  -0.45712  -0.45689  -0.43808  -0.43705
 Alpha virt. eigenvalues --    0.21763   0.23070   0.23480   0.24859   0.26233
 Alpha virt. eigenvalues --    0.26629   0.27002   0.27400   0.28030   0.28842
 Alpha virt. eigenvalues --    0.30351   0.31377   0.31571   0.31715   0.32160

 Mulliken charges:
               1
     1  C   -0.298361
     2  C   -0.299657
     3  C   -0.475703
     4  H    0.149785
     5  H    0.149444
     6  H    0.151929
     7  H    0.151940
     8  H    0.155159
     9  H    0.155271
    10  H    0.160247
    11  C   -0.297572
    12  C   -0.304636
    13  C   -0.476418
    14  H    0.149479
    15  H    0.149707
    16  H    0.155892
    17  H    0.152247
    18  H    0.155321
    19  H    0.155109
    20  H    0.161411
    21  C   -0.298292
    22  C   -0.299048
    23  C   -0.483110
    24  H    0.149588
    25  H    0.149421
    26  H    0.152385
    27  H    0.151224
    28  H    0.154591
    29  H    0.154839
    30  H    0.167941
    31  C   -0.298221
    32  C   -0.299634
    33  C   -0.475689
    34  H    0.149537
    35  H    0.149547
    36  H    0.151907
    37  H    0.151885
    38  H    0.155152
    39  H    0.155177
    40  H    0.160205
 Sum of Mulliken charges =  -0.00000

 Dipole moment (field-independent basis, Debye):
    X=             -0.0244    Y=             -0.0012    Z=             -0.0062  Tot=              0.0252
 Quadrupole moment (field-independent basis, Debye-Ang):
   XX=            -85.2557   YY=            -86.8305   ZZ=            -82.7140
   XY=             -0.7929   XZ=              0.3865   YZ=              0.0401

 Normal termination of Gaussian 16 at Thu May  6 02:04:28 2021.
