 Gaussian 16, Revision A.03,
 Gaussian 16:  EM64L-G16RevA.03 25-Dec-2016

 -------------
 #p 6-31g* mp2
 -------------

 ------------------------------------------------------
 Input file generated by CHIRIPA (05-May-2021 14:55:22)
 ------------------------------------------------------
 Symbolic Z-matrix:
 Charge =  0 Multiplicity = 1

                         Standard orientation:
 ---------------------------------------------------------------------
 Center     Atomic      Atomic             Coordinates (Angstroms)
 Number     Number       Type             X           Y           Z
 ---------------------------------------------------------------------
      1          6           0        1.992030   -2.498041   -0.758430
      2          6           0        0.970759   -1.544887   -0.829311
      3          6           0        1.205180   -0.222806   -0.439829
      4          6           0        2.478453    0.112957    0.017695
      5          6           0        3.516513   -0.813844    0.099919
      6          6           0        3.259414   -2.130126   -0.294858
      7          1           0        1.801118   -3.522813   -1.063046
      8          1           0       -0.014483   -1.827767   -1.188925
      9          1           0        0.432672    0.535255   -0.484464
     10          1           0        4.488372   -0.501839    0.462634
     11          1           0        4.054446   -2.868244   -0.238738
     12          7           0        2.738628    1.509516    0.432826
     13          8           0        3.869062    1.779982    0.832331
     14          8           0        1.807194    2.307228    0.350839
     15          6           0       -2.688562    0.741874   -0.156747
     16          6           0       -3.460804    2.060003   -0.221270
     17          6           0       -2.589079    3.234674   -0.666285
     18          1           0       -1.841475    0.853966    0.533778
     19          1           0       -2.259637    0.527486   -1.145411
     20          1           0       -3.889304    2.271144    0.766871
     21          1           0       -4.306264    1.944702   -0.911574
     22          1           0       -2.172653    3.049931   -1.661806
     23          1           0       -1.753324    3.378227    0.026177
     24          1           0       -3.161144    4.166911   -0.705484
     25          6           0       -3.546504   -0.441810    0.286598
     26          6           0       -2.774262   -1.759939    0.351121
     27          6           0       -3.645986   -2.934610    0.796137
     28          1           0       -3.975428   -0.227422    1.275262
     29          1           0       -4.393592   -0.553902   -0.403926
     30          1           0       -1.928803   -1.644638    1.041425
     31          1           0       -2.345763   -1.971080   -0.637020
     32          1           0       -4.481743   -3.078163    0.103674
     33          1           0       -4.062414   -2.749867    1.791657
     34          1           0       -3.073922   -3.866848    0.835336
 ---------------------------------------------------------------------

 SCF Done:  E(RHF) =  -669.535299338     A.U. after   15 cycles
 E2 =    -0.2093149929D+01 EUMP2 =    -0.67162844926680D+03

 The electronic state is 1-A.
 Alpha  occ. eigenvalues --  -20.60718 -20.60713 -15.85765 -11.31074 -11.27656
 Alpha  occ. eigenvalues --  -11.27567 -11.27381 -11.26672 -11.26581 -11.22420
 Alpha  occ. eigenvalues --  -11.21983 -11.21924 -11.21768 -11.21727 -11.20890
 Alpha  occ. eigenvalues --   -1.59791  -1.39346  -1.19246  -1.08965  -1.08654
 Alpha  occ. eigenvalues --   -1.04636  -1.03942  -0.96357  -0.95497  -0.87380
 Alpha  occ. eigenvalues --   -0.86040  -0.82339  -0.80058  -0.78852  -0.77333
 Alpha  occ. eigenvalues --   -0.71985  -0.71112  -0.70359  -0.65607  -0.64895
 Alpha  occ. eigenvalues --   -0.64640  -0.62012  -0.61310  -0.59781  -0.57981
 Alpha  occ. eigenvalues --   -0.55617  -0.55157  -0.53095  -0.52978  -0.52948
 Alpha  occ. eigenvalues --   -0.52515  -0.50295  -0.48750  -0.48741  -0.48289
 Alpha  occ. eigenvalues --   -0.47080  -0.46277  -0.46194  -0.44761  -0.44224
 Alpha  occ. eigenvalues --   -0.37236  -0.36221
 Alpha virt. eigenvalues --    0.05116   0.11369   0.16581   0.20111   0.22858
 Alpha virt. eigenvalues --    0.23322   0.24781   0.25951   0.27508   0.28259
 Alpha virt. eigenvalues --    0.29946   0.30170   0.31393   0.31520   0.32136

 Mulliken charges:
               1
     1  C   -0.172706
     2  C   -0.223088
     3  C   -0.180551
     4  C    0.158555
     5  C   -0.170858
     6  C   -0.218804
     7  H    0.225257
     8  H    0.230867
     9  H    0.284743
    10  H    0.275003
    11  H    0.222847
    12  N    0.488074
    13  O   -0.460622
    14  O   -0.461700
    15  C   -0.307246
    16  C   -0.299170
    17  C   -0.480552
    18  H    0.155453
    19  H    0.142585
    20  H    0.154344
    21  H    0.151522
    22  H    0.153698
    23  H    0.169139
    24  H    0.161576
    25  C   -0.296883
    26  C   -0.305949
    27  C   -0.475083
    28  H    0.154127
    29  H    0.151561
    30  H    0.156453
    31  H    0.142348
    32  H    0.156965
    33  H    0.159301
    34  H    0.158795
 Sum of Mulliken charges =  -0.00000

 Dipole moment (field-independent basis, Debye):
    X=             -1.0961    Y=             -4.7921    Z=             -1.3423  Tot=              5.0958
 Quadrupole moment (field-independent basis, Debye-Ang):
   XX=            -94.7220   YY=            -96.6483   ZZ=            -94.5325
   XY=            -14.3034   XZ=             -2.4395   YZ=             -0.0829

 Normal termination of Gaussian 16 at Thu May  6 09:24:50 2021.
