 Gaussian 16, Revision A.03,
 Gaussian 16:  EM64L-G16RevA.03 25-Dec-2016

 -------------
 #p 6-31g* mp2
 -------------

 ------------------------------------------------------
 Input file generated by CHIRIPA (05-May-2021 14:51:09)
 ------------------------------------------------------
 Symbolic Z-matrix:
 Charge =  0 Multiplicity = 1

                         Standard orientation:
 ---------------------------------------------------------------------
 Center     Atomic      Atomic             Coordinates (Angstroms)
 Number     Number       Type             X           Y           Z
 ---------------------------------------------------------------------
      1          6           0        4.214269   -0.071351    0.169766
      2          6           0        5.285167   -0.334445   -0.889452
      3          6           0        6.515026    0.558253   -0.721129
      4          1           0        3.912375    0.983912    0.122589
      5          1           0        4.648466   -0.227963    1.166933
      6          1           0        4.848701   -0.178728   -1.884372
      7          1           0        5.584409   -1.389249   -0.839876
      8          1           0        6.976686    0.397344    0.258452
      9          1           0        6.236798    1.614743   -0.791979
     10          1           0        7.267836    0.353467   -1.488722
     11          6           0        2.978589   -0.956107    0.014748
     12          6           0        1.907691   -0.693013    1.073967
     13          6           0        0.677832   -1.585711    0.905644
     14          1           0        2.544392   -0.799495   -0.982418
     15          1           0        3.280483   -2.011369    0.061925
     16          1           0        1.608449    0.361791    1.024391
     17          1           0        2.344157   -0.848730    2.068886
     18          1           0        0.956060   -2.642201    0.976493
     19          1           0        0.216172   -1.424802   -0.073937
     20          1           0       -0.074978   -1.380924    1.673236
     21          6           0       -3.159969    1.110762   -0.283272
     22          6           0       -2.003417    1.351615    0.687481
     23          6           0       -1.139315    2.549394    0.291943
     24          1           0       -2.756372    0.955945   -1.293265
     25          1           0       -3.783642    2.014174   -0.330979
     26          1           0       -1.382894    0.447533    0.734395
     27          1           0       -2.409804    1.505687    1.695314
     28          1           0       -1.739327    3.464703    0.263744
     29          1           0       -0.706583    2.400537   -0.702634
     30          1           0       -0.318586    2.703411    0.999433
     31          6           0       -4.032888   -0.083305    0.098758
     32          6           0       -5.189441   -0.324158   -0.871996
     33          6           0       -6.053543   -1.521935   -0.476458
     34          1           0       -3.409216   -0.986715    0.146465
     35          1           0       -4.436485    0.071513    1.108750
     36          1           0       -4.783054   -0.478229   -1.879829
     37          1           0       -5.809964    0.579926   -0.918910
     38          1           0       -6.486276   -1.373078    0.518120
     39          1           0       -5.453531   -2.437245   -0.448259
     40          1           0       -6.874272   -1.675953   -1.183947
 ---------------------------------------------------------------------

 SCF Done:  E(RHF) =  -470.732873214     A.U. after   11 cycles
 E2 =    -0.1583320171D+01 EUMP2 =    -0.47231619338472D+03

 The electronic state is 1-A.
 Alpha  occ. eigenvalues --  -11.21639 -11.21614 -11.21576 -11.21477 -11.21429
 Alpha  occ. eigenvalues --  -11.21368 -11.21365 -11.21306 -11.21134 -11.21079
 Alpha  occ. eigenvalues --  -11.21067 -11.21048  -1.08463  -1.08385  -1.03592
 Alpha  occ. eigenvalues --   -1.03469  -0.96032  -0.95942  -0.87062  -0.86948
 Alpha  occ. eigenvalues --   -0.79667  -0.79521  -0.78267  -0.78204  -0.65182
 Alpha  occ. eigenvalues --   -0.64953  -0.61180  -0.60721  -0.59484  -0.59217
 Alpha  occ. eigenvalues --   -0.57685  -0.57492  -0.55368  -0.55177  -0.52762
 Alpha  occ. eigenvalues --   -0.52624  -0.52454  -0.52362  -0.50066  -0.49814
 Alpha  occ. eigenvalues --   -0.47988  -0.47820  -0.46725  -0.46492  -0.45814
 Alpha  occ. eigenvalues --   -0.45750  -0.45726  -0.45609  -0.43802  -0.43731
 Alpha virt. eigenvalues --    0.20750   0.23127   0.23607   0.24950   0.26190
 Alpha virt. eigenvalues --    0.26452   0.26970   0.27205   0.28490   0.29282
 Alpha virt. eigenvalues --    0.30618   0.31427   0.31708   0.31777   0.32428

 Mulliken charges:
               1
     1  C   -0.298446
     2  C   -0.299671
     3  C   -0.475745
     4  H    0.149982
     5  H    0.149570
     6  H    0.151927
     7  H    0.151927
     8  H    0.155196
     9  H    0.155313
    10  H    0.160286
    11  C   -0.298206
    12  C   -0.303500
    13  C   -0.479998
    14  H    0.149470
    15  H    0.149752
    16  H    0.155895
    17  H    0.152330
    18  H    0.156830
    19  H    0.154673
    20  H    0.162528
    21  C   -0.297347
    22  C   -0.311481
    23  C   -0.475923
    24  H    0.148745
    25  H    0.149172
    26  H    0.166729
    27  H    0.150898
    28  H    0.155128
    29  H    0.154108
    30  H    0.160202
    31  C   -0.298884
    32  C   -0.299556
    33  C   -0.475723
    34  H    0.150164
    35  H    0.149469
    36  H    0.151776
    37  H    0.151858
    38  H    0.155105
    39  H    0.155323
    40  H    0.160126
 Sum of Mulliken charges =  -0.00000

 Dipole moment (field-independent basis, Debye):
    X=              0.0332    Y=             -0.0298    Z=              0.0173  Tot=              0.0479
 Quadrupole moment (field-independent basis, Debye-Ang):
   XX=            -85.7608   YY=            -85.0149   ZZ=            -84.1295
   XY=             -1.7607   XZ=              0.0402   YZ=              0.0303

 Normal termination of Gaussian 16 at Wed May  5 21:21:35 2021.
