 Gaussian 16, Revision A.03,
 Gaussian 16:  EM64L-G16RevA.03 25-Dec-2016

 -------------
 #p 6-31g* mp2
 -------------

 ------------------------------------------------------
 Input file generated by CHIRIPA (05-May-2021 14:53:16)
 ------------------------------------------------------
 Symbolic Z-matrix:
 Charge =  0 Multiplicity = 1

                         Standard orientation:
 ---------------------------------------------------------------------
 Center     Atomic      Atomic             Coordinates (Angstroms)
 Number     Number       Type             X           Y           Z
 ---------------------------------------------------------------------
      1          6           0       -4.325599   -0.438458    0.097935
      2          6           0       -5.075690    0.542987   -0.803237
      3          6           0       -6.519006    0.773200   -0.354197
      4          1           0       -4.863388   -1.396308    0.113775
      5          1           0       -4.333637   -0.058395    1.128897
      6          1           0       -5.065046    0.161871   -1.832437
      7          1           0       -4.535949    1.498552   -0.817084
      8          1           0       -6.546240    1.176344    0.663317
      9          1           0       -7.078344   -0.167931   -0.357805
     10          1           0       -7.036637    1.478021   -1.012336
     11          6           0       -2.881377   -0.678895   -0.338117
     12          6           0       -2.131285   -1.660341    0.563055
     13          6           0       -0.687970   -1.890554    0.114016
     14          1           0       -2.873338   -1.058958   -1.369079
     15          1           0       -2.343587    0.278955   -0.353956
     16          1           0       -2.671027   -2.615905    0.576903
     17          1           0       -2.141929   -1.279225    1.592255
     18          1           0       -0.128632   -0.949422    0.117624
     19          1           0       -0.660736   -2.293697   -0.903498
     20          1           0       -0.170338   -2.595375    0.772154
     21          6           0        4.581378   -1.110525   -0.830000
     22          6           0        3.858453   -1.475297    0.310545
     23          6           0        2.877547   -0.626000    0.831182
     24          6           0        2.644479    0.586024    0.183133
     25          6           0        3.348012    0.977670   -0.954824
     26          6           0        4.324302    0.112638   -1.457937
     27          1           0        5.341577   -1.776391   -1.227637
     28          1           0        4.055969   -2.424607    0.800284
     29          1           0        2.303117   -0.883498    1.712740
     30          1           0        3.128643    1.930465   -1.421169
     31          1           0        4.884187    0.398535   -2.343848
     32          7           0        1.608480    1.493466    0.725032
     33          8           0        1.422125    2.555793    0.135651
     34          8           0        1.002438    1.125209    1.728892
 ---------------------------------------------------------------------

 SCF Done:  E(RHF) =  -669.535641573     A.U. after   15 cycles
 E2 =    -0.2092425891D+01 EUMP2 =    -0.67162806746330D+03

 The electronic state is 1-A.
 Alpha  occ. eigenvalues --  -20.60930 -20.60917 -15.85940 -11.31210 -11.27793
 Alpha  occ. eigenvalues --  -11.27775 -11.27526 -11.26781 -11.26767 -11.21064
 Alpha  occ. eigenvalues --  -11.21054 -11.20822 -11.20744 -11.20707 -11.20606
 Alpha  occ. eigenvalues --   -1.59987  -1.39543  -1.19392  -1.08808  -1.07868
 Alpha  occ. eigenvalues --   -1.04781  -1.03026  -0.95661  -0.95493  -0.86542
 Alpha  occ. eigenvalues --   -0.86174  -0.82488  -0.79101  -0.77683  -0.77539
 Alpha  occ. eigenvalues --   -0.72171  -0.71324  -0.70506  -0.65052  -0.64790
 Alpha  occ. eigenvalues --   -0.64473  -0.62136  -0.60401  -0.58879  -0.57116
 Alpha  occ. eigenvalues --   -0.55301  -0.54786  -0.53143  -0.52879  -0.52206
 Alpha  occ. eigenvalues --   -0.51925  -0.49466  -0.48924  -0.48910  -0.47432
 Alpha  occ. eigenvalues --   -0.46133  -0.45266  -0.45148  -0.44797  -0.43284
 Alpha  occ. eigenvalues --   -0.37358  -0.36354
 Alpha virt. eigenvalues --    0.04972   0.11242   0.16445   0.21273   0.23425
 Alpha virt. eigenvalues --    0.24595   0.27069   0.27199   0.27951   0.28038
 Alpha virt. eigenvalues --    0.28821   0.31009   0.31770   0.31896   0.32352

 Mulliken charges:
               1
     1  C   -0.298338
     2  C   -0.300025
     3  C   -0.475546
     4  H    0.146693
     5  H    0.152316
     6  H    0.149678
     7  H    0.155548
     8  H    0.156008
     9  H    0.153350
    10  H    0.159112
    11  C   -0.300490
    12  C   -0.298160
    13  C   -0.476979
    14  H    0.145475
    15  H    0.158593
    16  H    0.147720
    17  H    0.158742
    18  H    0.159424
    19  H    0.151029
    20  H    0.150921
    21  C   -0.170229
    22  C   -0.218872
    23  C   -0.167965
    24  C    0.155760
    25  C   -0.170685
    26  C   -0.218834
    27  H    0.225761
    28  H    0.223608
    29  H    0.276461
    30  H    0.275531
    31  H    0.223465
    32  N    0.488590
    33  O   -0.458820
    34  O   -0.458842
 Sum of Mulliken charges =  -0.00000

 Dipole moment (field-independent basis, Debye):
    X=              3.7582    Y=             -3.0572    Z=             -1.8481  Tot=              5.1852
 Quadrupole moment (field-independent basis, Debye-Ang):
   XX=            -77.2051   YY=            -96.5708   ZZ=            -92.8640
   XY=             -5.5520   XZ=             -5.1642   YZ=             -4.1126

 Normal termination of Gaussian 16 at Thu May  6 13:53:21 2021.
