 Gaussian 16, Revision A.03,
 Gaussian 16:  EM64L-G16RevA.03 25-Dec-2016

 -------------
 #p 6-31g* mp2
 -------------

 ------------------------------------------------------
 Input file generated by CHIRIPA (05-May-2021 14:53:15)
 ------------------------------------------------------
 Symbolic Z-matrix:
 Charge =  0 Multiplicity = 1

                         Standard orientation:
 ---------------------------------------------------------------------
 Center     Atomic      Atomic             Coordinates (Angstroms)
 Number     Number       Type             X           Y           Z
 ---------------------------------------------------------------------
      1          6           0       -3.060768   -0.462358    0.332718
      2          6           0       -2.436225    0.018310    1.643019
      3          6           0       -0.978249   -0.415681    1.797134
      4          1           0       -2.995613   -1.557911    0.283069
      5          1           0       -2.471090   -0.075658   -0.509979
      6          1           0       -3.027710   -0.368040    2.482957
      7          1           0       -2.503047    1.112831    1.689642
      8          1           0       -0.369368   -0.017991    0.978777
      9          1           0       -0.897012   -1.507276    1.776600
     10          1           0       -0.551513   -0.061414    2.740665
     11          6           0       -4.518102   -0.036354    0.164119
     12          6           0       -5.142645   -0.517022   -1.146182
     13          6           0       -6.600621   -0.083031   -1.300297
     14          1           0       -5.107780   -0.423055    1.006816
     15          1           0       -4.583257    1.059198    0.213768
     16          1           0       -5.075823   -1.611544   -1.192805
     17          1           0       -4.551160   -0.130672   -1.986120
     18          1           0       -6.681858    1.008564   -1.279763
     19          1           0       -7.209502   -0.480721   -0.481940
     20          1           0       -7.027357   -0.437299   -2.243827
     21          6           0        4.076344   -2.051730   -0.465857
     22          6           0        4.065616   -1.142327   -1.528586
     23          6           0        3.450302    0.105282   -1.389274
     24          6           0        2.852620    0.411996   -0.167802
     25          6           0        2.846678   -0.472639    0.909543
     26          6           0        3.467914   -1.714579    0.747676
     27          1           0        4.556635   -3.018701   -0.582838
     28          1           0        4.537342   -1.401463   -2.472178
     29          1           0        3.427320    0.828216   -2.195658
     30          1           0        2.368141   -0.185864    1.838080
     31          1           0        3.474708   -2.418851    1.574718
     32          7           0        2.198080    1.729784   -0.008381
     33          8           0        1.678526    1.975974    1.077939
     34          8           0        2.216999    2.491521   -0.972763
 ---------------------------------------------------------------------

 SCF Done:  E(RHF) =  -669.535686774     A.U. after   15 cycles
 E2 =    -0.2091930510D+01 EUMP2 =    -0.67162761728412D+03

 The electronic state is 1-A.
 Alpha  occ. eigenvalues --  -20.60864 -20.60843 -15.85879 -11.31193 -11.27773
 Alpha  occ. eigenvalues --  -11.27740 -11.27510 -11.26773 -11.26753 -11.21329
 Alpha  occ. eigenvalues --  -11.21133 -11.21053 -11.20985 -11.20827 -11.20617
 Alpha  occ. eigenvalues --   -1.59921  -1.39476  -1.19370  -1.08778  -1.08068
 Alpha  occ. eigenvalues --   -1.04763  -1.03166  -0.95671  -0.95578  -0.86667
 Alpha  occ. eigenvalues --   -0.86157  -0.82451  -0.79252  -0.77891  -0.77492
 Alpha  occ. eigenvalues --   -0.72108  -0.71250  -0.70479  -0.65028  -0.64773
 Alpha  occ. eigenvalues --   -0.64682  -0.62113  -0.60547  -0.58997  -0.57240
 Alpha  occ. eigenvalues --   -0.55278  -0.54911  -0.53111  -0.52876  -0.52307
 Alpha  occ. eigenvalues --   -0.52054  -0.49612  -0.48864  -0.48842  -0.47569
 Alpha  occ. eigenvalues --   -0.46292  -0.45450  -0.45363  -0.44739  -0.43428
 Alpha  occ. eigenvalues --   -0.37351  -0.36349
 Alpha virt. eigenvalues --    0.05011   0.11235   0.16490   0.21291   0.23239
 Alpha virt. eigenvalues --    0.24575   0.26696   0.26991   0.27784   0.27850
 Alpha virt. eigenvalues --    0.28796   0.30590   0.31599   0.31709   0.32157

 Mulliken charges:
               1
     1  C   -0.298525
     2  C   -0.300196
     3  C   -0.475904
     4  H    0.146102
     5  H    0.151145
     6  H    0.148744
     7  H    0.159477
     8  H    0.159961
     9  H    0.145479
    10  H    0.160468
    11  C   -0.298382
    12  C   -0.299457
    13  C   -0.475589
    14  H    0.148261
    15  H    0.151998
    16  H    0.150085
    17  H    0.152490
    18  H    0.156110
    19  H    0.154445
    20  H    0.159153
    21  C   -0.170430
    22  C   -0.218750
    23  C   -0.170882
    24  C    0.156409
    25  C   -0.169570
    26  C   -0.219466
    27  H    0.225636
    28  H    0.223392
    29  H    0.275410
    30  H    0.279072
    31  H    0.223762
    32  N    0.487371
    33  O   -0.457962
    34  O   -0.459858
 Sum of Mulliken charges =  -0.00000

 Dipole moment (field-independent basis, Debye):
    X=              2.3966    Y=             -4.5233    Z=             -0.5596  Tot=              5.1494
 Quadrupole moment (field-independent basis, Debye-Ang):
   XX=            -83.2753   YY=            -98.3296   ZZ=            -90.1733
   XY=            -12.0231   XZ=             -3.7768   YZ=             -0.9020

 Normal termination of Gaussian 16 at Thu May  6 02:42:43 2021.
