 Gaussian 16, Revision A.03,
 Gaussian 16:  EM64L-G16RevA.03 25-Dec-2016

 -------------
 #p 6-31g* mp2
 -------------

 ------------------------------------------------------
 Input file generated by CHIRIPA (05-May-2021 14:51:10)
 ------------------------------------------------------
 Symbolic Z-matrix:
 Charge =  0 Multiplicity = 1

                         Standard orientation:
 ---------------------------------------------------------------------
 Center     Atomic      Atomic             Coordinates (Angstroms)
 Number     Number       Type             X           Y           Z
 ---------------------------------------------------------------------
      1          6           0       -3.699237    1.113093   -0.140562
      2          6           0       -2.212081    1.165393    0.211030
      3          6           0       -1.623907    2.571079    0.084961
      4          1           0       -3.840128    1.480426   -1.166310
      5          1           0       -4.248596    1.801699    0.516265
      6          1           0       -1.665874    0.475862   -0.445339
      7          1           0       -2.074691    0.797712    1.235994
      8          1           0       -2.142867    3.267071    0.751953
      9          1           0       -1.731726    2.943392   -0.938934
     10          1           0       -0.559888    2.585502    0.340917
     11          6           0       -4.301597   -0.285544   -0.019291
     12          6           0       -5.788753   -0.337844   -0.370883
     13          6           0       -6.376927   -1.743530   -0.244813
     14          1           0       -3.752238   -0.974150   -0.676118
     15          1           0       -4.160706   -0.652877    1.006458
     16          1           0       -5.926143    0.029837   -1.395847
     17          1           0       -6.334960    0.351687    0.285486
     18          1           0       -6.269108   -2.115843    0.779081
     19          1           0       -5.857967   -2.439522   -0.911805
     20          1           0       -7.440947   -1.757953   -0.500770
     21          6           0        3.326354   -0.211941    0.377138
     22          6           0        2.240924   -1.273299    0.194531
     23          6           0        0.898174   -0.854938    0.794357
     24          1           0        3.450621   -0.004292    1.448765
     25          1           0        2.993134    0.726853   -0.086572
     26          1           0        2.576677   -2.210202    0.657238
     27          1           0        2.119360   -1.478585   -0.876775
     28          1           0        0.537387    0.066519    0.326010
     29          1           0        0.997304   -0.669255    1.868739
     30          1           0        0.136745   -1.628228    0.652548
     31          6           0        4.674480   -0.615608   -0.217285
     32          6           0        5.759910    0.445750   -0.034678
     33          6           0        7.102660    0.027389   -0.634505
     34          1           0        5.007699   -1.554402    0.246424
     35          1           0        4.550212   -0.823258   -1.288912
     36          1           0        5.881474    0.651036    1.036628
     37          1           0        5.424156    1.382652   -0.497385
     38          1           0        7.003531   -0.158294   -1.708887
     39          1           0        7.463447   -0.894068   -0.166157
     40          1           0        7.864088    0.800679   -0.492695
 ---------------------------------------------------------------------

 SCF Done:  E(RHF) =  -470.732522402     A.U. after   11 cycles
 E2 =    -0.1583067860D+01 EUMP2 =    -0.47231559026213D+03

 The electronic state is 1-A.
 Alpha  occ. eigenvalues --  -11.21594 -11.21579 -11.21558 -11.21497 -11.21393
 Alpha  occ. eigenvalues --  -11.21364 -11.21334 -11.21301 -11.21065 -11.21062
 Alpha  occ. eigenvalues --  -11.21055 -11.20962  -1.08423  -1.08383  -1.03555
 Alpha  occ. eigenvalues --   -1.03453  -0.96010  -0.95903  -0.87001  -0.86946
 Alpha  occ. eigenvalues --   -0.79716  -0.79433  -0.78274  -0.78145  -0.65079
 Alpha  occ. eigenvalues --   -0.64996  -0.61025  -0.60812  -0.59351  -0.59317
 Alpha  occ. eigenvalues --   -0.57732  -0.57432  -0.55300  -0.55159  -0.52697
 Alpha  occ. eigenvalues --   -0.52630  -0.52416  -0.52305  -0.49984  -0.49826
 Alpha  occ. eigenvalues --   -0.47972  -0.47774  -0.46736  -0.46463  -0.45840
 Alpha  occ. eigenvalues --   -0.45732  -0.45679  -0.45528  -0.43786  -0.43709
 Alpha virt. eigenvalues --    0.21886   0.23072   0.23497   0.24919   0.26299
 Alpha virt. eigenvalues --    0.26649   0.26768   0.27149   0.27948   0.29167
 Alpha virt. eigenvalues --    0.30756   0.31238   0.31555   0.31816   0.32193

 Mulliken charges:
               1
     1  C   -0.297842
     2  C   -0.301883
     3  C   -0.478758
     4  H    0.149091
     5  H    0.149069
     6  H    0.154496
     7  H    0.154216
     8  H    0.155633
     9  H    0.154861
    10  H    0.160902
    11  C   -0.298215
    12  C   -0.299581
    13  C   -0.475674
    14  H    0.149265
    15  H    0.149703
    16  H    0.151828
    17  H    0.151908
    18  H    0.155157
    19  H    0.155072
    20  H    0.160170
    21  C   -0.298375
    22  C   -0.300114
    23  C   -0.480435
    24  H    0.149571
    25  H    0.149116
    26  H    0.151552
    27  H    0.151303
    28  H    0.163805
    29  H    0.154086
    30  H    0.160105
    31  C   -0.298190
    32  C   -0.299650
    33  C   -0.475694
    34  H    0.149559
    35  H    0.149564
    36  H    0.151914
    37  H    0.151913
    38  H    0.155148
    39  H    0.155169
    40  H    0.160235
 Sum of Mulliken charges =  -0.00000

 Dipole moment (field-independent basis, Debye):
    X=             -0.0096    Y=              0.0009    Z=              0.0097  Tot=              0.0137
 Quadrupole moment (field-independent basis, Debye-Ang):
   XX=            -86.2597   YY=            -85.5970   ZZ=            -83.1550
   XY=             -0.5001   XZ=              0.3873   YZ=             -0.2021

 Normal termination of Gaussian 16 at Wed May  5 19:48:20 2021.
