 Gaussian 16, Revision A.03,
 Gaussian 16:  EM64L-G16RevA.03 25-Dec-2016

 -------------
 #p 6-31g* mp2
 -------------

 ------------------------------------------------------
 Input file generated by CHIRIPA (05-May-2021 14:51:11)
 ------------------------------------------------------
 Symbolic Z-matrix:
 Charge =  0 Multiplicity = 1

                         Standard orientation:
 ---------------------------------------------------------------------
 Center     Atomic      Atomic             Coordinates (Angstroms)
 Number     Number       Type             X           Y           Z
 ---------------------------------------------------------------------
      1          6           0        2.040815    1.655447    0.343984
      2          6           0        0.633744    2.238679    0.209904
      3          6           0        0.435109    3.501955    1.048040
      4          1           0        2.238506    1.430726    1.401039
      5          1           0        2.775351    2.415343    0.043302
      6          1           0       -0.097984    1.477448    0.509432
      7          1           0        0.439308    2.461859   -0.846979
      8          1           0        1.142659    4.280514    0.745023
      9          1           0        0.602314    3.290509    2.109141
     10          1           0       -0.577554    3.902096    0.937312
     11          6           0        2.254823    0.392235   -0.488016
     12          6           0        3.661894   -0.190997   -0.353935
     13          6           0        3.860529   -1.454273   -1.192071
     14          1           0        1.520287   -0.367660   -0.187333
     15          1           0        2.057132    0.616956   -1.545070
     16          1           0        3.856330   -0.414177    0.702948
     17          1           0        4.393622    0.570234   -0.653463
     18          1           0        3.693324   -1.242827   -2.253172
     19          1           0        3.152979   -2.232832   -0.889054
     20          1           0        4.873192   -1.854414   -1.081343
     21          6           0       -2.728960   -0.542702    0.191237
     22          6           0       -3.272196    0.082291   -1.094167
     23          6           0       -4.434458    1.042491   -0.839302
     24          1           0       -3.541256   -1.075885    0.703912
     25          1           0       -2.402753    0.257258    0.870242
     26          1           0       -3.596002   -0.718657   -1.771107
     27          1           0       -2.458467    0.613885   -1.603939
     28          1           0       -4.120909    1.861505   -0.183936
     29          1           0       -5.264907    0.521391   -0.352055
     30          1           0       -4.807399    1.477818   -1.771647
     31          6           0       -1.566678   -1.504980   -0.047205
     32          6           0       -1.023442   -2.129973    1.238198
     33          6           0        0.138820   -3.090173    0.983333
     34          1           0       -1.892885   -2.304940   -0.726211
     35          1           0       -0.754382   -0.971797   -0.559881
     36          1           0       -1.837171   -2.661567    1.747970
     37          1           0       -0.699636   -1.329025    1.915139
     38          1           0        0.969269   -2.569073    0.496086
     39          1           0       -0.174729   -3.909187    0.327968
     40          1           0        0.511761   -3.525501    1.915678
 ---------------------------------------------------------------------

 SCF Done:  E(RHF) =  -470.732122444     A.U. after   11 cycles
 E2 =    -0.1585906741D+01 EUMP2 =    -0.47231802918491D+03

 The electronic state is 1-A.
 Alpha  occ. eigenvalues --  -11.21683 -11.21659 -11.21642 -11.21578 -11.21464
 Alpha  occ. eigenvalues --  -11.21398 -11.21392 -11.21326 -11.21145 -11.21125
 Alpha  occ. eigenvalues --  -11.21091 -11.21058  -1.08551  -1.08401  -1.03611
 Alpha  occ. eigenvalues --   -1.03538  -0.96040  -0.96002  -0.87061  -0.87015
 Alpha  occ. eigenvalues --   -0.79685  -0.79602  -0.78445  -0.78149  -0.65547
 Alpha  occ. eigenvalues --   -0.64726  -0.61163  -0.60821  -0.59434  -0.59340
 Alpha  occ. eigenvalues --   -0.57694  -0.57570  -0.55334  -0.55300  -0.52730
 Alpha  occ. eigenvalues --   -0.52698  -0.52501  -0.52394  -0.50032  -0.49913
 Alpha  occ. eigenvalues --   -0.48132  -0.47837  -0.46908  -0.46667  -0.46256
 Alpha  occ. eigenvalues --   -0.45811  -0.45681  -0.44985  -0.43841  -0.43793
 Alpha virt. eigenvalues --    0.19559   0.21613   0.23970   0.24588   0.25695
 Alpha virt. eigenvalues --    0.26018   0.27062   0.27491   0.28393   0.30066
 Alpha virt. eigenvalues --    0.31131   0.31217   0.31909   0.32037   0.32378

 Mulliken charges:
               1
     1  C   -0.297152
     2  C   -0.307748
     3  C   -0.475551
     4  H    0.149498
     5  H    0.149988
     6  H    0.159023
     7  H    0.152004
     8  H    0.155748
     9  H    0.155283
    10  H    0.160163
    11  C   -0.310508
    12  C   -0.298823
    13  C   -0.480195
    14  H    0.160778
    15  H    0.149457
    16  H    0.152049
    17  H    0.152274
    18  H    0.155378
    19  H    0.159032
    20  H    0.160746
    21  C   -0.300056
    22  C   -0.300462
    23  C   -0.475674
    24  H    0.149837
    25  H    0.150719
    26  H    0.151833
    27  H    0.153548
    28  H    0.155057
    29  H    0.155056
    30  H    0.160175
    31  C   -0.306257
    32  C   -0.300207
    33  C   -0.484486
    34  H    0.150033
    35  H    0.156936
    36  H    0.152860
    37  H    0.151002
    38  H    0.161893
    39  H    0.156085
    40  H    0.160666
 Sum of Mulliken charges =  -0.00000

 Dipole moment (field-independent basis, Debye):
    X=              0.0175    Y=              0.0004    Z=             -0.0130  Tot=              0.0218
 Quadrupole moment (field-independent basis, Debye-Ang):
   XX=            -85.0737   YY=            -85.2020   ZZ=            -84.4578
   XY=              1.5777   XZ=              0.0117   YZ=             -0.8798

 Normal termination of Gaussian 16 at Wed May  5 21:29:54 2021.
