 Gaussian 16, Revision A.03,
 Gaussian 16:  EM64L-G16RevA.03 25-Dec-2016

 -------------
 #p 6-31g* mp2
 -------------

 ------------------------------------------------------
 Input file generated by CHIRIPA (05-May-2021 14:55:25)
 ------------------------------------------------------
 Symbolic Z-matrix:
 Charge =  0 Multiplicity = 1

                         Standard orientation:
 ---------------------------------------------------------------------
 Center     Atomic      Atomic             Coordinates (Angstroms)
 Number     Number       Type             X           Y           Z
 ---------------------------------------------------------------------
      1          6           0       -5.221753   -0.862993    0.727419
      2          6           0       -5.076063    0.317634   -0.008390
      3          6           0       -3.830562    0.680192   -0.529761
      4          6           0       -2.747167   -0.165091   -0.295151
      5          6           0       -2.860373   -1.347849    0.433929
      6          6           0       -4.115393   -1.690508    0.945845
      7          1           0       -6.192985   -1.136908    1.128760
      8          1           0       -5.933528    0.962217   -0.179594
      9          1           0       -3.689584    1.588485   -1.102951
     10          1           0       -1.987192   -1.970121    0.588039
     11          1           0       -4.225583   -2.607997    1.516911
     12          7           0       -1.423572    0.208200   -0.842098
     13          8           0       -0.484649   -0.553618   -0.621429
     14          8           0       -1.350125    1.255534   -1.481108
     15          6           0        3.225446    0.748517    0.042911
     16          6           0        2.716284    1.660300    1.159779
     17          6           0        1.575717    2.571506    0.705243
     18          1           0        3.561733    1.366027   -0.801209
     19          1           0        2.392355    0.136611   -0.329814
     20          1           0        3.550392    2.269320    1.531229
     21          1           0        2.381349    1.040554    2.001414
     22          1           0        0.725477    1.978221    0.353521
     23          1           0        1.901164    3.213967   -0.119334
     24          1           0        1.227020    3.214720    1.519213
     25          6           0        4.365752   -0.168386    0.481907
     26          6           0        4.874913   -1.080167   -0.634960
     27          6           0        6.015481   -1.991375   -0.180424
     28          1           0        5.198843    0.443521    0.854634
     29          1           0        4.029465   -0.785896    1.326027
     30          1           0        5.209850   -0.460422   -1.476595
     31          1           0        4.040805   -1.689187   -1.006410
     32          1           0        5.690034   -2.633836    0.644153
     33          1           0        6.865720   -1.398089    0.171297
     34          1           0        6.364178   -2.634587   -0.994394
 ---------------------------------------------------------------------

 SCF Done:  E(RHF) =  -669.536550421     A.U. after   15 cycles
 E2 =    -0.2092334081D+01 EUMP2 =    -0.67162888450170D+03

 The electronic state is 1-A.
 Alpha  occ. eigenvalues --  -20.61152 -20.61147 -15.86142 -11.31403 -11.27955
 Alpha  occ. eigenvalues --  -11.27948 -11.27679 -11.26942 -11.26932 -11.20590
 Alpha  occ. eigenvalues --  -11.20293 -11.20250 -11.20224 -11.19747 -11.19507
 Alpha  occ. eigenvalues --   -1.60193  -1.39747  -1.19560  -1.08978  -1.07150
 Alpha  occ. eigenvalues --   -1.04944  -1.02320  -0.95829  -0.94758  -0.86348
 Alpha  occ. eigenvalues --   -0.85775  -0.82669  -0.78414  -0.77732  -0.76910
 Alpha  occ. eigenvalues --   -0.72357  -0.71518  -0.70668  -0.65216  -0.64947
 Alpha  occ. eigenvalues --   -0.63778  -0.62291  -0.59724  -0.58165  -0.56367
 Alpha  occ. eigenvalues --   -0.55452  -0.54044  -0.53276  -0.53034  -0.51518
 Alpha  occ. eigenvalues --   -0.51168  -0.49203  -0.49139  -0.48641  -0.46693
 Alpha  occ. eigenvalues --   -0.45440  -0.45166  -0.44491  -0.44228  -0.42551
 Alpha  occ. eigenvalues --   -0.37531  -0.36540
 Alpha virt. eigenvalues --    0.04740   0.11117   0.16249   0.21247   0.24104
 Alpha virt. eigenvalues --    0.25561   0.27184   0.27847   0.28177   0.28925
 Alpha virt. eigenvalues --    0.29167   0.30825   0.32366   0.32612   0.32805

 Mulliken charges:
               1
     1  C   -0.170208
     2  C   -0.218683
     3  C   -0.170251
     4  C    0.159533
     5  C   -0.170649
     6  C   -0.218639
     7  H    0.226453
     8  H    0.224298
     9  H    0.276419
    10  H    0.275803
    11  H    0.224209
    12  N    0.487038
    13  O   -0.460782
    14  O   -0.456046
    15  C   -0.308585
    16  C   -0.296652
    17  C   -0.480197
    18  H    0.146004
    19  H    0.176988
    20  H    0.144612
    21  H    0.145978
    22  H    0.171945
    23  H    0.153902
    24  H    0.148989
    25  C   -0.296835
    26  C   -0.299241
    27  C   -0.474830
    28  H    0.144423
    29  H    0.145844
    30  H    0.150776
    31  H    0.155133
    32  H    0.152801
    33  H    0.153017
    34  H    0.157433
 Sum of Mulliken charges =  -0.00000

 Dipole moment (field-independent basis, Debye):
    X=             -5.1420    Y=             -1.4143    Z=              1.7344  Tot=              5.6079
 Quadrupole moment (field-independent basis, Debye-Ang):
   XX=            -70.3382   YY=            -91.6931   ZZ=            -96.0779
   XY=              3.5246   XZ=             -3.9578   YZ=             -2.3657

 Normal termination of Gaussian 16 at Wed May  5 17:38:00 2021.
