 Gaussian 16, Revision A.03,
 Gaussian 16:  EM64L-G16RevA.03 25-Dec-2016

 -------------
 #p 6-31g* mp2
 -------------

 ------------------------------------------------------
 Input file generated by CHIRIPA (05-May-2021 14:55:19)
 ------------------------------------------------------
 Symbolic Z-matrix:
 Charge =  0 Multiplicity = 1

                         Standard orientation:
 ---------------------------------------------------------------------
 Center     Atomic      Atomic             Coordinates (Angstroms)
 Number     Number       Type             X           Y           Z
 ---------------------------------------------------------------------
      1          6           0        1.643335   -2.721156   -0.158550
      2          6           0        0.789137   -1.890907    0.574630
      3          6           0        1.082907   -0.533418    0.734231
      4          6           0        2.244517   -0.037306    0.144464
      5          6           0        3.115421   -0.838985   -0.591828
      6          6           0        2.801708   -2.193476   -0.738417
      7          1           0        1.407381   -3.774521   -0.277478
      8          1           0       -0.111164   -2.297970    1.026075
      9          1           0        0.439127    0.131849    1.296712
     10          1           0        4.005583   -0.404330   -1.030125
     11          1           0        3.466925   -2.835898   -1.308351
     12          7           0        2.566074    1.398220    0.306538
     13          8           0        3.595619    1.810918   -0.222947
     14          8           0        1.782477    2.083505    0.959988
     15          6           0       -2.652954   -0.382987   -0.299504
     16          6           0       -3.644783   -1.351101    0.346264
     17          6           0       -3.327068   -2.814908    0.039476
     18          1           0       -2.652675   -0.539505   -1.386908
     19          1           0       -1.638816   -0.620224    0.050693
     20          1           0       -4.656913   -1.111224   -0.003977
     21          1           0       -3.642841   -1.192128    1.432238
     22          1           0       -2.328673   -3.077056    0.404287
     23          1           0       -3.348506   -2.995693   -1.040087
     24          1           0       -4.048483   -3.489619    0.510841
     25          6           0       -2.957337    1.084165   -0.001941
     26          6           0       -1.965508    2.052278   -0.647709
     27          6           0       -2.283223    3.516086   -0.340921
     28          1           0       -3.971476    1.321402   -0.352138
     29          1           0       -2.957616    1.240682    1.085463
     30          1           0       -1.967450    1.893305   -1.733683
     31          1           0       -0.953379    1.812402   -0.297468
     32          1           0       -2.261785    3.696871    0.738643
     33          1           0       -3.281618    3.778234   -0.705733
     34          1           0       -1.561808    4.190797   -0.812285
 ---------------------------------------------------------------------

 SCF Done:  E(RHF) =  -669.533691703     A.U. after   15 cycles
 E2 =    -0.2095444390D+01 EUMP2 =    -0.67162913609294D+03

 The electronic state is 1-A.
 Alpha  occ. eigenvalues --  -20.60927 -20.60922 -15.85949 -11.31275 -11.27833
 Alpha  occ. eigenvalues --  -11.27827 -11.27555 -11.26838 -11.26812 -11.22135
 Alpha  occ. eigenvalues --  -11.21881 -11.21685 -11.21442 -11.21283 -11.20595
 Alpha  occ. eigenvalues --   -1.59980  -1.39537  -1.19450  -1.08848  -1.08652
 Alpha  occ. eigenvalues --   -1.04860  -1.03678  -0.96153  -0.95687  -0.87173
 Alpha  occ. eigenvalues --   -0.86251  -0.82550  -0.79797  -0.78456  -0.77530
 Alpha  occ. eigenvalues --   -0.72174  -0.71290  -0.70560  -0.65428  -0.65080
 Alpha  occ. eigenvalues --   -0.64882  -0.62169  -0.61060  -0.59569  -0.57723
 Alpha  occ. eigenvalues --   -0.55509  -0.55338  -0.53215  -0.52957  -0.52798
 Alpha  occ. eigenvalues --   -0.52558  -0.50145  -0.48949  -0.48924  -0.48069
 Alpha  occ. eigenvalues --   -0.46843  -0.45955  -0.45850  -0.44823  -0.43915
 Alpha  occ. eigenvalues --   -0.37413  -0.36325
 Alpha virt. eigenvalues --    0.04899   0.11055   0.16261   0.19453   0.22999
 Alpha virt. eigenvalues --    0.23584   0.25931   0.26608   0.27297   0.28707
 Alpha virt. eigenvalues --    0.29511   0.30671   0.31396   0.32069   0.32623

 Mulliken charges:
               1
     1  C   -0.173090
     2  C   -0.219509
     3  C   -0.170134
     4  C    0.157423
     5  C   -0.171247
     6  C   -0.218442
     7  H    0.226349
     8  H    0.230270
     9  H    0.276969
    10  H    0.275772
    11  H    0.223872
    12  N    0.488554
    13  O   -0.458710
    14  O   -0.460553
    15  C   -0.304802
    16  C   -0.300521
    17  C   -0.475762
    18  H    0.151714
    19  H    0.146945
    20  H    0.156027
    21  H    0.150565
    22  H    0.142197
    23  H    0.158603
    24  H    0.163336
    25  C   -0.299159
    26  C   -0.306984
    27  C   -0.473942
    28  H    0.150209
    29  H    0.148012
    30  H    0.149968
    31  H    0.161485
    32  H    0.157326
    33  H    0.151056
    34  H    0.166202
 Sum of Mulliken charges =  -0.00000

 Dipole moment (field-independent basis, Debye):
    X=             -1.0296    Y=             -4.9551    Z=             -0.6293  Tot=              5.0999
 Quadrupole moment (field-independent basis, Debye-Ang):
   XX=            -96.1305   YY=            -95.8618   ZZ=            -93.4223
   XY=            -11.9264   XZ=             -3.5085   YZ=             -0.3431

 Normal termination of Gaussian 16 at Wed May  5 17:20:32 2021.
