 Gaussian 16, Revision A.03,
 Gaussian 16:  EM64L-G16RevA.03 25-Dec-2016

 -------------
 #p 6-31g* mp2
 -------------

 ------------------------------------------------------
 Input file generated by CHIRIPA (05-May-2021 14:51:11)
 ------------------------------------------------------
 Symbolic Z-matrix:
 Charge =  0 Multiplicity = 1

                         Standard orientation:
 ---------------------------------------------------------------------
 Center     Atomic      Atomic             Coordinates (Angstroms)
 Number     Number       Type             X           Y           Z
 ---------------------------------------------------------------------
      1          6           0       -2.710517   -1.030273    0.564147
      2          6           0       -1.240012   -1.177488    0.956485
      3          6           0       -0.933006   -2.528791    1.602645
      4          1           0       -3.336649   -1.161975    1.457209
      5          1           0       -2.980593   -1.838994   -0.128979
      6          1           0       -0.972421   -0.367925    1.647584
      7          1           0       -0.617298   -1.045231    0.062420
      8          1           0       -1.172398   -3.347336    0.916149
      9          1           0       -1.529539   -2.666182    2.510319
     10          1           0        0.123660   -2.612649    1.875199
     11          6           0       -3.033048    0.315386   -0.083080
     12          6           0       -4.503552    0.462601   -0.475417
     13          6           0       -4.810558    1.813904   -1.121577
     14          1           0       -2.762971    1.124107    0.610047
     15          1           0       -2.406916    0.447088   -0.976141
     16          1           0       -5.126266    0.330343    0.418648
     17          1           0       -4.771143   -0.346962   -1.166516
     18          1           0       -4.214025    1.951294   -2.029252
     19          1           0       -4.571166    2.632448   -0.435081
     20          1           0       -5.867224    1.897761   -1.394132
     21          6           0        2.511456   -0.254039   -0.522821
     22          6           0        3.432134   -1.456381   -0.734276
     23          6           0        2.696705   -2.671909   -1.299457
     24          1           0        1.696211   -0.539455    0.156044
     25          1           0        2.042281    0.012506   -1.480016
     26          1           0        3.900494   -1.719715    0.222755
     27          1           0        4.245388   -1.168014   -1.412566
     28          1           0        2.243301   -2.432404   -2.266755
     29          1           0        1.896449   -2.987241   -0.622142
     30          1           0        3.373681   -3.519865   -1.442752
     31          6           0        3.232108    0.968927    0.041753
     32          6           0        2.311431    2.171268    0.253208
     33          6           0        3.046859    3.386796    0.818390
     34          1           0        3.701283    0.702381    0.998948
     35          1           0        4.047353    1.254342   -0.637112
     36          1           0        1.498176    1.882901    0.931499
     37          1           0        1.843069    2.434602   -0.703823
     38          1           0        3.847116    3.702128    0.141074
     39          1           0        3.500264    3.147292    1.785686
     40          1           0        2.369882    4.234752    0.961685
 ---------------------------------------------------------------------

 SCF Done:  E(RHF) =  -470.733099076     A.U. after   11 cycles
 E2 =    -0.1583577197D+01 EUMP2 =    -0.47231667627258D+03

 The electronic state is 1-A.
 Alpha  occ. eigenvalues --  -11.21599 -11.21598 -11.21584 -11.21572 -11.21406
 Alpha  occ. eigenvalues --  -11.21364 -11.21346 -11.21293 -11.21139 -11.21069
 Alpha  occ. eigenvalues --  -11.21064 -11.21054  -1.08455  -1.08390  -1.03562
 Alpha  occ. eigenvalues --   -1.03500  -0.96002  -0.95960  -0.87025  -0.86968
 Alpha  occ. eigenvalues --   -0.79656  -0.79551  -0.78381  -0.78086  -0.65122
 Alpha  occ. eigenvalues --   -0.64996  -0.61026  -0.60843  -0.59415  -0.59284
 Alpha  occ. eigenvalues --   -0.57641  -0.57547  -0.55297  -0.55241  -0.52704
 Alpha  occ. eigenvalues --   -0.52653  -0.52441  -0.52379  -0.50001  -0.49847
 Alpha  occ. eigenvalues --   -0.48015  -0.47862  -0.46750  -0.46552  -0.46088
 Alpha  occ. eigenvalues --   -0.45751  -0.45682  -0.45237  -0.43797  -0.43758
 Alpha virt. eigenvalues --    0.20635   0.23132   0.23341   0.24634   0.25975
 Alpha virt. eigenvalues --    0.26311   0.26709   0.27521   0.28262   0.29528
 Alpha virt. eigenvalues --    0.30691   0.31096   0.31630   0.31917   0.32477

 Mulliken charges:
               1
     1  C   -0.297725
     2  C   -0.305627
     3  C   -0.477750
     4  H    0.149412
     5  H    0.149681
     6  H    0.151188
     7  H    0.158328
     8  H    0.155972
     9  H    0.155716
    10  H    0.160082
    11  C   -0.298322
    12  C   -0.299681
    13  C   -0.475678
    14  H    0.149481
    15  H    0.150076
    16  H    0.151891
    17  H    0.151936
    18  H    0.155172
    19  H    0.155197
    20  H    0.160228
    21  C   -0.307261
    22  C   -0.298885
    23  C   -0.478795
    24  H    0.161073
    25  H    0.148169
    26  H    0.151479
    27  H    0.151787
    28  H    0.154629
    29  H    0.157994
    30  H    0.160400
    31  C   -0.297632
    32  C   -0.300177
    33  C   -0.475698
    34  H    0.149131
    35  H    0.149412
    36  H    0.152654
    37  H    0.151832
    38  H    0.155142
    39  H    0.155022
    40  H    0.160149
 Sum of Mulliken charges =  -0.00000

 Dipole moment (field-independent basis, Debye):
    X=             -0.0237    Y=             -0.0056    Z=              0.0009  Tot=              0.0243
 Quadrupole moment (field-independent basis, Debye-Ang):
   XX=            -85.1305   YY=            -86.3546   ZZ=            -83.4424
   XY=             -0.0346   XZ=             -0.6908   YZ=              0.1089

 Normal termination of Gaussian 16 at Wed May  5 15:15:02 2021.
