 Gaussian 16, Revision A.03,
 Gaussian 16:  EM64L-G16RevA.03 25-Dec-2016

 -------------
 #p 6-31g* mp2
 -------------

 ------------------------------------------------------
 Input file generated by CHIRIPA (05-May-2021 14:57:24)
 ------------------------------------------------------
 Symbolic Z-matrix:
 Charge =  0 Multiplicity = 1

                         Standard orientation:
 ---------------------------------------------------------------------
 Center     Atomic      Atomic             Coordinates (Angstroms)
 Number     Number       Type             X           Y           Z
 ---------------------------------------------------------------------
      1          6           0       -1.109970    0.789391   -0.479929
      2          6           0       -1.302250   -0.482481    0.069517
      3          6           0       -2.592756   -0.976958    0.280786
      4          6           0       -3.673158   -0.169118   -0.070519
      5          6           0       -3.514115    1.102216   -0.619797
      6          6           0       -2.214568    1.576293   -0.822230
      7          1           0       -0.103963    1.165589   -0.640616
      8          1           0       -0.446267   -1.095803    0.336302
      9          1           0       -2.770317   -1.957949    0.704517
     10          1           0       -4.387026    1.690380   -0.875739
     11          1           0       -2.068250    2.564427   -1.249109
     12          7           0       -5.044144   -0.681801    0.148464
     13          8           0       -5.979411    0.049516   -0.169480
     14          8           0       -5.157496   -1.805250    0.633902
     15          6           0        2.278194    2.165574    0.924523
     16          6           0        2.549154    2.004711   -0.438278
     17          6           0        3.196356    0.855813   -0.902726
     18          6           0        3.560219   -0.116557    0.027538
     19          6           0        3.304150    0.014610    1.391544
     20          6           0        2.655891    1.171763    1.833481
     21          1           0        1.775022    3.061271    1.276574
     22          1           0        2.256982    2.774872   -1.146466
     23          1           0        3.418386    0.705598   -1.952277
     24          1           0        3.607532   -0.770460    2.073482
     25          1           0        2.446745    1.293999    2.892425
     26          7           0        4.245942   -1.337213   -0.452238
     27          8           0        4.556264   -2.179236    0.387604
     28          8           0        4.460105   -1.428826   -1.659043
 ---------------------------------------------------------------------

 SCF Done:  E(RHF) =  -868.337091044     A.U. after   16 cycles
 E2 =    -0.2601569385D+01 EUMP2 =    -0.87093866042856D+03

 The electronic state is 1-A.
 Alpha  occ. eigenvalues --  -20.61730 -20.61725 -20.60895 -20.60887 -15.86794
 Alpha  occ. eigenvalues --  -15.85950 -11.32402 -11.31334 -11.29025 -11.28969
 Alpha  occ. eigenvalues --  -11.28758 -11.28060 -11.27967 -11.27943 -11.27893
 Alpha  occ. eigenvalues --  -11.27527 -11.26965 -11.26870  -1.60805  -1.59970
 Alpha  occ. eigenvalues --   -1.40350  -1.39522  -1.20622  -1.19512  -1.09959
 Alpha  occ. eigenvalues --   -1.08893  -1.06038  -1.04925  -0.96736  -0.95726
 Alpha  occ. eigenvalues --   -0.87406  -0.86317  -0.83549  -0.82565  -0.78561
 Alpha  occ. eigenvalues --   -0.77614  -0.72998  -0.72165  -0.72143  -0.71653
 Alpha  occ. eigenvalues --   -0.71295  -0.70634  -0.66234  -0.65991  -0.65158
 Alpha  occ. eigenvalues --   -0.64941  -0.63335  -0.62276  -0.56479  -0.55742
 Alpha  occ. eigenvalues --   -0.54085  -0.54042  -0.53250  -0.53010  -0.49778
 Alpha  occ. eigenvalues --   -0.49743  -0.48928  -0.48919  -0.45700  -0.44924
 Alpha  occ. eigenvalues --   -0.38629  -0.37676  -0.37426  -0.36542
 Alpha virt. eigenvalues --    0.03919   0.04960   0.09869   0.11107   0.15301
 Alpha virt. eigenvalues --    0.16484   0.20080   0.21593   0.25997   0.26998
 Alpha virt. eigenvalues --    0.27288   0.28771   0.29918   0.31233   0.31727

 Mulliken charges:
               1
     1  C   -0.177135
     2  C   -0.223879
     3  C   -0.170578
     4  C    0.157873
     5  C   -0.170307
     6  C   -0.223285
     7  H    0.234389
     8  H    0.225554
     9  H    0.276662
    10  H    0.275197
    11  H    0.218899
    12  N    0.487977
    13  O   -0.460756
    14  O   -0.459602
    15  C   -0.170781
    16  C   -0.236284
    17  C   -0.170092
    18  C    0.157008
    19  C   -0.172384
    20  C   -0.218107
    21  H    0.230615
    22  H    0.226073
    23  H    0.279967
    24  H    0.279998
    25  H    0.229418
    26  N    0.487805
    27  O   -0.457153
    28  O   -0.457093
 Sum of Mulliken charges =  -0.00000

 Dipole moment (field-independent basis, Debye):
    X=              2.7657    Y=              6.0162    Z=              1.0464  Tot=              6.7036
 Quadrupole moment (field-independent basis, Debye-Ang):
   XX=           -157.3749   YY=           -102.9060   ZZ=           -100.0181
   XY=              6.3658   XZ=              9.6671   YZ=             -3.5696

 Normal termination of Gaussian 16 at Fri May  7 01:54:29 2021.
