 Gaussian 16, Revision A.03,
 Gaussian 16:  EM64L-G16RevA.03 25-Dec-2016

 -------------
 #p 6-31g* mp2
 -------------

 ------------------------------------------------------
 Input file generated by CHIRIPA (05-May-2021 14:57:21)
 ------------------------------------------------------
 Symbolic Z-matrix:
 Charge =  0 Multiplicity = 1

                         Standard orientation:
 ---------------------------------------------------------------------
 Center     Atomic      Atomic             Coordinates (Angstroms)
 Number     Number       Type             X           Y           Z
 ---------------------------------------------------------------------
      1          6           0       -1.885392   -0.134467    0.579738
      2          6           0       -2.571516    1.082815    0.516652
      3          6           0       -3.924322    1.117970    0.165615
      4          6           0       -4.562770   -0.088532   -0.117276
      5          6           0       -3.906555   -1.317247   -0.063122
      6          6           0       -2.553923   -1.328508    0.290160
      7          1           0       -0.834568   -0.152496    0.853304
      8          1           0       -2.054882    2.011680    0.741023
      9          1           0       -4.479662    2.046314    0.109100
     10          1           0       -4.448485   -2.226765   -0.292265
     11          1           0       -2.023603   -2.275336    0.338348
     12          7           0       -5.994833   -0.063963   -0.490092
     13          8           0       -6.534575   -1.140757   -0.734694
     14          8           0       -6.550425    1.031624   -0.530644
     15          6           0        2.194640    0.752386    1.232563
     16          6           0        2.765484    1.609087    0.285610
     17          6           0        3.946648    1.253802   -0.372549
     18          6           0        4.532872    0.028795   -0.057930
     19          6           0        3.988431   -0.846317    0.880715
     20          6           0        2.806856   -0.470427    1.526576
     21          1           0        1.276925    1.036384    1.739060
     22          1           0        2.292225    2.559358    0.055271
     23          1           0        4.410020    1.898009   -1.109909
     24          1           0        4.483337   -1.787073    1.089192
     25          1           0        2.365780   -1.137746    2.261546
     26          7           0        5.783536   -0.358237   -0.748184
     27          8           0        6.280466   -1.442976   -0.453161
     28          8           0        6.243193    0.430475   -1.571158
 ---------------------------------------------------------------------

 SCF Done:  E(RHF) =  -868.336503373     A.U. after   16 cycles
 E2 =    -0.2600068362D+01 EUMP2 =    -0.87093657173491D+03

 The electronic state is 1-A.
 Alpha  occ. eigenvalues --  -20.61454 -20.61448 -20.61225 -20.61219 -15.86512
 Alpha  occ. eigenvalues --  -15.86283 -11.32086 -11.31773 -11.28651 -11.28631
 Alpha  occ. eigenvalues --  -11.28566 -11.28375 -11.28337 -11.28203 -11.27796
 Alpha  occ. eigenvalues --  -11.27759 -11.27483 -11.27401  -1.60523  -1.60297
 Alpha  occ. eigenvalues --   -1.40070  -1.39847  -1.20282  -1.19971  -1.09676
 Alpha  occ. eigenvalues --   -1.09361  -1.05698  -1.05392  -0.96474  -0.96167
 Alpha  occ. eigenvalues --   -0.87106  -0.86799  -0.83286  -0.82992  -0.78263
 Alpha  occ. eigenvalues --   -0.78005  -0.72727  -0.72500  -0.71847  -0.71626
 Alpha  occ. eigenvalues --   -0.71621  -0.70985  -0.65943  -0.65716  -0.65634
 Alpha  occ. eigenvalues --   -0.65415  -0.63026  -0.62736  -0.56494  -0.55783
 Alpha  occ. eigenvalues --   -0.54011  -0.53798  -0.53713  -0.53499  -0.49503
 Alpha  occ. eigenvalues --   -0.49468  -0.49270  -0.49245  -0.45429  -0.45224
 Alpha  occ. eigenvalues --   -0.38327  -0.37979  -0.37285  -0.36988
 Alpha virt. eigenvalues --    0.04193   0.04535   0.10322   0.10655   0.15441
 Alpha virt. eigenvalues --    0.15973   0.18483   0.21908   0.25363   0.25915
 Alpha virt. eigenvalues --    0.27123   0.29365   0.29971   0.30786   0.32208

 Mulliken charges:
               1
     1  C   -0.173064
     2  C   -0.219116
     3  C   -0.169859
     4  C    0.158984
     5  C   -0.169745
     6  C   -0.219028
     7  H    0.220753
     8  H    0.217991
     9  H    0.276983
    10  H    0.277740
    11  H    0.224965
    12  N    0.487954
    13  O   -0.458581
    14  O   -0.459267
    15  C   -0.176196
    16  C   -0.217277
    17  C   -0.169920
    18  C    0.160306
    19  C   -0.169912
    20  C   -0.220026
    21  H    0.218915
    22  H    0.224508
    23  H    0.278849
    24  H    0.278311
    25  H    0.223677
    26  N    0.487834
    27  O   -0.458148
    28  O   -0.457629
 Sum of Mulliken charges =  -0.00000

 Dipole moment (field-independent basis, Debye):
    X=              0.7797    Y=              1.2161    Z=              3.6122  Tot=              3.8904
 Quadrupole moment (field-independent basis, Debye-Ang):
   XX=           -190.0682   YY=            -96.0319   ZZ=           -105.5862
   XY=              6.0361   XZ=              4.6954   YZ=             -2.2476

 Normal termination of Gaussian 16 at Wed May  5 22:34:06 2021.
