 Gaussian 16, Revision A.03,
 Gaussian 16:  EM64L-G16RevA.03 25-Dec-2016

 -------------
 #p 6-31g* mp2
 -------------

 ------------------------------------------------------
 Input file generated by CHIRIPA (05-May-2021 14:53:14)
 ------------------------------------------------------
 Symbolic Z-matrix:
 Charge =  0 Multiplicity = 1

                         Standard orientation:
 ---------------------------------------------------------------------
 Center     Atomic      Atomic             Coordinates (Angstroms)
 Number     Number       Type             X           Y           Z
 ---------------------------------------------------------------------
      1          6           0        3.699541   -0.662324   -0.403484
      2          6           0        2.327409    0.000362   -0.276659
      3          6           0        1.224111   -0.784061   -0.987440
      4          1           0        3.951035   -0.769353   -1.467552
      5          1           0        3.647355   -1.679363    0.009195
      6          1           0        2.382523    1.016342   -0.688196
      7          1           0        2.079237    0.105999    0.787234
      8          1           0        1.140083   -1.793403   -0.571786
      9          1           0        1.445093   -0.877888   -2.055600
     10          1           0        0.251696   -0.292550   -0.884065
     11          6           0        4.812873    0.110073    0.301941
     12          6           0        6.185005   -0.552613    0.175115
     13          6           0        7.288302    0.231809    0.885897
     14          1           0        4.865059    1.127111   -0.110738
     15          1           0        4.561379    0.217101    1.366009
     16          1           0        6.433177   -0.658251   -0.888777
     17          1           0        6.129891   -1.568593    0.586653
     18          1           0        7.067321    0.325637    1.954056
     19          1           0        7.372331    1.241152    0.470243
     20          1           0        8.260718   -0.259701    0.782522
     21          6           0       -4.656060   -1.851275    0.607250
     22          6           0       -3.933688   -1.790422   -0.588994
     23          6           0       -3.192758   -0.650208   -0.913776
     24          6           0       -3.196495    0.415553   -0.015206
     25          6           0       -3.906015    0.385176    1.184356
     26          6           0       -4.639946   -0.765196    1.488553
     27          1           0       -5.228914   -2.740966    0.851552
     28          1           0       -3.944372   -2.632375   -1.275321
     29          1           0       -2.624524   -0.576405   -1.833059
     30          1           0       -3.876075    1.240386    1.848537
     31          1           0       -5.200007   -0.809658    2.418284
     32          7           0       -2.415810    1.628024   -0.348143
     33          8           0       -2.435388    2.553528    0.460370
     34          8           0       -1.799114    1.629894   -1.411308
 ---------------------------------------------------------------------

 SCF Done:  E(RHF) =  -669.536217511     A.U. after   15 cycles
 E2 =    -0.2091341731D+01 EUMP2 =    -0.67162755924231D+03

 The electronic state is 1-A.
 Alpha  occ. eigenvalues --  -20.60935 -20.60930 -15.85946 -11.31252 -11.27816
 Alpha  occ. eigenvalues --  -11.27805 -11.27552 -11.26822 -11.26808 -11.21281
 Alpha  occ. eigenvalues --  -11.20996 -11.20971 -11.20897 -11.20785 -11.20452
 Alpha  occ. eigenvalues --   -1.59987  -1.39545  -1.19421  -1.08830  -1.07985
 Alpha  occ. eigenvalues --   -1.04813  -1.03070  -0.95678  -0.95529  -0.86560
 Alpha  occ. eigenvalues --   -0.86215  -0.82507  -0.79143  -0.77791  -0.77562
 Alpha  occ. eigenvalues --   -0.72173  -0.71303  -0.70530  -0.65078  -0.64818
 Alpha  occ. eigenvalues --   -0.64618  -0.62163  -0.60470  -0.58894  -0.57128
 Alpha  occ. eigenvalues --   -0.55322  -0.54832  -0.53147  -0.52910  -0.52222
 Alpha  occ. eigenvalues --   -0.51965  -0.49492  -0.48938  -0.48929  -0.47464
 Alpha  occ. eigenvalues --   -0.46177  -0.45342  -0.45255  -0.44938  -0.43282
 Alpha  occ. eigenvalues --   -0.37399  -0.36407
 Alpha virt. eigenvalues --    0.04947   0.11181   0.16420   0.21328   0.23293
 Alpha virt. eigenvalues --    0.24707   0.27066   0.27116   0.27831   0.27954
 Alpha virt. eigenvalues --    0.28698   0.30477   0.31716   0.31838   0.32283

 Mulliken charges:
               1
     1  C   -0.298030
     2  C   -0.298803
     3  C   -0.481970
     4  H    0.148838
     5  H    0.146375
     6  H    0.159468
     7  H    0.150126
     8  H    0.147017
     9  H    0.153656
    10  H    0.168737
    11  C   -0.298129
    12  C   -0.299254
    13  C   -0.475497
    14  H    0.151184
    15  H    0.149098
    16  H    0.151496
    17  H    0.150410
    18  H    0.154745
    19  H    0.155739
    20  H    0.158981
    21  C   -0.170566
    22  C   -0.218649
    23  C   -0.171020
    24  C    0.158349
    25  C   -0.170857
    26  C   -0.218573
    27  H    0.225860
    28  H    0.224028
    29  H    0.276938
    30  H    0.275646
    31  H    0.223641
    32  N    0.487770
    33  O   -0.458334
    34  O   -0.458420
 Sum of Mulliken charges =  -0.00000

 Dipole moment (field-independent basis, Debye):
    X=             -2.9200    Y=             -4.1525    Z=              1.1602  Tot=              5.2073
 Quadrupole moment (field-independent basis, Debye-Ang):
   XX=            -78.5008   YY=            -97.9472   ZZ=            -90.7909
   XY=             12.0460   XZ=             -5.9152   YZ=              1.9194

 Normal termination of Gaussian 16 at Thu May  6 02:39:12 2021.
