 Gaussian 16, Revision A.03,
 Gaussian 16:  EM64L-G16RevA.03 25-Dec-2016

 -------------
 #p 6-31g* mp2
 -------------

 ------------------------------------------------------
 Input file generated by CHIRIPA (05-May-2021 14:55:24)
 ------------------------------------------------------
 Symbolic Z-matrix:
 Charge =  0 Multiplicity = 1

                         Standard orientation:
 ---------------------------------------------------------------------
 Center     Atomic      Atomic             Coordinates (Angstroms)
 Number     Number       Type             X           Y           Z
 ---------------------------------------------------------------------
      1          6           0       -1.987147    1.682579    1.641086
      2          6           0       -1.047808    0.699530    1.969379
      3          6           0       -0.990790   -0.496982    1.248508
      4          6           0       -1.892246   -0.678056    0.200710
      5          6           0       -2.839592    0.282369   -0.150584
      6          6           0       -2.878470    1.471234    0.584015
      7          1           0       -2.024394    2.609089    2.206408
      8          1           0       -0.354355    0.860935    2.789816
      9          1           0       -0.273697   -1.274801    1.481301
     10          1           0       -3.517792    0.092728   -0.973688
     11          1           0       -3.609033    2.232925    0.326819
     12          7           0       -1.841486   -1.940702   -0.569711
     13          8           0       -2.646703   -2.075961   -1.488388
     14          8           0       -0.997445   -2.771196   -0.240302
     15          6           0        2.701440   -0.111582   -0.367431
     16          6           0        3.919123   -0.235485    0.549021
     17          6           0        4.445061   -1.668099    0.642828
     18          1           0        1.904888   -0.772779    0.000361
     19          1           0        2.968187   -0.471667   -1.370715
     20          1           0        3.650556    0.126017    1.549923
     21          1           0        4.712799    0.426227    0.179115
     22          1           0        4.740052   -2.035657   -0.345344
     23          1           0        3.671773   -2.337573    1.033252
     24          1           0        5.315543   -1.733774    1.302984
     25          6           0        2.164127    1.314673   -0.471443
     26          6           0        0.946444    1.438575   -1.387895
     27          6           0        0.420506    2.871189   -1.481701
     28          1           0        1.897380    1.674757    0.531842
     29          1           0        2.960678    1.975869   -0.839235
     30          1           0        0.152767    0.776863   -1.017989
     31          1           0        1.215011    1.077073   -2.388796
     32          1           0        1.193794    3.540663   -1.872126
     33          1           0        0.125515    3.238747   -0.493530
     34          1           0       -0.449976    2.936864   -2.141858
 ---------------------------------------------------------------------

 SCF Done:  E(RHF) =  -669.534090853     A.U. after   15 cycles
 E2 =    -0.2096489190D+01 EUMP2 =    -0.67163058004311D+03

 The electronic state is 1-A.
 Alpha  occ. eigenvalues --  -20.60888 -20.60881 -15.85933 -11.31307 -11.27915
 Alpha  occ. eigenvalues --  -11.27899 -11.27683 -11.26956 -11.26945 -11.21681
 Alpha  occ. eigenvalues --  -11.21481 -11.21425 -11.21347 -11.21170 -11.21022
 Alpha  occ. eigenvalues --   -1.59956  -1.39509  -1.19550  -1.08918  -1.08455
 Alpha  occ. eigenvalues --   -1.04941  -1.03543  -0.96007  -0.95742  -0.87021
 Alpha  occ. eigenvalues --   -0.86332  -0.82569  -0.79620  -0.78273  -0.77609
 Alpha  occ. eigenvalues --   -0.72153  -0.71291  -0.70635  -0.65193  -0.65150
 Alpha  occ. eigenvalues --   -0.64927  -0.62279  -0.61022  -0.59381  -0.57615
 Alpha  occ. eigenvalues --   -0.55465  -0.55303  -0.53262  -0.53028  -0.52672
 Alpha  occ. eigenvalues --   -0.52404  -0.49951  -0.48916  -0.48908  -0.47898
 Alpha  occ. eigenvalues --   -0.46656  -0.45784  -0.45757  -0.44873  -0.43803
 Alpha  occ. eigenvalues --   -0.37418  -0.36500
 Alpha virt. eigenvalues --    0.04869   0.10992   0.16310   0.20472   0.23076
 Alpha virt. eigenvalues --    0.23915   0.25905   0.26602   0.27563   0.28174
 Alpha virt. eigenvalues --    0.28994   0.30617   0.31279   0.31684   0.31849

 Mulliken charges:
               1
     1  C   -0.171595
     2  C   -0.214103
     3  C   -0.175285
     4  C    0.159192
     5  C   -0.172771
     6  C   -0.214263
     7  H    0.226864
     8  H    0.224594
     9  H    0.276117
    10  H    0.276467
    11  H    0.224794
    12  N    0.489311
    13  O   -0.459835
    14  O   -0.460870
    15  C   -0.302526
    16  C   -0.299138
    17  C   -0.475587
    18  H    0.151202
    19  H    0.154291
    20  H    0.145032
    21  H    0.152370
    22  H    0.158293
    23  H    0.156824
    24  H    0.159091
    25  C   -0.296611
    26  C   -0.305255
    27  C   -0.473350
    28  H    0.141698
    29  H    0.149314
    30  H    0.160848
    31  H    0.153940
    32  H    0.153831
    33  H    0.149179
    34  H    0.157938
 Sum of Mulliken charges =  -0.00000

 Dipole moment (field-independent basis, Debye):
    X=             -0.3163    Y=              4.3353    Z=              2.6907  Tot=              5.1122
 Quadrupole moment (field-independent basis, Debye-Ang):
   XX=            -91.2556   YY=           -102.1125   ZZ=            -91.9204
   XY=             -9.5688   XZ=             -3.5736   YZ=             -1.7219

 Normal termination of Gaussian 16 at Wed May  5 16:06:34 2021.
