 Gaussian 16, Revision A.03,
 Gaussian 16:  EM64L-G16RevA.03 25-Dec-2016

 -------------
 #p 6-31g* mp2
 -------------

 ------------------------------------------------------
 Input file generated by CHIRIPA (05-May-2021 14:53:14)
 ------------------------------------------------------
 Symbolic Z-matrix:
 Charge =  0 Multiplicity = 1

                         Standard orientation:
 ---------------------------------------------------------------------
 Center     Atomic      Atomic             Coordinates (Angstroms)
 Number     Number       Type             X           Y           Z
 ---------------------------------------------------------------------
      1          6           0       -4.053932   -0.103815   -0.353912
      2          6           0       -3.647931   -1.576914   -0.409826
      3          6           0       -4.818706   -2.500361   -0.747950
      4          1           0       -4.849889    0.022487    0.392710
      5          1           0       -4.484332    0.187693   -1.321990
      6          1           0       -3.217155   -1.865188    0.557617
      7          1           0       -2.852715   -1.699692   -1.156265
      8          1           0       -5.245061   -2.240876   -1.722367
      9          1           0       -5.611573   -2.407313    0.001253
     10          1           0       -4.506117   -3.548664   -0.782707
     11          6           0       -2.894287    0.831827   -0.016977
     12          6           0       -3.300287    2.304927    0.038937
     13          6           0       -2.129513    3.228373    0.377061
     14          1           0       -2.463887    0.540320    0.951101
     15          1           0       -2.098329    0.705526   -0.763599
     16          1           0       -4.095504    2.427704    0.785376
     17          1           0       -3.731063    2.593200   -0.928507
     18          1           0       -1.336646    3.135325   -0.372142
     19          1           0       -1.703157    2.968888    1.351478
     20          1           0       -2.442101    4.276677    0.411818
     21          6           0        0.583551   -1.111125    1.213977
     22          6           0        1.633769   -2.001271    0.966586
     23          6           0        2.818851   -1.554278    0.374701
     24          6           0        2.920126   -0.204454    0.041522
     25          6           0        1.891536    0.706944    0.275290
     26          6           0        0.715553    0.237763    0.868149
     27          1           0       -0.333515   -1.466978    1.674145
     28          1           0        1.534051   -3.049380    1.234107
     29          1           0        3.647573   -2.221760    0.171961
     30          1           0        2.020412    1.746008   -0.002477
     31          1           0       -0.098417    0.931330    1.059101
     32          7           0        4.169903    0.280504   -0.585595
     33          8           0        4.234243    1.474549   -0.869766
     34          8           0        5.061472   -0.542616   -0.781084
 ---------------------------------------------------------------------

 SCF Done:  E(RHF) =  -669.534816235     A.U. after   15 cycles
 E2 =    -0.2093073397D+01 EUMP2 =    -0.67162788963219D+03

 The electronic state is 1-A.
 Alpha  occ. eigenvalues --  -20.60678 -20.60673 -15.85728 -11.31065 -11.27629
 Alpha  occ. eigenvalues --  -11.27596 -11.27340 -11.26649 -11.26513 -11.22578
 Alpha  occ. eigenvalues --  -11.22517 -11.22494 -11.22280 -11.22163 -11.21797
 Alpha  occ. eigenvalues --   -1.59754  -1.39308  -1.19225  -1.09432  -1.08622
 Alpha  occ. eigenvalues --   -1.04634  -1.04466  -0.96932  -0.95468  -0.87948
 Alpha  occ. eigenvalues --   -0.86031  -0.82305  -0.80550  -0.79303  -0.77331
 Alpha  occ. eigenvalues --   -0.71948  -0.71077  -0.70336  -0.66058  -0.64871
 Alpha  occ. eigenvalues --   -0.64630  -0.62025  -0.61842  -0.60269  -0.58557
 Alpha  occ. eigenvalues --   -0.56222  -0.55119  -0.53594  -0.53391  -0.52947
 Alpha  occ. eigenvalues --   -0.52734  -0.50870  -0.48877  -0.48706  -0.48656
 Alpha  occ. eigenvalues --   -0.47572  -0.46740  -0.46688  -0.44733  -0.44721
 Alpha  occ. eigenvalues --   -0.37191  -0.36210
 Alpha virt. eigenvalues --    0.05160   0.11375   0.16603   0.19450   0.22086
 Alpha virt. eigenvalues --    0.22833   0.24730   0.26016   0.26213   0.28780
 Alpha virt. eigenvalues --    0.29120   0.30162   0.31078   0.31525   0.31821

 Mulliken charges:
               1
     1  C   -0.298196
     2  C   -0.300667
     3  C   -0.476197
     4  H    0.151651
     5  H    0.154112
     6  H    0.144090
     7  H    0.155708
     8  H    0.158334
     9  H    0.156454
    10  H    0.161490
    11  C   -0.304628
    12  C   -0.298969
    13  C   -0.482738
    14  H    0.138425
    15  H    0.155972
    16  H    0.154930
    17  H    0.157313
    18  H    0.156154
    19  H    0.150313
    20  H    0.168572
    21  C   -0.174461
    22  C   -0.218642
    23  C   -0.171699
    24  C    0.158948
    25  C   -0.175673
    26  C   -0.223743
    27  H    0.226321
    28  H    0.222761
    29  H    0.274967
    30  H    0.275259
    31  H    0.237467
    32  N    0.488028
    33  O   -0.460751
    34  O   -0.460904
 Sum of Mulliken charges =  -0.00000

 Dipole moment (field-independent basis, Debye):
    X=             -4.6985    Y=             -1.6243    Z=              2.0739  Tot=              5.3866
 Quadrupole moment (field-independent basis, Debye-Ang):
   XX=           -120.1259   YY=            -90.0184   ZZ=            -94.4644
   XY=             -6.9392   XZ=              6.4056   YZ=             -1.0505

 Normal termination of Gaussian 16 at Thu May  6 15:26:32 2021.
