 Gaussian 16, Revision A.03,
 Gaussian 16:  EM64L-G16RevA.03 25-Dec-2016

 -------------
 #p 6-31g* mp2
 -------------

 ------------------------------------------------------
 Input file generated by CHIRIPA (05-May-2021 14:55:25)
 ------------------------------------------------------
 Symbolic Z-matrix:
 Charge =  0 Multiplicity = 1

                         Standard orientation:
 ---------------------------------------------------------------------
 Center     Atomic      Atomic             Coordinates (Angstroms)
 Number     Number       Type             X           Y           Z
 ---------------------------------------------------------------------
      1          6           0       -2.012516    2.290396   -0.942220
      2          6           0       -0.993137    1.406370   -0.573593
      3          6           0       -1.299948    0.133053   -0.084634
      4          6           0       -2.642893   -0.224965    0.023117
      5          6           0       -3.681016    0.633335   -0.335927
      6          6           0       -3.350843    1.901742   -0.822421
      7          1           0       -1.765104    3.277632   -1.321097
      8          1           0        0.047107    1.705502   -0.665557
      9          1           0       -0.530623   -0.571163    0.208004
     10          1           0       -4.708688    0.306681   -0.232941
     11          1           0       -4.144586    2.586209   -1.107940
     12          7           0       -2.980066   -1.570369    0.539451
     13          8           0       -4.171050   -1.861753    0.624829
     14          8           0       -2.046974   -2.308038    0.849000
     15          6           0        3.196512   -0.744926    0.174531
     16          6           0        3.861831   -1.602497   -0.902459
     17          6           0        3.622221   -3.098733   -0.698361
     18          1           0        3.575009   -1.047178    1.160598
     19          1           0        2.116446   -0.946998    0.178927
     20          1           0        4.940128   -1.397845   -0.905755
     21          1           0        3.481848   -1.298038   -1.886092
     22          1           0        2.550840   -3.323283   -0.716355
     23          1           0        4.017405   -3.423656    0.269552
     24          1           0        4.106587   -3.693090   -1.479379
     25          6           0        3.427035    0.753186   -0.015859
     26          6           0        2.761716    1.610756    1.061131
     27          6           0        3.001326    3.106992    0.857033
     28          1           0        4.507101    0.955257   -0.020255
     29          1           0        3.048537    1.055438   -1.001926
     30          1           0        3.141698    1.306297    2.044764
     31          1           0        1.683419    1.406104    1.064427
     32          1           0        2.606141    3.431916   -0.110880
     33          1           0        4.072706    3.331541    0.875028
     34          1           0        2.516960    3.701349    1.638051
 ---------------------------------------------------------------------

 SCF Done:  E(RHF) =  -669.535225119     A.U. after   15 cycles
 E2 =    -0.2092575733D+01 EUMP2 =    -0.67162780085234D+03

 The electronic state is 1-A.
 Alpha  occ. eigenvalues --  -20.60771 -20.60766 -15.85824 -11.31193 -11.27767
 Alpha  occ. eigenvalues --  -11.27762 -11.27501 -11.26780 -11.26745 -11.22427
 Alpha  occ. eigenvalues --  -11.22130 -11.21987 -11.21924 -11.21916 -11.21163
 Alpha  occ. eigenvalues --   -1.59846  -1.39399  -1.19368  -1.09078  -1.08758
 Alpha  occ. eigenvalues --   -1.04776  -1.04091  -0.96529  -0.95594  -0.87541
 Alpha  occ. eigenvalues --   -0.86169  -0.82435  -0.80171  -0.78857  -0.77475
 Alpha  occ. eigenvalues --   -0.72042  -0.71169  -0.70479  -0.65828  -0.65012
 Alpha  occ. eigenvalues --   -0.64763  -0.62167  -0.61413  -0.59913  -0.58122
 Alpha  occ. eigenvalues --   -0.55834  -0.55268  -0.53202  -0.53100  -0.52982
 Alpha  occ. eigenvalues --   -0.52811  -0.50470  -0.48804  -0.48798  -0.48451
 Alpha  occ. eigenvalues --   -0.47232  -0.46370  -0.46316  -0.44804  -0.44357
 Alpha  occ. eigenvalues --   -0.37344  -0.36364
 Alpha virt. eigenvalues --    0.05039   0.11266   0.16437   0.18183   0.22695
 Alpha virt. eigenvalues --    0.23204   0.24572   0.26058   0.27455   0.28472
 Alpha virt. eigenvalues --    0.29848   0.30398   0.31206   0.31628   0.32071

 Mulliken charges:
               1
     1  C   -0.171711
     2  C   -0.224726
     3  C   -0.178793
     4  C    0.159296
     5  C   -0.170244
     6  C   -0.218746
     7  H    0.226039
     8  H    0.230837
     9  H    0.282281
    10  H    0.275693
    11  H    0.223536
    12  N    0.487651
    13  O   -0.460361
    14  O   -0.460361
    15  C   -0.301663
    16  C   -0.300001
    17  C   -0.477150
    18  H    0.154942
    19  H    0.146710
    20  H    0.153005
    21  H    0.151058
    22  H    0.160497
    23  H    0.156975
    24  H    0.161443
    25  C   -0.300454
    26  C   -0.306009
    27  C   -0.476254
    28  H    0.154212
    29  H    0.144727
    30  H    0.159245
    31  H    0.146368
    32  H    0.148494
    33  H    0.160106
    34  H    0.163357
 Sum of Mulliken charges =  -0.00000

 Dipole moment (field-independent basis, Debye):
    X=              1.3461    Y=              4.6672    Z=             -1.7577  Tot=              5.1657
 Quadrupole moment (field-independent basis, Debye-Ang):
   XX=            -94.7111   YY=            -98.2320   ZZ=            -95.2333
   XY=            -14.3946   XZ=              6.2581   YZ=              0.4458

 Normal termination of Gaussian 16 at Wed May  5 16:08:30 2021.
