 Gaussian 16, Revision A.03,
 Gaussian 16:  EM64L-G16RevA.03 25-Dec-2016

 -------------
 #p 6-31g* mp2
 -------------

 ------------------------------------------------------
 Input file generated by CHIRIPA (05-May-2021 14:51:13)
 ------------------------------------------------------
 Symbolic Z-matrix:
 Charge =  0 Multiplicity = 1

                         Standard orientation:
 ---------------------------------------------------------------------
 Center     Atomic      Atomic             Coordinates (Angstroms)
 Number     Number       Type             X           Y           Z
 ---------------------------------------------------------------------
      1          6           0       -3.054101    0.009907   -0.704363
      2          6           0       -2.787538   -1.444876   -0.316375
      3          6           0       -3.458075   -2.441395   -1.262485
      4          1           0       -4.138334    0.186616   -0.716919
      5          1           0       -2.697826    0.179780   -1.729842
      6          1           0       -3.142955   -1.611591    0.708565
      7          1           0       -1.703807   -1.618091   -0.304555
      8          1           0       -3.096025   -2.303872   -2.286501
      9          1           0       -4.543349   -2.297335   -1.267625
     10          1           0       -3.254472   -3.475260   -0.966633
     11          6           0       -2.390336    1.018009    0.232053
     12          6           0       -2.656899    2.472792   -0.155935
     13          6           0       -1.986362    3.469311    0.790175
     14          1           0       -2.746610    0.848136    1.257532
     15          1           0       -1.306103    0.841300    0.244608
     16          1           0       -3.740630    2.646007   -0.167755
     17          1           0       -2.301482    2.639507   -1.180875
     18          1           0       -0.901087    3.325250    0.795315
     19          1           0       -2.348412    3.331788    1.814191
     20          1           0       -2.189965    4.503176    0.494323
     21          6           0        3.191350   -0.398415   -0.355451
     22          6           0        4.186254    0.739998   -0.127059
     23          6           0        5.117960    0.958963   -1.319441
     24          1           0        3.744789   -1.324023   -0.564977
     25          1           0        2.595340   -0.180720   -1.252545
     26          1           0        4.779267    0.520885    0.770125
     27          1           0        3.630385    1.662963    0.082137
     28          1           0        4.542455    1.202309   -2.218429
     29          1           0        5.697865    0.053742   -1.526531
     30          1           0        5.820850    1.777308   -1.134735
     31          6           0        2.253087   -0.629500    0.827761
     32          6           0        1.258182   -1.767914    0.599370
     33          6           0        0.326478   -1.986879    1.791751
     34          1           0        2.849097   -0.847195    1.724855
     35          1           0        1.699648    0.296107    1.037287
     36          1           0        1.814052   -2.690879    0.390173
     37          1           0        0.665170   -1.548800   -0.297815
     38          1           0       -0.253428   -1.081658    1.998841
     39          1           0        0.901982   -2.230225    2.690739
     40          1           0       -0.376413   -2.805224    1.607045
 ---------------------------------------------------------------------

 SCF Done:  E(RHF) =  -470.732402061     A.U. after   11 cycles
 E2 =    -0.1584530610D+01 EUMP2 =    -0.47231693267121D+03

 The electronic state is 1-A.
 Alpha  occ. eigenvalues --  -11.21647 -11.21633 -11.21633 -11.21500 -11.21446
 Alpha  occ. eigenvalues --  -11.21443 -11.21387 -11.21364 -11.21120 -11.21097
 Alpha  occ. eigenvalues --  -11.21045 -11.20991  -1.08504  -1.08415  -1.03603
 Alpha  occ. eigenvalues --   -1.03489  -0.96006  -0.95985  -0.87040  -0.86979
 Alpha  occ. eigenvalues --   -0.79618  -0.79607  -0.78286  -0.78273  -0.65317
 Alpha  occ. eigenvalues --   -0.64900  -0.61144  -0.60785  -0.59507  -0.59224
 Alpha  occ. eigenvalues --   -0.57738  -0.57465  -0.55308  -0.55272  -0.52717
 Alpha  occ. eigenvalues --   -0.52650  -0.52455  -0.52368  -0.49949  -0.49933
 Alpha  occ. eigenvalues --   -0.47960  -0.47882  -0.46852  -0.46484  -0.45996
 Alpha  occ. eigenvalues --   -0.45795  -0.45649  -0.45487  -0.43818  -0.43777
 Alpha virt. eigenvalues --    0.20024   0.23178   0.23716   0.24172   0.26000
 Alpha virt. eigenvalues --    0.26237   0.27221   0.27322   0.28014   0.29822
 Alpha virt. eigenvalues --    0.30557   0.31120   0.31612   0.31978   0.32352

 Mulliken charges:
               1
     1  C   -0.297607
     2  C   -0.309886
     3  C   -0.475213
     4  H    0.149638
     5  H    0.148702
     6  H    0.151975
     7  H    0.165122
     8  H    0.154614
     9  H    0.154929
    10  H    0.159778
    11  C   -0.302202
    12  C   -0.299576
    13  C   -0.475669
    14  H    0.149957
    15  H    0.151780
    16  H    0.152428
    17  H    0.151872
    18  H    0.154445
    19  H    0.155441
    20  H    0.160566
    21  C   -0.298321
    22  C   -0.299640
    23  C   -0.475724
    24  H    0.149921
    25  H    0.149071
    26  H    0.152161
    27  H    0.151796
    28  H    0.155102
    29  H    0.155272
    30  H    0.160420
    31  C   -0.299198
    32  C   -0.305165
    33  C   -0.480375
    34  H    0.150184
    35  H    0.149972
    36  H    0.152485
    37  H    0.154044
    38  H    0.159929
    39  H    0.155321
    40  H    0.161652
 Sum of Mulliken charges =  -0.00000

 Dipole moment (field-independent basis, Debye):
    X=              0.0066    Y=             -0.0040    Z=              0.0201  Tot=              0.0215
 Quadrupole moment (field-independent basis, Debye-Ang):
   XX=            -84.3805   YY=            -85.1429   ZZ=            -85.2634
   XY=             -1.0632   XZ=              0.0406   YZ=             -0.5699

 Normal termination of Gaussian 16 at Thu May  6 00:48:50 2021.
