 Gaussian 16, Revision A.03,
 Gaussian 16:  EM64L-G16RevA.03 25-Dec-2016

 -------------
 #p 6-31g* mp2
 -------------

 ------------------------------------------------------
 Input file generated by CHIRIPA (05-May-2021 14:55:21)
 ------------------------------------------------------
 Symbolic Z-matrix:
 Charge =  0 Multiplicity = 1

                         Standard orientation:
 ---------------------------------------------------------------------
 Center     Atomic      Atomic             Coordinates (Angstroms)
 Number     Number       Type             X           Y           Z
 ---------------------------------------------------------------------
      1          6           0        3.141105   -0.496035   -2.385182
      2          6           0        3.856328   -1.229730   -1.432990
      3          6           0        3.610048   -1.052298   -0.068288
      4          6           0        2.637125   -0.128639    0.310614
      5          6           0        1.907905    0.617363   -0.614053
      6          6           0        2.170887    0.423548   -1.973400
      7          1           0        3.338908   -0.640232   -3.443235
      8          1           0        4.610393   -1.944580   -1.749884
      9          1           0        4.149080   -1.607060    0.690066
     10          1           0        1.162327    1.322695   -0.267589
     11          1           0        1.613897    0.994732   -2.710663
     12          7           0        2.367559    0.067872    1.752528
     13          8           0        1.505254    0.887750    2.060533
     14          8           0        3.023683   -0.601701    2.547393
     15          6           0       -2.956897    0.729030    0.196254
     16          6           0       -2.812280    1.970864   -0.684040
     17          6           0       -1.857787    3.007823   -0.091204
     18          1           0       -3.313413    1.031587    1.190387
     19          1           0       -1.967002    0.275473    0.343870
     20          1           0       -3.802345    2.421157   -0.831090
     21          1           0       -2.456250    1.665295   -1.676252
     22          1           0       -0.858190    2.580897    0.039718
     23          1           0       -2.211934    3.341055    0.889681
     24          1           0       -1.769217    3.887260   -0.736656
     25          6           0       -3.907879   -0.316802   -0.383055
     26          6           0       -4.052496   -1.558637    0.497239
     27          6           0       -5.006990   -2.595595   -0.095595
     28          1           0       -4.897774    0.136755   -0.530670
     29          1           0       -3.551363   -0.619359   -1.377188
     30          1           0       -4.408526   -1.253067    1.489451
     31          1           0       -3.062431   -2.008929    0.644290
     32          1           0       -4.652842   -2.928827   -1.076482
     33          1           0       -6.006586   -2.168669   -0.226518
     34          1           0       -5.095559   -3.475032    0.549855
 ---------------------------------------------------------------------

 SCF Done:  E(RHF) =  -669.535506824     A.U. after   15 cycles
 E2 =    -0.2091466535D+01 EUMP2 =    -0.67162697335926D+03

 The electronic state is 1-A.
 Alpha  occ. eigenvalues --  -20.60801 -20.60796 -15.85850 -11.31224 -11.27791
 Alpha  occ. eigenvalues --  -11.27787 -11.27537 -11.26814 -11.26803 -11.21709
 Alpha  occ. eigenvalues --  -11.21477 -11.21340 -11.21262 -11.21192 -11.20996
 Alpha  occ. eigenvalues --   -1.59874  -1.39427  -1.19398  -1.08791  -1.08394
 Alpha  occ. eigenvalues --   -1.04804  -1.03528  -0.95971  -0.95625  -0.86986
 Alpha  occ. eigenvalues --   -0.86202  -0.82455  -0.79581  -0.78181  -0.77502
 Alpha  occ. eigenvalues --   -0.72069  -0.71196  -0.70516  -0.65065  -0.65049
 Alpha  occ. eigenvalues --   -0.64791  -0.62190  -0.60914  -0.59334  -0.57566
 Alpha  occ. eigenvalues --   -0.55385  -0.55193  -0.53131  -0.52917  -0.52678
 Alpha  occ. eigenvalues --   -0.52356  -0.49914  -0.48830  -0.48826  -0.47885
 Alpha  occ. eigenvalues --   -0.46620  -0.45724  -0.45652  -0.44824  -0.43765
 Alpha  occ. eigenvalues --   -0.37379  -0.36405
 Alpha virt. eigenvalues --    0.05019   0.11217   0.16524   0.19949   0.22938
 Alpha virt. eigenvalues --    0.23855   0.25863   0.27038   0.27578   0.27903
 Alpha virt. eigenvalues --    0.29199   0.30346   0.31472   0.31724   0.32011

 Mulliken charges:
               1
     1  C   -0.170485
     2  C   -0.219050
     3  C   -0.169689
     4  C    0.156653
     5  C   -0.180783
     6  C   -0.223431
     7  H    0.225800
     8  H    0.223637
     9  H    0.275809
    10  H    0.292375
    11  H    0.224221
    12  N    0.486277
    13  O   -0.461328
    14  O   -0.459953
    15  C   -0.298733
    16  C   -0.300209
    17  C   -0.480844
    18  H    0.154319
    19  H    0.152115
    20  H    0.153189
    21  H    0.144935
    22  H    0.155144
    23  H    0.163372
    24  H    0.157959
    25  C   -0.298183
    26  C   -0.299765
    27  C   -0.475669
    28  H    0.149119
    29  H    0.146384
    30  H    0.154212
    31  H    0.153408
    32  H    0.153433
    33  H    0.154814
    34  H    0.160949
 Sum of Mulliken charges =  -0.00000

 Dipole moment (field-independent basis, Debye):
    X=              0.9224    Y=             -0.6899    Z=             -4.9624  Tot=              5.0943
 Quadrupole moment (field-independent basis, Debye-Ang):
   XX=            -87.4000   YY=            -93.2161   ZZ=            -98.1279
   XY=             -5.8709   XZ=            -13.3859   YZ=             -0.2680

 Normal termination of Gaussian 16 at Thu May  6 20:46:34 2021.
