 Gaussian 16, Revision A.03,
 Gaussian 16:  EM64L-G16RevA.03 25-Dec-2016

 -------------
 #p 6-31g* mp2
 -------------

 ------------------------------------------------------
 Input file generated by CHIRIPA (05-May-2021 14:57:24)
 ------------------------------------------------------
 Symbolic Z-matrix:
 Charge =  0 Multiplicity = 1

                         Standard orientation:
 ---------------------------------------------------------------------
 Center     Atomic      Atomic             Coordinates (Angstroms)
 Number     Number       Type             X           Y           Z
 ---------------------------------------------------------------------
      1          6           0        3.590531    1.358842    0.564250
      2          6           0        2.569902    1.615313   -0.357195
      3          6           0        1.753587    0.578685   -0.819341
      4          6           0        1.986895   -0.708197   -0.336854
      5          6           0        2.995651   -0.995549    0.581367
      6          6           0        3.799779    0.056526    1.029769
      7          1           0        4.219931    2.170119    0.917918
      8          1           0        2.405101    2.625724   -0.720451
      9          1           0        0.956284    0.749156   -1.532549
     10          1           0        3.135735   -2.013155    0.925275
     11          1           0        4.591662   -0.145596    1.745390
     12          7           0        1.129149   -1.813805   -0.818833
     13          8           0        1.355122   -2.938788   -0.378393
     14          8           0        0.247116   -1.534463   -1.627921
     15          6           0       -1.097906    2.752240   -0.332545
     16          6           0       -0.839183    2.169037    0.912227
     17          6           0       -1.404691    0.935841    1.249830
     18          6           0       -2.227873    0.310753    0.314454
     19          6           0       -2.504651    0.866261   -0.933782
     20          6           0       -1.928350    2.100139   -1.249960
     21          1           0       -0.654413    3.710481   -0.586481
     22          1           0       -0.194638    2.673189    1.626676
     23          1           0       -1.221167    0.461799    2.206398
     24          1           0       -3.151269    0.339708   -1.625190
     25          1           0       -2.131036    2.550699   -2.217410
     26          7           0       -2.832264   -0.995138    0.660518
     27          8           0       -3.554022   -1.525588   -0.181102
     28          8           0       -2.572782   -1.463519    1.766830
 ---------------------------------------------------------------------

 SCF Done:  E(RHF) =  -868.335329702     A.U. after   16 cycles
 E2 =    -0.2605969347D+01 EUMP2 =    -0.87094129904849D+03

 The electronic state is 1-A.
 Alpha  occ. eigenvalues --  -20.60813 -20.60767 -20.60299 -20.60257 -15.85842
 Alpha  occ. eigenvalues --  -15.85346 -11.31301 -11.31049 -11.27937 -11.27915
 Alpha  occ. eigenvalues --  -11.27785 -11.27654 -11.27609 -11.27547 -11.27025
 Alpha  occ. eigenvalues --  -11.26957 -11.26803 -11.26793  -1.59858  -1.59333
 Alpha  occ. eigenvalues --   -1.39411  -1.38884  -1.19563  -1.19267  -1.08930
 Alpha  occ. eigenvalues --   -1.08641  -1.04987  -1.04707  -0.95731  -0.95403
 Alpha  occ. eigenvalues --   -0.86378  -0.86105  -0.82568  -0.82225  -0.77586
 Alpha  occ. eigenvalues --   -0.77183  -0.72067  -0.71576  -0.71254  -0.70681
 Alpha  occ. eigenvalues --   -0.70569  -0.70430  -0.65206  -0.65029  -0.64918
 Alpha  occ. eigenvalues --   -0.64725  -0.62347  -0.62045  -0.55522  -0.55295
 Alpha  occ. eigenvalues --   -0.53774  -0.53134  -0.52815  -0.52506  -0.48819
 Alpha  occ. eigenvalues --   -0.48806  -0.48357  -0.48296  -0.44792  -0.44212
 Alpha  occ. eigenvalues --   -0.37672  -0.37598  -0.36821  -0.35605
 Alpha virt. eigenvalues --    0.04877   0.05361   0.10875   0.11484   0.16410
 Alpha virt. eigenvalues --    0.16661   0.20440   0.21823   0.26318   0.27274
 Alpha virt. eigenvalues --    0.28113   0.28630   0.30417   0.31498   0.32295

 Mulliken charges:
               1
     1  C   -0.172761
     2  C   -0.223408
     3  C   -0.162377
     4  C    0.154901
     5  C   -0.169896
     6  C   -0.220491
     7  H    0.223941
     8  H    0.215291
     9  H    0.277716
    10  H    0.278065
    11  H    0.223949
    12  N    0.487495
    13  O   -0.454191
    14  O   -0.462438
    15  C   -0.183115
    16  C   -0.211704
    17  C   -0.175280
    18  C    0.165190
    19  C   -0.159053
    20  C   -0.225009
    21  H    0.219175
    22  H    0.220010
    23  H    0.275691
    24  H    0.280450
    25  H    0.223497
    26  N    0.489985
    27  O   -0.453548
    28  O   -0.462087
 Sum of Mulliken charges =  -0.00000

 Dipole moment (field-independent basis, Debye):
    X=              4.8887    Y=              8.0573    Z=              0.4317  Tot=              9.4343
 Quadrupole moment (field-independent basis, Debye-Ang):
   XX=           -100.7892   YY=           -107.0245   ZZ=           -101.8965
   XY=             -5.7955   XZ=             10.1248   YZ=             -3.3543

 Normal termination of Gaussian 16 at Wed May  5 17:53:47 2021.
