 Gaussian 16, Revision A.03,
 Gaussian 16:  EM64L-G16RevA.03 25-Dec-2016

 -------------
 #p 6-31g* mp2
 -------------

 ------------------------------------------------------
 Input file generated by CHIRIPA (05-May-2021 14:53:13)
 ------------------------------------------------------
 Symbolic Z-matrix:
 Charge =  0 Multiplicity = 1

                         Standard orientation:
 ---------------------------------------------------------------------
 Center     Atomic      Atomic             Coordinates (Angstroms)
 Number     Number       Type             X           Y           Z
 ---------------------------------------------------------------------
      1          6           0        5.001998    0.038450    0.095169
      2          6           0        5.455821   -1.145461   -0.759456
      3          6           0        6.736306   -1.796327   -0.235506
      4          1           0        5.806425    0.785783    0.131737
      5          1           0        4.845017   -0.302596    1.127855
      6          1           0        5.610566   -0.802576   -1.790524
      7          1           0        4.650147   -1.889976   -0.794151
      8          1           0        6.591117   -2.165517    0.784896
      9          1           0        7.556992   -1.071938   -0.217137
     10          1           0        7.042723   -2.640351   -0.861279
     11          6           0        3.723184    0.699615   -0.415931
     12          6           0        3.269361    1.883526    0.438694
     13          6           0        1.988876    2.534392   -0.085256
     14          1           0        3.880165    1.040661   -1.448617
     15          1           0        2.918757   -0.047718   -0.452499
     16          1           0        4.075035    2.628041    0.473389
     17          1           0        3.114616    1.540641    1.469762
     18          1           0        1.168190    1.810003   -0.103625
     19          1           0        2.134066    2.903582   -1.105658
     20          1           0        1.682459    3.378416    0.540517
     21          6           0       -1.109607   -0.698153    1.081373
     22          6           0       -1.545393    0.609309    0.842302
     23          6           0       -2.817049    0.848228    0.312814
     24          6           0       -3.630501   -0.248684    0.032868
     25          6           0       -3.224958   -1.562939    0.259932
     26          6           0       -1.949301   -1.778200    0.789939
     27          1           0       -0.120199   -0.874562    1.492893
     28          1           0       -0.895418    1.450015    1.067669
     29          1           0       -3.179693    1.850187    0.117915
     30          1           0       -3.895453   -2.380693    0.025123
     31          1           0       -1.613512   -2.794665    0.974575
     32          7           0       -4.978865   -0.008275   -0.527952
     33          8           0       -5.676465   -0.991798   -0.766014
     34          8           0       -5.312581    1.159129   -0.718840
 ---------------------------------------------------------------------

 SCF Done:  E(RHF) =  -669.535454050     A.U. after   15 cycles
 E2 =    -0.2091257452D+01 EUMP2 =    -0.67162671150198D+03

 The electronic state is 1-A.
 Alpha  occ. eigenvalues --  -20.60760 -20.60755 -15.85814 -11.31191 -11.27763
 Alpha  occ. eigenvalues --  -11.27748 -11.27515 -11.26782 -11.26733 -11.22492
 Alpha  occ. eigenvalues --  -11.22193 -11.22175 -11.22058 -11.22047 -11.21575
 Alpha  occ. eigenvalues --   -1.59835  -1.39389  -1.19364  -1.09178  -1.08760
 Alpha  occ. eigenvalues --   -1.04767  -1.04278  -0.96734  -0.95592  -0.87756
 Alpha  occ. eigenvalues --   -0.86164  -0.82420  -0.80343  -0.78966  -0.77465
 Alpha  occ. eigenvalues --   -0.72032  -0.71158  -0.70477  -0.65837  -0.65016
 Alpha  occ. eigenvalues --   -0.64786  -0.62178  -0.61622  -0.60103  -0.58323
 Alpha  occ. eigenvalues --   -0.56049  -0.55265  -0.53440  -0.53217  -0.53058
 Alpha  occ. eigenvalues --   -0.52810  -0.50649  -0.48797  -0.48786  -0.48639
 Alpha  occ. eigenvalues --   -0.47373  -0.46509  -0.46433  -0.44791  -0.44527
 Alpha  occ. eigenvalues --   -0.37344  -0.36358
 Alpha virt. eigenvalues --    0.05065   0.11148   0.16538   0.19861   0.22583
 Alpha virt. eigenvalues --    0.23813   0.25671   0.26121   0.26721   0.28266
 Alpha virt. eigenvalues --    0.28899   0.30454   0.30970   0.31320   0.31545

 Mulliken charges:
               1
     1  C   -0.298624
     2  C   -0.299823
     3  C   -0.476023
     4  H    0.151964
     5  H    0.147901
     6  H    0.153906
     7  H    0.150556
     8  H    0.154799
     9  H    0.156537
    10  H    0.161915
    11  C   -0.298319
    12  C   -0.299985
    13  C   -0.482661
    14  H    0.153177
    15  H    0.145805
    16  H    0.156398
    17  H    0.148149
    18  H    0.151264
    19  H    0.161816
    20  H    0.160174
    21  C   -0.172691
    22  C   -0.221007
    23  C   -0.171889
    24  C    0.158641
    25  C   -0.170888
    26  C   -0.218349
    27  H    0.225456
    28  H    0.229304
    29  H    0.276099
    30  H    0.275663
    31  H    0.223337
    32  N    0.488068
    33  O   -0.460449
    34  O   -0.460219
 Sum of Mulliken charges =  -0.00000

 Dipole moment (field-independent basis, Debye):
    X=              4.9068    Y=             -0.8175    Z=              1.9112  Tot=              5.3289
 Quadrupole moment (field-independent basis, Debye-Ang):
   XX=           -129.5391   YY=            -89.2282   ZZ=            -95.2116
   XY=              3.8591   XZ=             -7.8175   YZ=             -0.7384

 Normal termination of Gaussian 16 at Thu May  6 00:59:14 2021.
