 Gaussian 16, Revision A.03,
 Gaussian 16:  EM64L-G16RevA.03 25-Dec-2016

 -------------
 #p 6-31g* mp2
 -------------

 ------------------------------------------------------
 Input file generated by CHIRIPA (05-May-2021 14:53:18)
 ------------------------------------------------------
 Symbolic Z-matrix:
 Charge =  0 Multiplicity = 1

                         Standard orientation:
 ---------------------------------------------------------------------
 Center     Atomic      Atomic             Coordinates (Angstroms)
 Number     Number       Type             X           Y           Z
 ---------------------------------------------------------------------
      1          6           0       -5.703938   -0.359375   -0.113525
      2          6           0       -6.908084    0.547651    0.142056
      3          6           0       -8.206792   -0.017680   -0.433750
      4          1           0       -5.591070   -0.512063   -1.195603
      5          1           0       -5.899635   -1.348592    0.322991
      6          1           0       -6.709602    1.535283   -0.293609
      7          1           0       -7.017984    0.698352    1.223641
      8          1           0       -8.431854   -0.993397    0.008885
      9          1           0       -8.121719   -0.151711   -1.516986
     10          1           0       -9.054670    0.646615   -0.239650
     11          6           0       -4.398226    0.192267    0.456153
     12          6           0       -3.194080   -0.714758    0.200572
     13          6           0       -1.895372   -0.149427    0.776378
     14          1           0       -4.202529    1.181485    0.019637
     15          1           0       -4.511094    0.344955    1.538231
     16          1           0       -3.084180   -0.865460   -0.881013
     17          1           0       -3.392562   -1.702390    0.636237
     18          1           0       -1.980445   -0.015397    1.859614
     19          1           0       -1.670310    0.826289    0.333743
     20          1           0       -1.047494   -0.813723    0.582277
     21          6           0        1.487540    0.395566   -0.594306
     22          6           0        2.024811   -0.895240   -0.553325
     23          6           0        3.385659   -1.090132   -0.299047
     24          6           0        4.183848    0.033345   -0.089323
     25          6           0        3.678220    1.331977   -0.123786
     26          6           0        2.314502    1.503102   -0.379785
     27          1           0        0.429285    0.537732   -0.792504
     28          1           0        1.384962   -1.757218   -0.719555
     29          1           0        3.827775   -2.078340   -0.261703
     30          1           0        4.341133    2.171736    0.045827
     31          1           0        1.899994    2.506722   -0.411022
     32          7           0        5.626037   -0.160398    0.180780
     33          8           0        6.308069    0.845851    0.362249
     34          8           0        6.047084   -1.314835    0.205905
 ---------------------------------------------------------------------

 SCF Done:  E(RHF) =  -669.534445658     A.U. after   15 cycles
 E2 =    -0.2091716316D+01 EUMP2 =    -0.67162616197399D+03

 The electronic state is 1-A.
 Alpha  occ. eigenvalues --  -20.60699 -20.60694 -15.85754 -11.31096 -11.27688
 Alpha  occ. eigenvalues --  -11.27680 -11.27311 -11.26674 -11.26652 -11.22616
 Alpha  occ. eigenvalues --  -11.22356 -11.22199 -11.22146 -11.22022 -11.21526
 Alpha  occ. eigenvalues --   -1.59776  -1.39330  -1.19273  -1.09210  -1.08663
 Alpha  occ. eigenvalues --   -1.04681  -1.04350  -0.96830  -0.95497  -0.87848
 Alpha  occ. eigenvalues --   -0.86076  -0.82345  -0.80424  -0.78974  -0.77397
 Alpha  occ. eigenvalues --   -0.71972  -0.71100  -0.70404  -0.65837  -0.64927
 Alpha  occ. eigenvalues --   -0.64704  -0.62042  -0.61753  -0.60220  -0.58397
 Alpha  occ. eigenvalues --   -0.56257  -0.55094  -0.53494  -0.53234  -0.52928
 Alpha  occ. eigenvalues --   -0.52768  -0.50716  -0.48752  -0.48727  -0.48705
 Alpha  occ. eigenvalues --   -0.47431  -0.46525  -0.46422  -0.44741  -0.44579
 Alpha  occ. eigenvalues --   -0.37208  -0.36292
 Alpha virt. eigenvalues --    0.05140   0.11283   0.16614   0.20189   0.22469
 Alpha virt. eigenvalues --    0.23953   0.25445   0.26094   0.26654   0.27164
 Alpha virt. eigenvalues --    0.29358   0.29770   0.31057   0.31483   0.31830

 Mulliken charges:
               1
     1  C   -0.298844
     2  C   -0.300174
     3  C   -0.476107
     4  H    0.149950
     5  H    0.151014
     6  H    0.152132
     7  H    0.153027
     8  H    0.156047
     9  H    0.155577
    10  H    0.161835
    11  C   -0.299024
    12  C   -0.301049
    13  C   -0.481297
    14  H    0.149193
    15  H    0.152133
    16  H    0.150506
    17  H    0.155973
    18  H    0.163962
    19  H    0.148828
    20  H    0.157533
    21  C   -0.169875
    22  C   -0.222931
    23  C   -0.170690
    24  C    0.157788
    25  C   -0.170555
    26  C   -0.221608
    27  H    0.234179
    28  H    0.222666
    29  H    0.275243
    30  H    0.275247
    31  H    0.222728
    32  N    0.488140
    33  O   -0.460751
    34  O   -0.460797
 Sum of Mulliken charges =  -0.00000

 Dipole moment (field-independent basis, Debye):
    X=             -5.3521    Y=              0.6757    Z=             -0.8841  Tot=              5.4665
 Quadrupole moment (field-independent basis, Debye-Ang):
   XX=           -138.1499   YY=            -89.6789   ZZ=            -94.6974
   XY=              3.2666   XZ=             -4.1862   YZ=             -0.2381

 Normal termination of Gaussian 16 at Wed May  5 20:27:44 2021.
