 Gaussian 16, Revision A.03,
 Gaussian 16:  EM64L-G16RevA.03 25-Dec-2016

 -------------
 #p 6-31g* mp2
 -------------

 ------------------------------------------------------
 Input file generated by CHIRIPA (05-May-2021 14:55:20)
 ------------------------------------------------------
 Symbolic Z-matrix:
 Charge =  0 Multiplicity = 1

                         Standard orientation:
 ---------------------------------------------------------------------
 Center     Atomic      Atomic             Coordinates (Angstroms)
 Number     Number       Type             X           Y           Z
 ---------------------------------------------------------------------
      1          6           0        4.164647    1.169651   -0.927986
      2          6           0        4.186650   -0.228647   -0.956271
      3          6           0        3.182143   -0.967484   -0.324106
      4          6           0        2.166122   -0.272428    0.330026
      5          6           0        2.116501    1.119954    0.375839
      6          6           0        3.131464    1.838310   -0.263194
      7          1           0        4.949034    1.735642   -1.421735
      8          1           0        4.987797   -0.750605   -1.471798
      9          1           0        3.174736   -2.050685   -0.330445
     10          1           0        1.304852    1.612147    0.897749
     11          1           0        3.111815    2.924175   -0.239597
     12          7           0        1.097161   -1.043761    1.002906
     13          8           0        0.213042   -0.407674    1.572437
     14          8           0        1.163668   -2.269812    0.948038
     15          6           0       -2.652689    0.827744   -0.051918
     16          6           0       -3.527500    2.073054   -0.199880
     17          6           0       -2.822518    3.348956    0.261496
     18          1           0       -2.351055    0.722097    0.999177
     19          1           0       -1.728522    0.966604   -0.629869
     20          1           0       -4.450359    1.931320    0.377059
     21          1           0       -3.827245    2.175642   -1.250711
     22          1           0       -1.911149    3.517744   -0.321187
     23          1           0       -2.537804    3.272035    1.315831
     24          1           0       -3.465871    4.226934    0.147001
     25          6           0       -3.343599   -0.455768   -0.509049
     26          6           0       -2.468788   -1.701078   -0.361086
     27          6           0       -3.173771   -2.976979   -0.822462
     28          1           0       -4.267766   -0.594627    0.068902
     29          1           0       -3.645234   -0.350121   -1.560144
     30          1           0       -2.169043   -1.803665    0.689745
     31          1           0       -1.545929   -1.559344   -0.938025
     32          1           0       -3.458484   -2.900058   -1.876798
     33          1           0       -4.085139   -3.145768   -0.239779
     34          1           0       -2.530417   -3.854957   -0.707966
 ---------------------------------------------------------------------

 SCF Done:  E(RHF) =  -669.536043120     A.U. after   15 cycles
 E2 =    -0.2093271276D+01 EUMP2 =    -0.67162931439647D+03

 The electronic state is 1-A.
 Alpha  occ. eigenvalues --  -20.60981 -20.60958 -15.85964 -11.31294 -11.27852
 Alpha  occ. eigenvalues --  -11.27841 -11.27587 -11.26857 -11.26845 -11.20945
 Alpha  occ. eigenvalues --  -11.20723 -11.20345 -11.20283 -11.20148 -11.19925
 Alpha  occ. eigenvalues --   -1.60008  -1.39568  -1.19457  -1.08865  -1.07428
 Alpha  occ. eigenvalues --   -1.04850  -1.02602  -0.95709  -0.95093  -0.86251
 Alpha  occ. eigenvalues --   -0.86128  -0.82550  -0.78673  -0.77619  -0.77157
 Alpha  occ. eigenvalues --   -0.72202  -0.71292  -0.70563  -0.65114  -0.64854
 Alpha  occ. eigenvalues --   -0.64069  -0.62194  -0.60015  -0.58486  -0.56663
 Alpha  occ. eigenvalues --   -0.55356  -0.54409  -0.53185  -0.52940  -0.51823
 Alpha  occ. eigenvalues --   -0.51529  -0.49111  -0.49011  -0.48957  -0.46951
 Alpha  occ. eigenvalues --   -0.45682  -0.45286  -0.44684  -0.44227  -0.42819
 Alpha  occ. eigenvalues --   -0.37432  -0.36450
 Alpha virt. eigenvalues --    0.04904   0.11177   0.16382   0.21190   0.23614
 Alpha virt. eigenvalues --    0.24963   0.26954   0.27545   0.27818   0.28879
 Alpha virt. eigenvalues --    0.29061   0.31126   0.31903   0.32419   0.32579

 Mulliken charges:
               1
     1  C   -0.170572
     2  C   -0.218604
     3  C   -0.170899
     4  C    0.158227
     5  C   -0.171375
     6  C   -0.218761
     7  H    0.226017
     8  H    0.223810
     9  H    0.275791
    10  H    0.277156
    11  H    0.224121
    12  N    0.491036
    13  O   -0.459835
    14  O   -0.459385
    15  C   -0.298346
    16  C   -0.298949
    17  C   -0.474607
    18  H    0.168797
    19  H    0.139648
    20  H    0.151251
    21  H    0.148253
    22  H    0.147683
    23  H    0.155845
    24  H    0.157966
    25  C   -0.298895
    26  C   -0.299701
    27  C   -0.476289
    28  H    0.146619
    29  H    0.142735
    30  H    0.176521
    31  H    0.142167
    32  H    0.148135
    33  H    0.151826
    34  H    0.162616
 Sum of Mulliken charges =  -0.00000

 Dipole moment (field-independent basis, Debye):
    X=              4.0063    Y=              2.5885    Z=             -2.1017  Tot=              5.2123
 Quadrupole moment (field-independent basis, Debye-Ang):
   XX=            -78.7075   YY=            -94.3131   ZZ=            -96.0121
   XY=              2.6937   XZ=             -5.9920   YZ=              2.3119

 Normal termination of Gaussian 16 at Wed May  5 15:53:27 2021.
