 Gaussian 16, Revision A.03,
 Gaussian 16:  EM64L-G16RevA.03 25-Dec-2016

 -------------
 #p 6-31g* mp2
 -------------

 ------------------------------------------------------
 Input file generated by CHIRIPA (05-May-2021 14:57:24)
 ------------------------------------------------------
 Symbolic Z-matrix:
 Charge =  0 Multiplicity = 1

                         Standard orientation:
 ---------------------------------------------------------------------
 Center     Atomic      Atomic             Coordinates (Angstroms)
 Number     Number       Type             X           Y           Z
 ---------------------------------------------------------------------
      1          6           0       -2.162119    2.370255    0.783518
      2          6           0       -1.284484    1.650397   -0.033846
      3          6           0       -1.643357    0.391980   -0.525927
      4          6           0       -2.893261   -0.118706   -0.179183
      5          6           0       -3.789616    0.574161    0.633081
      6          6           0       -3.409684    1.830791    1.113790
      7          1           0       -1.875158    3.347130    1.161361
      8          1           0       -0.314968    2.066874   -0.291975
      9          1           0       -0.983287   -0.186792   -1.160551
     10          1           0       -4.749331    0.132882    0.873162
     11          1           0       -4.093296    2.387591    1.748371
     12          7           0       -3.284331   -1.449990   -0.694108
     13          8           0       -4.391194   -1.877856   -0.374074
     14          8           0       -2.476584   -2.040375   -1.407989
     15          6           0        2.900828    1.993299   -1.311343
     16          6           0        2.458166    2.054828    0.014094
     17          6           0        2.414073    0.900937    0.802219
     18          6           0        2.821845   -0.303147    0.230211
     19          6           0        3.267810   -0.396770   -1.087226
     20          6           0        3.303527    0.769853   -1.856812
     21          1           0        2.931828    2.894614   -1.916378
     22          1           0        2.144820    3.003597    0.440352
     23          1           0        2.075730    0.920052    1.831091
     24          1           0        3.573784   -1.357037   -1.484322
     25          1           0        3.647760    0.719079   -2.885875
     26          7           0        2.779599   -1.531458    1.054751
     27          8           0        3.144239   -2.580027    0.527324
     28          8           0        2.382647   -1.422382    2.212839
 ---------------------------------------------------------------------

 SCF Done:  E(RHF) =  -868.336302020     A.U. after   16 cycles
 E2 =    -0.2601975129D+01 EUMP2 =    -0.87093827714909D+03

 The electronic state is 1-A.
 Alpha  occ. eigenvalues --  -20.61169 -20.61151 -20.60678 -20.60672 -15.86231
 Alpha  occ. eigenvalues --  -15.85733 -11.31888 -11.31186 -11.28550 -11.28455
 Alpha  occ. eigenvalues --  -11.28327 -11.27754 -11.27751 -11.27634 -11.27569
 Alpha  occ. eigenvalues --  -11.27494 -11.26817 -11.26731  -1.60232  -1.59748
 Alpha  occ. eigenvalues --   -1.39777  -1.39300  -1.20124  -1.19366  -1.09455
 Alpha  occ. eigenvalues --   -1.08763  -1.05571  -1.04772  -0.96224  -0.95581
 Alpha  occ. eigenvalues --   -0.86938  -0.86188  -0.83055  -0.82403  -0.78049
 Alpha  occ. eigenvalues --   -0.77428  -0.72440  -0.71953  -0.71563  -0.71178
 Alpha  occ. eigenvalues --   -0.71068  -0.70518  -0.65752  -0.65578  -0.65024
 Alpha  occ. eigenvalues --   -0.64806  -0.62876  -0.62143  -0.56025  -0.55359
 Alpha  occ. eigenvalues --   -0.53973  -0.53631  -0.53097  -0.52757  -0.49223
 Alpha  occ. eigenvalues --   -0.49176  -0.48717  -0.48701  -0.45116  -0.44686
 Alpha  occ. eigenvalues --   -0.38129  -0.37456  -0.37171  -0.36266
 Alpha virt. eigenvalues --    0.04476   0.05112   0.10311   0.11246   0.15861
 Alpha virt. eigenvalues --    0.16600   0.20242   0.21759   0.26049   0.27591
 Alpha virt. eigenvalues --    0.27827   0.28327   0.30311   0.31231   0.31906

 Mulliken charges:
               1
     1  C   -0.173967
     2  C   -0.223250
     3  C   -0.173582
     4  C    0.160446
     5  C   -0.170642
     6  C   -0.217519
     7  H    0.220886
     8  H    0.226106
     9  H    0.275743
    10  H    0.276296
    11  H    0.223197
    12  N    0.488330
    13  O   -0.459894
    14  O   -0.459316
    15  C   -0.172595
    16  C   -0.233550
    17  C   -0.167101
    18  C    0.157637
    19  C   -0.169308
    20  C   -0.219102
    21  H    0.227865
    22  H    0.221311
    23  H    0.278559
    24  H    0.280950
    25  H    0.227820
    26  N    0.488526
    27  O   -0.455371
    28  O   -0.458475
 Sum of Mulliken charges =  -0.00000

 Dipole moment (field-independent basis, Debye):
    X=              1.7415    Y=              8.7201    Z=             -1.1202  Tot=              8.9626
 Quadrupole moment (field-independent basis, Debye-Ang):
   XX=           -107.5084   YY=           -108.5346   ZZ=           -103.3913
   XY=             -3.1659   XZ=            -17.9715   YZ=              3.3574

 Normal termination of Gaussian 16 at Thu May  6 01:52:25 2021.
