 Gaussian 16, Revision A.03,
 Gaussian 16:  EM64L-G16RevA.03 25-Dec-2016

 -------------
 #p 6-31g* mp2
 -------------

 ------------------------------------------------------
 Input file generated by CHIRIPA (05-May-2021 14:51:07)
 ------------------------------------------------------
 Symbolic Z-matrix:
 Charge =  0 Multiplicity = 1

                         Standard orientation:
 ---------------------------------------------------------------------
 Center     Atomic      Atomic             Coordinates (Angstroms)
 Number     Number       Type             X           Y           Z
 ---------------------------------------------------------------------
      1          6           0        2.292965    0.517189   -1.042428
      2          6           0        2.121265    1.963781   -0.577805
      3          6           0        1.518846    2.863780   -1.657104
      4          1           0        2.932190    0.499111   -1.935742
      5          1           0        1.315677    0.119525   -1.349293
      6          1           0        3.098361    2.358150   -0.270602
      7          1           0        1.482532    1.978399    0.314620
      8          1           0        0.532126    2.497042   -1.957914
      9          1           0        2.157136    2.878951   -2.546462
     10          1           0        1.404875    3.893333   -1.303706
     11          6           0        2.894109   -0.394824    0.025555
     12          6           0        3.065809   -1.841416   -0.439069
     13          6           0        3.668228   -2.741415    0.640230
     14          1           0        3.871397    0.002840    0.332420
     15          1           0        2.254885   -0.376746    0.918869
     16          1           0        3.704543   -1.856034   -1.331493
     17          1           0        2.088714   -2.235785   -0.746271
     18          1           0        3.029939   -2.756586    1.529588
     19          1           0        4.654948   -2.374677    0.941041
     20          1           0        3.782200   -3.770968    0.286833
     21          6           0       -2.448612    0.421910    1.082066
     22          6           0       -1.018404    0.320751    1.613341
     23          6           0       -0.743785    1.293419    2.760640
     24          1           0       -2.635964    1.450698    0.745260
     25          1           0       -3.152097    0.229051    1.903839
     26          1           0       -0.317809    0.512381    0.790503
     27          1           0       -0.834372   -0.707964    1.948744
     28          1           0       -1.419481    1.099715    3.599993
     29          1           0       -0.899982    2.326993    2.435171
     30          1           0        0.284324    1.204229    3.125191
     31          6           0       -2.738462   -0.544275   -0.065193
     32          6           0       -4.168671   -0.443116   -0.596467
     33          6           0       -4.443289   -1.415785   -1.743766
     34          1           0       -2.034977   -0.351415   -0.886965
     35          1           0       -2.551110   -1.573063    0.271613
     36          1           0       -4.352702    0.585598   -0.931871
     37          1           0       -4.869265   -0.634746    0.226370
     38          1           0       -4.287092   -2.449357   -1.418298
     39          1           0       -3.767593   -1.222080   -2.583120
     40          1           0       -5.471398   -1.326594   -2.108318
 ---------------------------------------------------------------------

 SCF Done:  E(RHF) =  -470.732941514     A.U. after   11 cycles
 E2 =    -0.1584343257D+01 EUMP2 =    -0.47231728477077D+03

 The electronic state is 1-A.
 Alpha  occ. eigenvalues --  -11.21651 -11.21648 -11.21595 -11.21579 -11.21470
 Alpha  occ. eigenvalues --  -11.21410 -11.21406 -11.21333 -11.21149 -11.21111
 Alpha  occ. eigenvalues --  -11.21105 -11.21057  -1.08523  -1.08409  -1.03611
 Alpha  occ. eigenvalues --   -1.03517  -0.96042  -0.95984  -0.87055  -0.87002
 Alpha  occ. eigenvalues --   -0.79669  -0.79592  -0.78342  -0.78218  -0.65403
 Alpha  occ. eigenvalues --   -0.64860  -0.61209  -0.60713  -0.59415  -0.59336
 Alpha  occ. eigenvalues --   -0.57665  -0.57580  -0.55330  -0.55277  -0.52734
 Alpha  occ. eigenvalues --   -0.52675  -0.52464  -0.52409  -0.50007  -0.49912
 Alpha  occ. eigenvalues --   -0.47995  -0.47908  -0.46791  -0.46550  -0.46037
 Alpha  occ. eigenvalues --   -0.45809  -0.45697  -0.45453  -0.43844  -0.43784
 Alpha virt. eigenvalues --    0.19712   0.22891   0.23615   0.24055   0.25638
 Alpha virt. eigenvalues --    0.26300   0.26923   0.27821   0.29141   0.29725
 Alpha virt. eigenvalues --    0.30811   0.31542   0.31659   0.31791   0.32075

 Mulliken charges:
               1
     1  C   -0.300370
     2  C   -0.305904
     3  C   -0.475579
     4  H    0.150503
     5  H    0.149556
     6  H    0.152570
     7  H    0.157622
     8  H    0.154015
     9  H    0.155604
    10  H    0.160357
    11  C   -0.301365
    12  C   -0.299597
    13  C   -0.475727
    14  H    0.149360
    15  H    0.153519
    16  H    0.151742
    17  H    0.152442
    18  H    0.155141
    19  H    0.155062
    20  H    0.160182
    21  C   -0.297808
    22  C   -0.309420
    23  C   -0.477043
    24  H    0.149859
    25  H    0.149845
    26  H    0.161734
    27  H    0.151609
    28  H    0.155868
    29  H    0.155601
    30  H    0.160921
    31  C   -0.298921
    32  C   -0.299708
    33  C   -0.475791
    34  H    0.148983
    35  H    0.149784
    36  H    0.152159
    37  H    0.152206
    38  H    0.155238
    39  H    0.155259
    40  H    0.160491
 Sum of Mulliken charges =  -0.00000

 Dipole moment (field-independent basis, Debye):
    X=             -0.0131    Y=              0.0039    Z=              0.0182  Tot=              0.0228
 Quadrupole moment (field-independent basis, Debye-Ang):
   XX=            -84.0809   YY=            -85.2544   ZZ=            -85.3684
   XY=              0.5431   XZ=             -1.1093   YZ=             -0.5463

 Normal termination of Gaussian 16 at Wed May  5 15:01:28 2021.
