 Gaussian 16, Revision A.03,
 Gaussian 16:  EM64L-G16RevA.03 25-Dec-2016

 -------------
 #p 6-31g* mp2
 -------------

 ------------------------------------------------------
 Input file generated by CHIRIPA (05-May-2021 14:55:20)
 ------------------------------------------------------
 Symbolic Z-matrix:
 Charge =  0 Multiplicity = 1

                         Standard orientation:
 ---------------------------------------------------------------------
 Center     Atomic      Atomic             Coordinates (Angstroms)
 Number     Number       Type             X           Y           Z
 ---------------------------------------------------------------------
      1          6           0       -1.655731    0.063277    2.584741
      2          6           0       -2.456423    0.791211    1.698444
      3          6           0       -2.514180    0.444479    0.345303
      4          6           0       -1.754834   -0.640766   -0.089355
      5          6           0       -0.947565   -1.385566    0.769062
      6          6           0       -0.905180   -1.020877    2.118045
      7          1           0       -1.616834    0.339601    3.634278
      8          1           0       -3.040379    1.633649    2.058082
      9          1           0       -3.125651    0.990778   -0.362565
     10          1           0       -0.376710   -2.220403    0.381006
     11          1           0       -0.282471   -1.588008    2.804078
     12          7           0       -1.807841   -1.017340   -1.519663
     13          8           0       -1.129349   -1.977618   -1.877648
     14          8           0       -2.526877   -0.345092   -2.255671
     15          6           0        1.539422    1.044186   -0.274060
     16          6           0        1.560224    2.558982   -0.481288
     17          6           0        0.161191    3.151390   -0.653196
     18          1           0        1.041682    0.570065   -1.131037
     19          1           0        0.930064    0.810377    0.609915
     20          1           0        2.170499    2.789958   -1.363802
     21          1           0        2.058142    3.029536    0.376191
     22          1           0       -0.453626    2.950010    0.230007
     23          1           0       -0.340632    2.709070   -1.519873
     24          1           0        0.199440    4.235297   -0.799969
     25          6           0        2.930587    0.437290   -0.100665
     26          6           0        2.909785   -1.077506    0.106563
     27          6           0        4.308819   -1.669915    0.278471
     28          1           0        3.539945    0.671099   -0.984640
     29          1           0        3.428326    0.911411    0.756312
     30          1           0        2.411866   -1.548061   -0.750917
     31          1           0        2.299510   -1.308482    0.989077
     32          1           0        4.810640   -1.227594    1.145148
     33          1           0        4.923635   -1.468534   -0.604732
     34          1           0        4.270569   -2.753821    0.425244
 ---------------------------------------------------------------------

 SCF Done:  E(RHF) =  -669.534219139     A.U. after   15 cycles
 E2 =    -0.2096895282D+01 EUMP2 =    -0.67163111442070D+03

 The electronic state is 1-A.
 Alpha  occ. eigenvalues --  -20.60854 -20.60845 -15.85887 -11.31169 -11.27834
 Alpha  occ. eigenvalues --  -11.27768 -11.27606 -11.26846 -11.26806 -11.21718
 Alpha  occ. eigenvalues --  -11.21525 -11.21383 -11.21184 -11.21171 -11.20995
 Alpha  occ. eigenvalues --   -1.59918  -1.39473  -1.19431  -1.08827  -1.08414
 Alpha  occ. eigenvalues --   -1.04837  -1.03543  -0.95982  -0.95659  -0.87008
 Alpha  occ. eigenvalues --   -0.86222  -0.82495  -0.79634  -0.78288  -0.77522
 Alpha  occ. eigenvalues --   -0.72114  -0.71229  -0.70539  -0.65119  -0.65020
 Alpha  occ. eigenvalues --   -0.64827  -0.62181  -0.60942  -0.59364  -0.57623
 Alpha  occ. eigenvalues --   -0.55347  -0.55269  -0.53370  -0.52920  -0.52646
 Alpha  occ. eigenvalues --   -0.52409  -0.49930  -0.48873  -0.48867  -0.47927
 Alpha  occ. eigenvalues --   -0.46657  -0.45759  -0.45545  -0.44855  -0.43774
 Alpha  occ. eigenvalues --   -0.37380  -0.36315
 Alpha virt. eigenvalues --    0.04960   0.11131   0.16309   0.20832   0.23078
 Alpha virt. eigenvalues --    0.23897   0.26191   0.26280   0.27422   0.28382
 Alpha virt. eigenvalues --    0.28902   0.30441   0.30890   0.31794   0.31928

 Mulliken charges:
               1
     1  C   -0.170963
     2  C   -0.220238
     3  C   -0.167205
     4  C    0.161270
     5  C   -0.167799
     6  C   -0.221303
     7  H    0.226171
     8  H    0.224263
     9  H    0.276498
    10  H    0.277610
    11  H    0.223865
    12  N    0.488771
    13  O   -0.460957
    14  O   -0.460432
    15  C   -0.307810
    16  C   -0.297970
    17  C   -0.480699
    18  H    0.151875
    19  H    0.156152
    20  H    0.153533
    21  H    0.148663
    22  H    0.151287
    23  H    0.160550
    24  H    0.158793
    25  C   -0.296477
    26  C   -0.304587
    27  C   -0.475352
    28  H    0.151907
    29  H    0.146788
    30  H    0.162071
    31  H    0.140766
    32  H    0.153340
    33  H    0.158301
    34  H    0.159316
 Sum of Mulliken charges =  -0.00000

 Dipole moment (field-independent basis, Debye):
    X=              0.0918    Y=              1.2525    Z=              4.9560  Tot=              5.1126
 Quadrupole moment (field-independent basis, Debye-Ang):
   XX=            -94.7024   YY=            -94.6842   ZZ=            -95.0877
   XY=             -4.7811   XZ=             -8.8277   YZ=             -3.8575

 Normal termination of Gaussian 16 at Thu May  6 19:05:21 2021.
