 Gaussian 16, Revision A.03,
 Gaussian 16:  EM64L-G16RevA.03 25-Dec-2016

 -------------
 #p 6-31g* mp2
 -------------

 ------------------------------------------------------
 Input file generated by CHIRIPA (05-May-2021 14:53:15)
 ------------------------------------------------------
 Symbolic Z-matrix:
 Charge =  0 Multiplicity = 1

                         Standard orientation:
 ---------------------------------------------------------------------
 Center     Atomic      Atomic             Coordinates (Angstroms)
 Number     Number       Type             X           Y           Z
 ---------------------------------------------------------------------
      1          6           0       -3.979772   -0.578953    0.017171
      2          6           0       -4.555643    0.811810    0.285754
      3          6           0       -6.058301    0.785219    0.567017
      4          1           0       -4.506073   -1.028250   -0.836107
      5          1           0       -4.180256   -1.224724    0.883301
      6          1           0       -4.352919    1.455157   -0.580053
      7          1           0       -4.027779    1.257926    1.138371
      8          1           0       -6.275288    0.165986    1.443412
      9          1           0       -6.602274    0.364338   -0.284777
     10          1           0       -6.449153    1.789847    0.756274
     11          6           0       -2.478569   -0.568772   -0.265700
     12          6           0       -1.902698   -1.959535   -0.534283
     13          6           0       -0.400041   -1.932944   -0.815545
     14          1           0       -2.278085    0.076999   -1.131829
     15          1           0       -1.952268   -0.119475    0.587578
     16          1           0       -2.430562   -2.405651   -1.386900
     17          1           0       -2.105422   -2.602882    0.331525
     18          1           0        0.143933   -1.512063    0.036248
     19          1           0       -0.183053   -1.313711   -1.691940
     20          1           0       -0.009189   -2.937572   -1.004803
     21          6           0        1.672942    2.730688   -0.562104
     22          6           0        2.040606    1.809031   -1.547950
     23          6           0        2.512801    0.541552   -1.194287
     24          6           0        2.604949    0.227680    0.160809
     25          6           0        2.246419    1.124153    1.166336
     26          6           0        1.776838    2.385915    0.789510
     27          1           0        1.307145    3.713075   -0.845835
     28          1           0        1.960970    2.074045   -2.598412
     29          1           0        2.804304   -0.191196   -1.936933
     30          1           0        2.336882    0.831094    2.205253
     31          1           0        1.492024    3.099670    1.557286
     32          7           0        3.103459   -1.111117    0.547477
     33          8           0        3.175288   -1.363256    1.748270
     34          8           0        3.412919   -1.882976   -0.357567
 ---------------------------------------------------------------------

 SCF Done:  E(RHF) =  -669.535156913     A.U. after   15 cycles
 E2 =    -0.2092901371D+01 EUMP2 =    -0.67162805828400D+03

 The electronic state is 1-A.
 Alpha  occ. eigenvalues --  -20.60767 -20.60752 -15.85797 -11.31140 -11.27745
 Alpha  occ. eigenvalues --  -11.27719 -11.27486 -11.26760 -11.26749 -11.21761
 Alpha  occ. eigenvalues --  -11.21475 -11.21443 -11.21370 -11.21211 -11.20829
 Alpha  occ. eigenvalues --   -1.59828  -1.39382  -1.19342  -1.08740  -1.08453
 Alpha  occ. eigenvalues --   -1.04747  -1.03524  -0.95969  -0.95572  -0.86991
 Alpha  occ. eigenvalues --   -0.86142  -0.82407  -0.79608  -0.78272  -0.77451
 Alpha  occ. eigenvalues --   -0.72026  -0.71159  -0.70452  -0.65087  -0.64996
 Alpha  occ. eigenvalues --   -0.64753  -0.62097  -0.60925  -0.59330  -0.57593
 Alpha  occ. eigenvalues --   -0.55267  -0.55251  -0.53207  -0.52843  -0.52628
 Alpha  occ. eigenvalues --   -0.52279  -0.49930  -0.48785  -0.48780  -0.47903
 Alpha  occ. eigenvalues --   -0.46649  -0.45806  -0.45740  -0.44785  -0.43755
 Alpha  occ. eigenvalues --   -0.37279  -0.36330
 Alpha virt. eigenvalues --    0.05064   0.11267   0.16544   0.21388   0.22816
 Alpha virt. eigenvalues --    0.24259   0.26520   0.27067   0.27449   0.27774
 Alpha virt. eigenvalues --    0.28461   0.30836   0.31175   0.31761   0.32173

 Mulliken charges:
               1
     1  C   -0.298283
     2  C   -0.298993
     3  C   -0.475603
     4  H    0.149784
     5  H    0.150824
     6  H    0.149700
     7  H    0.150278
     8  H    0.156146
     9  H    0.155623
    10  H    0.159231
    11  C   -0.297153
    12  C   -0.300886
    13  C   -0.474797
    14  H    0.146247
    15  H    0.148804
    16  H    0.151089
    17  H    0.154303
    18  H    0.152263
    19  H    0.148789
    20  H    0.169730
    21  C   -0.170206
    22  C   -0.219216
    23  C   -0.167762
    24  C    0.156893
    25  C   -0.173075
    26  C   -0.217995
    27  H    0.225526
    28  H    0.223135
    29  H    0.275749
    30  H    0.275404
    31  H    0.223287
    32  N    0.491628
    33  O   -0.461174
    34  O   -0.459289
 Sum of Mulliken charges =  -0.00000

 Dipole moment (field-independent basis, Debye):
    X=             -1.7049    Y=              4.6406    Z=             -1.3734  Tot=              5.1311
 Quadrupole moment (field-independent basis, Debye-Ang):
   XX=           -106.0200   YY=            -92.7140   ZZ=            -89.6734
   XY=             12.0033   XZ=             -4.1585   YZ=              1.6261

 Normal termination of Gaussian 16 at Wed May  5 17:09:03 2021.
