 Gaussian 16, Revision A.03,
 Gaussian 16:  EM64L-G16RevA.03 25-Dec-2016

 -------------
 #p 6-31g* mp2
 -------------

 ------------------------------------------------------
 Input file generated by CHIRIPA (05-May-2021 14:57:22)
 ------------------------------------------------------
 Symbolic Z-matrix:
 Charge =  0 Multiplicity = 1

                         Standard orientation:
 ---------------------------------------------------------------------
 Center     Atomic      Atomic             Coordinates (Angstroms)
 Number     Number       Type             X           Y           Z
 ---------------------------------------------------------------------
      1          6           0       -2.425072    2.017033    1.335626
      2          6           0       -2.472325    2.082214   -0.060812
      3          6           0       -2.249194    0.938287   -0.832947
      4          6           0       -1.980306   -0.259667   -0.172722
      5          6           0       -1.926487   -0.356708    1.216874
      6          6           0       -2.152784    0.799926    1.968896
      7          1           0       -2.599635    2.910598    1.927626
      8          1           0       -2.683566    3.026077   -0.555326
      9          1           0       -2.279829    0.960424   -1.915531
     10          1           0       -1.713573   -1.311905    1.681293
     11          1           0       -2.115463    0.746336    3.053230
     12          7           0       -1.742411   -1.477417   -0.979499
     13          8           0       -1.507494   -2.520736   -0.373747
     14          8           0       -1.795371   -1.365512   -2.202328
     15          6           0        2.200134    2.189281   -1.300044
     16          6           0        2.306492    2.228027    0.094125
     17          6           0        2.207963    1.053892    0.846620
     18          6           0        2.002052   -0.146984    0.169282
     19          6           0        1.891925   -0.218145   -1.218558
     20          6           0        1.993554    0.968471   -1.950788
     21          1           0        2.277877    3.106225   -1.876729
     22          1           0        2.466933    3.174695    0.602183
     23          1           0        2.286631    1.055160    1.927002
     24          1           0        1.732077   -1.176885   -1.696767
     25          1           0        1.910571    0.935369   -3.033407
     26          7           0        1.896103   -1.396595    0.955187
     27          8           0        1.714621   -2.441859    0.334604
     28          8           0        1.996548   -1.307114    2.176884
 ---------------------------------------------------------------------

 SCF Done:  E(RHF) =  -868.337179897     A.U. after   16 cycles
 E2 =    -0.2604320299D+01 EUMP2 =    -0.87094150019641D+03

 The electronic state is 1-A.
 Alpha  occ. eigenvalues --  -20.60644 -20.60573 -20.60485 -20.60418 -15.85592
 Alpha  occ. eigenvalues --  -15.85527 -11.31076 -11.31032 -11.27710 -11.27668
 Alpha  occ. eigenvalues --  -11.27564 -11.27509 -11.27446 -11.27411 -11.26758
 Alpha  occ. eigenvalues --  -11.26723 -11.26649 -11.26607  -1.59644  -1.59569
 Alpha  occ. eigenvalues --   -1.39192  -1.39105  -1.19285  -1.19200  -1.08659
 Alpha  occ. eigenvalues --   -1.08599  -1.04674  -1.04625  -0.95463  -0.95407
 Alpha  occ. eigenvalues --   -0.86075  -0.86032  -0.82285  -0.82216  -0.77323
 Alpha  occ. eigenvalues --   -0.77233  -0.71853  -0.71722  -0.71255  -0.70639
 Alpha  occ. eigenvalues --   -0.70369  -0.70318  -0.64917  -0.64861  -0.64678
 Alpha  occ. eigenvalues --   -0.64631  -0.62006  -0.61955  -0.55197  -0.55155
 Alpha  occ. eigenvalues --   -0.53422  -0.52763  -0.52717  -0.52554  -0.48605
 Alpha  occ. eigenvalues --   -0.48582  -0.48531  -0.48492  -0.44889  -0.44103
 Alpha  occ. eigenvalues --   -0.37598  -0.37077  -0.36306  -0.36025
 Alpha virt. eigenvalues --    0.05144   0.05282   0.11265   0.11486   0.16623
 Alpha virt. eigenvalues --    0.16781   0.21385   0.21637   0.27317   0.27530
 Alpha virt. eigenvalues --    0.28313   0.28555   0.30988   0.31033   0.32619

 Mulliken charges:
               1
     1  C   -0.172202
     2  C   -0.218302
     3  C   -0.169732
     4  C    0.157514
     5  C   -0.176002
     6  C   -0.218535
     7  H    0.223429
     8  H    0.219847
     9  H    0.271861
    10  H    0.285492
    11  H    0.226143
    12  N    0.485075
    13  O   -0.444830
    14  O   -0.469717
    15  C   -0.172419
    16  C   -0.218143
    17  C   -0.170228
    18  C    0.157229
    19  C   -0.177117
    20  C   -0.218644
    21  H    0.223099
    22  H    0.219822
    23  H    0.272205
    24  H    0.286813
    25  H    0.226454
    26  N    0.485096
    27  O   -0.445021
    28  O   -0.469188
 Sum of Mulliken charges =  -0.00000

 Dipole moment (field-independent basis, Debye):
    X=             -0.4587    Y=              8.3072    Z=              0.0719  Tot=              8.3201
 Quadrupole moment (field-independent basis, Debye-Ang):
   XX=           -101.7848   YY=           -106.1596   ZZ=           -100.2361
   XY=              0.4236   XZ=            -10.4373   YZ=             -0.3597

 Normal termination of Gaussian 16 at Wed May  5 17:48:00 2021.
