 Gaussian 16, Revision A.03,
 Gaussian 16:  EM64L-G16RevA.03 25-Dec-2016

 -------------
 #p 6-31g* mp2
 -------------

 ------------------------------------------------------
 Input file generated by CHIRIPA (05-May-2021 14:51:11)
 ------------------------------------------------------
 Symbolic Z-matrix:
 Charge =  0 Multiplicity = 1

                         Standard orientation:
 ---------------------------------------------------------------------
 Center     Atomic      Atomic             Coordinates (Angstroms)
 Number     Number       Type             X           Y           Z
 ---------------------------------------------------------------------
      1          6           0        2.484680    0.426517   -0.204445
      2          6           0        3.552864   -0.046829    0.781918
      3          6           0        4.149323   -1.402403    0.401851
      4          1           0        1.685391   -0.325276   -0.258209
      5          1           0        2.924727    0.487305   -1.209461
      6          1           0        3.111298   -0.105379    1.785016
      7          1           0        4.349609    0.706268    0.833483
      8          1           0        4.615384   -1.354425   -0.587637
      9          1           0        3.370036   -2.170683    0.369302
     10          1           0        4.910691   -1.721669    1.120354
     11          6           0        1.878979    1.780239    0.162015
     12          6           0        0.810795    2.253584   -0.824347
     13          6           0        0.214337    3.609158   -0.444280
     14          1           0        1.438933    1.719450    1.167032
     15          1           0        2.678268    2.532032    0.215779
     16          1           0        0.014050    1.500487   -0.875913
     17          1           0        1.252362    2.312134   -1.827446
     18          1           0        0.993623    4.377439   -0.411731
     19          1           0       -0.251725    3.561180    0.545208
     20          1           0       -0.547032    3.928425   -1.162784
     21          6           0       -1.547754   -1.478978    0.221976
     22          6           0       -1.126564   -2.543069   -0.792074
     23          6           0        0.143583   -3.285874   -0.376428
     24          1           0       -0.727007   -0.760386    0.352150
     25          1           0       -1.703920   -1.955587    1.199652
     26          1           0       -0.972581   -2.064815   -1.767871
     27          1           0       -1.948482   -3.259102   -0.919993
     28          1           0       -0.001505   -3.788903    0.585087
     29          1           0        0.979941   -2.587830   -0.267608
     30          1           0        0.426609   -4.041855   -1.115514
     31          6           0       -2.815904   -0.727777   -0.179546
     32          6           0       -3.237095    0.336313    0.834503
     33          6           0       -4.507242    1.079118    0.418858
     34          1           0       -2.659738   -0.251168   -1.157222
     35          1           0       -3.636652   -1.446368   -0.309721
     36          1           0       -2.415178    1.052347    0.962423
     37          1           0       -3.391079   -0.141939    1.810300
     38          1           0       -5.343600    0.381075    0.310037
     39          1           0       -4.362154    1.582148   -0.542657
     40          1           0       -4.790268    1.835100    1.157943
 ---------------------------------------------------------------------

 SCF Done:  E(RHF) =  -470.732468220     A.U. after   11 cycles
 E2 =    -0.1585391032D+01 EUMP2 =    -0.47231785925158D+03

 The electronic state is 1-A.
 Alpha  occ. eigenvalues --  -11.21673 -11.21647 -11.21643 -11.21620 -11.21456
 Alpha  occ. eigenvalues --  -11.21453 -11.21396 -11.21389 -11.21134 -11.21092
 Alpha  occ. eigenvalues --  -11.21091 -11.21057  -1.08538  -1.08436  -1.03606
 Alpha  occ. eigenvalues --   -1.03544  -0.96038  -0.96008  -0.87050  -0.87029
 Alpha  occ. eigenvalues --   -0.79690  -0.79595  -0.78423  -0.78190  -0.65514
 Alpha  occ. eigenvalues --   -0.64762  -0.61200  -0.60781  -0.59420  -0.59363
 Alpha  occ. eigenvalues --   -0.57666  -0.57601  -0.55399  -0.55241  -0.52715
 Alpha  occ. eigenvalues --   -0.52709  -0.52489  -0.52407  -0.50019  -0.49941
 Alpha  occ. eigenvalues --   -0.48122  -0.47838  -0.46898  -0.46594  -0.46247
 Alpha  occ. eigenvalues --   -0.45798  -0.45782  -0.45058  -0.43827  -0.43824
 Alpha virt. eigenvalues --    0.18936   0.21678   0.23563   0.24808   0.25730
 Alpha virt. eigenvalues --    0.26518   0.26764   0.27705   0.28250   0.29859
 Alpha virt. eigenvalues --    0.31268   0.31499   0.31630   0.32070   0.32342

 Mulliken charges:
               1
     1  C   -0.309659
     2  C   -0.299141
     3  C   -0.481036
     4  H    0.158983
     5  H    0.149784
     6  H    0.152034
     7  H    0.152139
     8  H    0.155111
     9  H    0.160592
    10  H    0.160567
    11  C   -0.297552
    12  C   -0.304833
    13  C   -0.476076
    14  H    0.149619
    15  H    0.150297
    16  H    0.155304
    17  H    0.152348
    18  H    0.155651
    19  H    0.155616
    20  H    0.160392
    21  C   -0.306274
    22  C   -0.299107
    23  C   -0.486189
    24  H    0.155394
    25  H    0.149862
    26  H    0.152369
    27  H    0.152467
    28  H    0.155263
    29  H    0.164102
    30  H    0.161098
    31  C   -0.298397
    32  C   -0.301568
    33  C   -0.475566
    34  H    0.150044
    35  H    0.150152
    36  H    0.153090
    37  H    0.152005
    38  H    0.155218
    39  H    0.155468
    40  H    0.160428
 Sum of Mulliken charges =  -0.00000

 Dipole moment (field-independent basis, Debye):
    X=              0.0009    Y=             -0.0019    Z=             -0.0039  Tot=              0.0044
 Quadrupole moment (field-independent basis, Debye-Ang):
   XX=            -84.9842   YY=            -85.3617   ZZ=            -84.2724
   XY=              1.8111   XZ=             -0.7471   YZ=             -0.6394

 Normal termination of Gaussian 16 at Wed May  5 21:30:05 2021.
