 Gaussian 16, Revision A.03,
 Gaussian 16:  EM64L-G16RevA.03 25-Dec-2016

 -------------
 #p 6-31g* mp2
 -------------

 ------------------------------------------------------
 Input file generated by CHIRIPA (05-May-2021 14:51:09)
 ------------------------------------------------------
 Symbolic Z-matrix:
 Charge =  0 Multiplicity = 1

                         Standard orientation:
 ---------------------------------------------------------------------
 Center     Atomic      Atomic             Coordinates (Angstroms)
 Number     Number       Type             X           Y           Z
 ---------------------------------------------------------------------
      1          6           0       -2.771471   -0.318063   -0.226755
      2          6           0       -3.529578   -1.523880    0.329361
      3          6           0       -2.911340   -2.856985   -0.093019
      4          1           0       -2.747693   -0.381794   -1.323257
      5          1           0       -1.727008   -0.362506    0.111648
      6          1           0       -4.572639   -1.476436   -0.008852
      7          1           0       -3.551720   -1.457170    1.424658
      8          1           0       -1.876847   -2.930219    0.257781
      9          1           0       -2.903567   -2.949595   -1.183874
     10          1           0       -3.468989   -3.705498    0.315532
     11          6           0       -3.377473    1.021880    0.186820
     12          6           0       -2.619367    2.227697   -0.369296
     13          6           0       -3.237604    3.560803    0.053085
     14          1           0       -4.421937    1.066323   -0.151582
     15          1           0       -3.401252    1.085612    1.283323
     16          1           0       -2.597225    2.160987   -1.464593
     17          1           0       -1.576305    2.180254   -0.031082
     18          1           0       -3.245378    3.653412    1.143940
     19          1           0       -4.272098    3.634036   -0.297716
     20          1           0       -2.679956    4.409315   -0.355466
     21          6           0        2.624280   -0.868066    0.358110
     22          6           0        2.336275   -2.087923   -0.517669
     23          6           0        1.434342   -3.111550    0.172620
     24          1           0        3.093252   -1.199521    1.294671
     25          1           0        1.673629   -0.392164    0.635911
     26          1           0        3.287257   -2.560578   -0.794878
     27          1           0        1.868108   -1.753507   -1.452336
     28          1           0        0.471240   -2.661680    0.434634
     29          1           0        1.898452   -3.473337    1.095828
     30          1           0        1.241367   -3.975339   -0.471188
     31          6           0        3.524665    0.164249   -0.318176
     32          6           0        3.812670    1.384106    0.557603
     33          6           0        4.714602    2.407732   -0.132685
     34          1           0        4.475316   -0.311654   -0.595977
     35          1           0        3.055692    0.495703   -1.254737
     36          1           0        4.280837    1.049690    1.492270
     37          1           0        2.861688    1.856761    0.834812
     38          1           0        4.250493    2.769520   -1.055894
     39          1           0        5.677705    1.957863   -0.394700
     40          1           0        4.907578    3.271522    0.511123
 ---------------------------------------------------------------------

 SCF Done:  E(RHF) =  -470.733303596     A.U. after   11 cycles
 E2 =    -0.1582802395D+01 EUMP2 =    -0.47231610599123D+03

 The electronic state is 1-A.
 Alpha  occ. eigenvalues --  -11.21645 -11.21617 -11.21610 -11.21610 -11.21448
 Alpha  occ. eigenvalues --  -11.21427 -11.21388 -11.21366 -11.21101 -11.21080
 Alpha  occ. eigenvalues --  -11.21078 -11.21026  -1.08465  -1.08444  -1.03564
 Alpha  occ. eigenvalues --   -1.03529  -0.96026  -0.95967  -0.87058  -0.86969
 Alpha  occ. eigenvalues --   -0.79660  -0.79561  -0.78297  -0.78241  -0.65150
 Alpha  occ. eigenvalues --   -0.65026  -0.61070  -0.60836  -0.59370  -0.59355
 Alpha  occ. eigenvalues --   -0.57658  -0.57566  -0.55461  -0.55130  -0.52707
 Alpha  occ. eigenvalues --   -0.52679  -0.52502  -0.52330  -0.50128  -0.49754
 Alpha  occ. eigenvalues --   -0.48026  -0.47833  -0.46785  -0.46494  -0.45927
 Alpha  occ. eigenvalues --   -0.45786  -0.45768  -0.45539  -0.43808  -0.43797
 Alpha virt. eigenvalues --    0.20356   0.23264   0.23411   0.24788   0.25543
 Alpha virt. eigenvalues --    0.26672   0.27012   0.27256   0.28611   0.29218
 Alpha virt. eigenvalues --    0.30273   0.31628   0.31740   0.31852   0.31956

 Mulliken charges:
               1
     1  C   -0.299509
     2  C   -0.299462
     3  C   -0.482462
     4  H    0.149819
     5  H    0.149088
     6  H    0.152025
     7  H    0.151898
     8  H    0.162507
     9  H    0.154969
    10  H    0.160399
    11  C   -0.298318
    12  C   -0.299512
    13  C   -0.475739
    14  H    0.149903
    15  H    0.149858
    16  H    0.151962
    17  H    0.151225
    18  H    0.155325
    19  H    0.155344
    20  H    0.160314
    21  C   -0.298958
    22  C   -0.299287
    23  C   -0.481812
    24  H    0.149710
    25  H    0.149140
    26  H    0.152025
    27  H    0.152654
    28  H    0.160137
    29  H    0.155224
    30  H    0.161145
    31  C   -0.298376
    32  C   -0.299584
    33  C   -0.475737
    34  H    0.149663
    35  H    0.150029
    36  H    0.151926
    37  H    0.151643
    38  H    0.155316
    39  H    0.155226
    40  H    0.160280
 Sum of Mulliken charges =  -0.00000

 Dipole moment (field-independent basis, Debye):
    X=              0.0053    Y=             -0.0101    Z=             -0.0082  Tot=              0.0141
 Quadrupole moment (field-independent basis, Debye-Ang):
   XX=            -84.2215   YY=            -86.2966   ZZ=            -84.1103
   XY=             -0.6161   XZ=              1.1126   YZ=             -0.0967

 Normal termination of Gaussian 16 at Wed May  5 22:57:51 2021.
