 Gaussian 16, Revision A.03,
 Gaussian 16:  EM64L-G16RevA.03 25-Dec-2016

 -------------
 #p 6-31g* mp2
 -------------

 ------------------------------------------------------
 Input file generated by CHIRIPA (05-May-2021 14:51:14)
 ------------------------------------------------------
 Symbolic Z-matrix:
 Charge =  0 Multiplicity = 1

                         Standard orientation:
 ---------------------------------------------------------------------
 Center     Atomic      Atomic             Coordinates (Angstroms)
 Number     Number       Type             X           Y           Z
 ---------------------------------------------------------------------
      1          6           0        4.391030   -0.688300   -0.028347
      2          6           0        5.517737    0.319533   -0.258103
      3          6           0        6.867561   -0.351166   -0.514877
      4          1           0        4.650745   -1.331031    0.823939
      5          1           0        4.313450   -1.347039   -0.904383
      6          1           0        5.592257    0.977059    0.617524
      7          1           0        5.255222    0.960063   -1.109821
      8          1           0        6.816575   -0.992998   -1.400344
      9          1           0        7.155525   -0.975905    0.336814
     10          1           0        7.658676    0.387667   -0.676507
     11          6           0        3.035386   -0.033044    0.229715
     12          6           0        1.908679   -1.040878    0.459471
     13          6           0        0.558855   -0.370179    0.716246
     14          1           0        3.112965    0.625694    1.105752
     15          1           0        2.775670    0.609686   -0.622570
     16          1           0        2.171193   -1.681408    1.311189
     17          1           0        1.834159   -1.698404   -0.416155
     18          1           0        0.270891    0.254561   -0.135446
     19          1           0        0.609840    0.271653    1.601713
     20          1           0       -0.232260   -1.109011    0.877875
     21          6           0       -3.182703    0.782699    0.251296
     22          6           0       -2.852242    2.080370   -0.486829
     23          6           0       -1.789304    2.913790    0.229670
     24          1           0       -3.526255    1.023189    1.266718
     25          1           0       -2.264802    0.189316    0.364214
     26          1           0       -3.770750    2.670500   -0.599541
     27          1           0       -2.509618    1.836772   -1.500675
     28          1           0       -0.857838    2.347132    0.329032
     29          1           0       -2.126136    3.185597    1.235287
     30          1           0       -1.568346    3.836922   -0.315182
     31          6           0       -4.243713   -0.061354   -0.452665
     32          6           0       -4.574174   -1.359026    0.285460
     33          6           0       -5.637112   -2.192445   -0.431039
     34          1           0       -5.161613    0.532028   -0.565583
     35          1           0       -3.900161   -0.301845   -1.468086
     36          1           0       -4.916797   -1.115428    1.299307
     37          1           0       -3.655664   -1.949155    0.398172
     38          1           0       -5.300279   -2.464253   -1.436656
     39          1           0       -6.568577   -1.625787   -0.530401
     40          1           0       -5.858069   -3.115578    0.113814
 ---------------------------------------------------------------------

 SCF Done:  E(RHF) =  -470.732186041     A.U. after   11 cycles
 E2 =    -0.1583763424D+01 EUMP2 =    -0.47231594946518D+03

 The electronic state is 1-A.
 Alpha  occ. eigenvalues --  -11.21678 -11.21632 -11.21555 -11.21489 -11.21460
 Alpha  occ. eigenvalues --  -11.21397 -11.21289 -11.21196 -11.21157 -11.21095
 Alpha  occ. eigenvalues --  -11.21034 -11.20903  -1.08493  -1.08323  -1.03613
 Alpha  occ. eigenvalues --   -1.03432  -0.96065  -0.95881  -0.87096  -0.86901
 Alpha  occ. eigenvalues --   -0.79744  -0.79461  -0.78322  -0.78094  -0.65144
 Alpha  occ. eigenvalues --   -0.64952  -0.61063  -0.60800  -0.59452  -0.59256
 Alpha  occ. eigenvalues --   -0.57751  -0.57425  -0.55347  -0.55180  -0.52828
 Alpha  occ. eigenvalues --   -0.52592  -0.52543  -0.52211  -0.50010  -0.49828
 Alpha  occ. eigenvalues --   -0.48092  -0.47713  -0.46745  -0.46493  -0.45925
 Alpha  occ. eigenvalues --   -0.45767  -0.45658  -0.45447  -0.43763  -0.43673
 Alpha virt. eigenvalues --    0.21596   0.23008   0.23819   0.24474   0.25816
 Alpha virt. eigenvalues --    0.26591   0.27024   0.27256   0.28047   0.29362
 Alpha virt. eigenvalues --    0.30633   0.31126   0.31825   0.31964   0.32445

 Mulliken charges:
               1
     1  C   -0.298338
     2  C   -0.299683
     3  C   -0.475745
     4  H    0.149809
     5  H    0.149570
     6  H    0.152095
     7  H    0.152053
     8  H    0.155201
     9  H    0.155230
    10  H    0.160406
    11  C   -0.298839
    12  C   -0.299977
    13  C   -0.480688
    14  H    0.149862
    15  H    0.149703
    16  H    0.152345
    17  H    0.152017
    18  H    0.157927
    19  H    0.157701
    20  H    0.161281
    21  C   -0.309132
    22  C   -0.298781
    23  C   -0.481849
    24  H    0.148408
    25  H    0.163819
    26  H    0.151401
    27  H    0.150197
    28  H    0.162270
    29  H    0.154389
    30  H    0.159009
    31  C   -0.297403
    32  C   -0.299563
    33  C   -0.475586
    34  H    0.149016
    35  H    0.148838
    36  H    0.151919
    37  H    0.150930
    38  H    0.155007
    39  H    0.155221
    40  H    0.159956
 Sum of Mulliken charges =  -0.00000

 Dipole moment (field-independent basis, Debye):
    X=              0.0905    Y=             -0.0368    Z=              0.0286  Tot=              0.1018
 Quadrupole moment (field-independent basis, Debye-Ang):
   XX=            -86.1285   YY=            -85.3780   ZZ=            -83.6809
   XY=             -0.4498   XZ=             -0.3053   YZ=             -0.0704

 Normal termination of Gaussian 16 at Wed May  5 20:02:29 2021.
