 Gaussian 16, Revision A.03,
 Gaussian 16:  EM64L-G16RevA.03 25-Dec-2016

 -------------
 #p 6-31g* mp2
 -------------

 ------------------------------------------------------
 Input file generated by CHIRIPA (05-May-2021 14:51:12)
 ------------------------------------------------------
 Symbolic Z-matrix:
 Charge =  0 Multiplicity = 1

                         Standard orientation:
 ---------------------------------------------------------------------
 Center     Atomic      Atomic             Coordinates (Angstroms)
 Number     Number       Type             X           Y           Z
 ---------------------------------------------------------------------
      1          6           0        2.896858    1.386982    0.038225
      2          6           0        1.411600    1.525636    0.374035
      3          6           0        0.981521    2.980701    0.562746
      4          1           0        3.491862    1.845681    0.839792
      5          1           0        3.113474    1.955910   -0.876539
      6          1           0        1.197571    0.955482    1.287124
      7          1           0        0.820067    1.066384   -0.428332
      8          1           0        1.166621    3.558415   -0.348618
      9          1           0        1.546270    3.446883    1.376585
     10          1           0       -0.083753    3.056655    0.802081
     11          6           0        3.341963   -0.061775   -0.153385
     12          6           0        4.827221   -0.200429   -0.489195
     13          6           0        5.257299   -1.655494   -0.677906
     14          1           0        3.125347   -0.630703    0.761379
     15          1           0        2.746958   -0.520473   -0.954952
     16          1           0        5.418753    0.258823    0.313172
     17          1           0        5.041249    0.369725   -1.402285
     18          1           0        4.692551   -2.121676   -1.491745
     19          1           0        5.072199   -2.233208    0.233458
     20          1           0        6.322574   -1.731447   -0.917241
     21          6           0       -3.515063   -0.064299   -0.204949
     22          6           0       -5.020610   -0.319828   -0.282535
     23          6           0       -5.798548    0.886344   -0.809558
     24          1           0       -3.329859    0.804306    0.441713
     25          1           0       -3.143918    0.204702   -1.203590
     26          1           0       -5.388560   -0.589616    0.715684
     27          1           0       -5.202239   -1.188042   -0.928934
     28          1           0       -5.459427    1.153842   -1.815561
     29          1           0       -5.646807    1.755669   -0.161598
     30          1           0       -6.872696    0.681815   -0.856827
     31          6           0       -2.723757   -1.260909    0.320109
     32          6           0       -1.218211   -1.005379    0.397695
     33          6           0       -0.440272   -2.211552    0.924718
     34          1           0       -3.094902   -1.529909    1.318750
     35          1           0       -2.908962   -2.129512   -0.326553
     36          1           0       -1.036581   -0.137166    1.044094
     37          1           0       -0.850260   -0.735591   -0.600525
     38          1           0       -0.592013   -3.080876    0.276758
     39          1           0       -0.779393   -2.479050    1.930721
     40          1           0        0.633875   -2.007022    0.971988
 ---------------------------------------------------------------------

 SCF Done:  E(RHF) =  -470.732022769     A.U. after   11 cycles
 E2 =    -0.1584361266D+01 EUMP2 =    -0.47231638403517D+03

 The electronic state is 1-A.
 Alpha  occ. eigenvalues --  -11.21612 -11.21588 -11.21487 -11.21480 -11.21410
 Alpha  occ. eigenvalues --  -11.21373 -11.21329 -11.21296 -11.21075 -11.21063
 Alpha  occ. eigenvalues --  -11.21046 -11.20992  -1.08456  -1.08360  -1.03574
 Alpha  occ. eigenvalues --   -1.03429  -0.95972  -0.95941  -0.87001  -0.86942
 Alpha  occ. eigenvalues --   -0.79844  -0.79362  -0.78415  -0.77991  -0.65121
 Alpha  occ. eigenvalues --   -0.64967  -0.61019  -0.60791  -0.59515  -0.59161
 Alpha  occ. eigenvalues --   -0.57621  -0.57517  -0.55266  -0.55225  -0.52713
 Alpha  occ. eigenvalues --   -0.52595  -0.52406  -0.52339  -0.49950  -0.49855
 Alpha  occ. eigenvalues --   -0.48294  -0.47551  -0.46833  -0.46427  -0.46019
 Alpha  occ. eigenvalues --   -0.45826  -0.45472  -0.45325  -0.43765  -0.43725
 Alpha virt. eigenvalues --    0.21275   0.23040   0.23807   0.24057   0.25043
 Alpha virt. eigenvalues --    0.26083   0.26418   0.27522   0.28777   0.29260
 Alpha virt. eigenvalues --    0.30586   0.31087   0.31664   0.31720   0.32259

 Mulliken charges:
               1
     1  C   -0.297838
     2  C   -0.303754
     3  C   -0.476396
     4  H    0.149089
     5  H    0.149112
     6  H    0.152771
     7  H    0.158363
     8  H    0.155077
     9  H    0.154761
    10  H    0.159922
    11  C   -0.300604
    12  C   -0.299514
    13  C   -0.475759
    14  H    0.150630
    15  H    0.149919
    16  H    0.152056
    17  H    0.152042
    18  H    0.155224
    19  H    0.155218
    20  H    0.160314
    21  C   -0.298086
    22  C   -0.299515
    23  C   -0.475673
    24  H    0.149068
    25  H    0.148970
    26  H    0.151924
    27  H    0.151940
    28  H    0.155090
    29  H    0.155112
    30  H    0.160215
    31  C   -0.297792
    32  C   -0.301224
    33  C   -0.480587
    34  H    0.149027
    35  H    0.149031
    36  H    0.156678
    37  H    0.151537
    38  H    0.154758
    39  H    0.154307
    40  H    0.164590
 Sum of Mulliken charges =  -0.00000

 Dipole moment (field-independent basis, Debye):
    X=              0.0198    Y=              0.0077    Z=             -0.0062  Tot=              0.0221
 Quadrupole moment (field-independent basis, Debye-Ang):
   XX=            -85.5995   YY=            -86.4209   ZZ=            -83.0090
   XY=              0.8901   XZ=             -0.0726   YZ=              0.3970

 Normal termination of Gaussian 16 at Wed May  5 15:16:45 2021.
