 Gaussian 16, Revision A.03,
 Gaussian 16:  EM64L-G16RevA.03 25-Dec-2016

 -------------
 #p 6-31g* mp2
 -------------

 ------------------------------------------------------
 Input file generated by CHIRIPA (05-May-2021 14:51:10)
 ------------------------------------------------------
 Symbolic Z-matrix:
 Charge =  0 Multiplicity = 1

                         Standard orientation:
 ---------------------------------------------------------------------
 Center     Atomic      Atomic             Coordinates (Angstroms)
 Number     Number       Type             X           Y           Z
 ---------------------------------------------------------------------
      1          6           0       -1.833513    1.804578    0.314522
      2          6           0       -0.479407    2.245382   -0.242320
      3          6           0        0.059493    3.502891    0.440358
      4          1           0       -2.555236    2.624640    0.198074
      5          1           0       -1.737000    1.624080    1.394105
      6          1           0       -0.578117    2.423661   -1.320786
      7          1           0        0.239126    1.424106   -0.124708
      8          1           0        0.186403    3.333749    1.514548
      9          1           0       -0.635483    4.338983    0.311674
     10          1           0        1.028264    3.800289    0.026960
     11          6           0       -2.385314    0.548767   -0.357923
     12          6           0       -3.739420    0.107964    0.198920
     13          6           0       -4.278320   -1.149546   -0.483758
     14          1           0       -2.481827    0.729266   -1.437506
     15          1           0       -1.663591   -0.271295   -0.241475
     16          1           0       -4.457953    0.929239    0.081307
     17          1           0       -3.640710   -0.070315    1.277386
     18          1           0       -3.583344   -1.985637   -0.355074
     19          1           0       -4.405230   -0.980404   -1.557949
     20          1           0       -5.247091   -1.446944   -0.070361
     21          6           0        1.668737   -1.618398    0.462287
     22          6           0        0.663935   -2.455101   -0.330357
     23          6           0       -0.210432   -3.333553    0.564964
     24          1           0        2.305882   -2.287813    1.056321
     25          1           0        1.125200   -0.986994    1.178730
     26          1           0        1.209121   -3.083725   -1.046052
     27          1           0        0.029234   -1.783627   -0.922720
     28          1           0       -0.779730   -2.719015    1.269836
     29          1           0        0.406861   -4.026500    1.145804
     30          1           0       -0.921422   -3.923100   -0.022222
     31          6           0        2.550090   -0.734948   -0.418886
     32          6           0        3.554892    0.101756    0.373758
     33          6           0        4.429259    0.980208   -0.521563
     34          1           0        3.093627   -1.366352   -1.135328
     35          1           0        1.912946   -0.065533   -1.012919
     36          1           0        4.189594   -0.569718    0.966121
     37          1           0        3.009707    0.730380    1.089452
     38          1           0        3.811967    1.673156   -1.102403
     39          1           0        4.998558    0.365670   -1.226434
     40          1           0        5.140249    1.569755    0.065622
 ---------------------------------------------------------------------

 SCF Done:  E(RHF) =  -470.732713277     A.U. after   11 cycles
 E2 =    -0.1585367901D+01 EUMP2 =    -0.47231808117830D+03

 The electronic state is 1-A.
 Alpha  occ. eigenvalues --  -11.21658 -11.21629 -11.21626 -11.21621 -11.21450
 Alpha  occ. eigenvalues --  -11.21447 -11.21383 -11.21365 -11.21153 -11.21136
 Alpha  occ. eigenvalues --  -11.21082 -11.21067  -1.08543  -1.08418  -1.03609
 Alpha  occ. eigenvalues --   -1.03538  -0.96030  -0.96016  -0.87064  -0.87011
 Alpha  occ. eigenvalues --   -0.79689  -0.79590  -0.78408  -0.78191  -0.65555
 Alpha  occ. eigenvalues --   -0.64717  -0.61216  -0.60773  -0.59413  -0.59352
 Alpha  occ. eigenvalues --   -0.57641  -0.57617  -0.55371  -0.55268  -0.52723
 Alpha  occ. eigenvalues --   -0.52705  -0.52509  -0.52385  -0.50082  -0.49853
 Alpha  occ. eigenvalues --   -0.48042  -0.47872  -0.46807  -0.46597  -0.46229
 Alpha  occ. eigenvalues --   -0.45802  -0.45764  -0.45201  -0.43823  -0.43819
 Alpha virt. eigenvalues --    0.19022   0.21363   0.23823   0.25148   0.25994
 Alpha virt. eigenvalues --    0.26348   0.26684   0.27827   0.28371   0.30363
 Alpha virt. eigenvalues --    0.31013   0.31228   0.31617   0.32264   0.32441

 Mulliken charges:
               1
     1  C   -0.297031
     2  C   -0.309704
     3  C   -0.475494
     4  H    0.150090
     5  H    0.148955
     6  H    0.151812
     7  H    0.161217
     8  H    0.155027
     9  H    0.155682
    10  H    0.160468
    11  C   -0.308466
    12  C   -0.298737
    13  C   -0.477701
    14  H    0.149293
    15  H    0.159726
    16  H    0.152085
    17  H    0.151567
    18  H    0.157343
    19  H    0.155003
    20  H    0.160365
    21  C   -0.300174
    22  C   -0.305137
    23  C   -0.477512
    24  H    0.150416
    25  H    0.149050
    26  H    0.153177
    27  H    0.156333
    28  H    0.155100
    29  H    0.155885
    30  H    0.161009
    31  C   -0.302954
    32  C   -0.300587
    33  C   -0.475841
    34  H    0.150484
    35  H    0.153639
    36  H    0.152085
    37  H    0.152510
    38  H    0.155387
    39  H    0.155261
    40  H    0.160368
 Sum of Mulliken charges =  -0.00000

 Dipole moment (field-independent basis, Debye):
    X=              0.0100    Y=             -0.0118    Z=             -0.0129  Tot=              0.0201
 Quadrupole moment (field-independent basis, Debye-Ang):
   XX=            -84.8574   YY=            -85.1072   ZZ=            -84.7249
   XY=             -1.7635   XZ=              0.4365   YZ=             -0.3538

 Normal termination of Gaussian 16 at Thu May  6 05:22:40 2021.
