 Gaussian 16, Revision A.03,
 Gaussian 16:  EM64L-G16RevA.03 25-Dec-2016

 -------------
 #p 6-31g* mp2
 -------------

 ------------------------------------------------------
 Input file generated by CHIRIPA (05-May-2021 14:55:25)
 ------------------------------------------------------
 Symbolic Z-matrix:
 Charge =  0 Multiplicity = 1

                         Standard orientation:
 ---------------------------------------------------------------------
 Center     Atomic      Atomic             Coordinates (Angstroms)
 Number     Number       Type             X           Y           Z
 ---------------------------------------------------------------------
      1          6           0        2.575198   -2.309989    0.676976
      2          6           0        3.004953   -1.854035   -0.573599
      3          6           0        3.078489   -0.484161   -0.843019
      4          6           0        2.712999    0.405874    0.165715
      5          6           0        2.280875   -0.017363    1.421673
      6          6           0        2.215166   -1.391817    1.668872
      7          1           0        2.521113   -3.375919    0.877637
      8          1           0        3.285186   -2.564809   -1.345813
      9          1           0        3.407706   -0.103787   -1.802367
     10          1           0        2.008133    0.715305    2.171491
     11          1           0        1.881047   -1.743046    2.641007
     12          7           0        2.786706    1.858522   -0.107746
     13          8           0        2.459131    2.622270    0.797804
     14          8           0        3.170657    2.205854   -1.222456
     15          6           0       -3.948133    0.354913   -0.129429
     16          6           0       -5.346250   -0.132652    0.252061
     17          6           0       -6.317275    1.015270    0.529866
     18          1           0       -3.552610    0.983926    0.679800
     19          1           0       -4.021226    0.997654   -1.017649
     20          1           0       -5.270374   -0.775401    1.138477
     21          1           0       -5.738412   -0.760734   -0.558086
     22          1           0       -6.422561    1.653148   -0.353666
     23          1           0       -5.951864    1.638398    1.352537
     24          1           0       -7.310648    0.644167    0.800703
     25          6           0       -2.966048   -0.781051   -0.410180
     26          6           0       -1.567931   -0.293485   -0.791669
     27          6           0       -0.596905   -1.441408   -1.069475
     28          1           0       -2.892955   -1.423792    0.478041
     29          1           0       -3.361570   -1.410063   -1.219408
     30          1           0       -1.175768    0.334597    0.018477
     31          1           0       -1.643806    0.349263   -1.678085
     32          1           0       -0.962317   -2.064536   -1.892145
     33          1           0       -0.491619   -2.079286   -0.185942
     34          1           0        0.396468   -1.070306   -1.340312
 ---------------------------------------------------------------------

 SCF Done:  E(RHF) =  -669.533586611     A.U. after   15 cycles
 E2 =    -0.2094371028D+01 EUMP2 =    -0.67162795763943D+03

 The electronic state is 1-A.
 Alpha  occ. eigenvalues --  -20.60825 -20.60820 -15.85880 -11.31279 -11.27859
 Alpha  occ. eigenvalues --  -11.27796 -11.27543 -11.26868 -11.26803 -11.21588
 Alpha  occ. eigenvalues --  -11.21517 -11.21386 -11.21307 -11.21028 -11.20919
 Alpha  occ. eigenvalues --   -1.59900  -1.39453  -1.19457  -1.08831  -1.08395
 Alpha  occ. eigenvalues --   -1.04862  -1.03486  -0.95944  -0.95664  -0.86969
 Alpha  occ. eigenvalues --   -0.86245  -0.82495  -0.79560  -0.78211  -0.77542
 Alpha  occ. eigenvalues --   -0.72096  -0.71227  -0.70542  -0.65094  -0.65035
 Alpha  occ. eigenvalues --   -0.64846  -0.62197  -0.60908  -0.59416  -0.57616
 Alpha  occ. eigenvalues --   -0.55338  -0.55326  -0.53663  -0.52936  -0.52406
 Alpha  occ. eigenvalues --   -0.51928  -0.49854  -0.48858  -0.48851  -0.47877
 Alpha  occ. eigenvalues --   -0.46596  -0.45752  -0.45687  -0.44852  -0.43745
 Alpha  occ. eigenvalues --   -0.37369  -0.36364
 Alpha virt. eigenvalues --    0.04972   0.11100   0.16458   0.21316   0.22870
 Alpha virt. eigenvalues --    0.24338   0.26626   0.27235   0.27453   0.27996
 Alpha virt. eigenvalues --    0.28335   0.30862   0.31413   0.31895   0.32358

 Mulliken charges:
               1
     1  C   -0.166967
     2  C   -0.214238
     3  C   -0.179752
     4  C    0.164458
     5  C   -0.171265
     6  C   -0.217202
     7  H    0.226054
     8  H    0.224357
     9  H    0.276000
    10  H    0.275881
    11  H    0.223740
    12  N    0.488001
    13  O   -0.460268
    14  O   -0.460273
    15  C   -0.298439
    16  C   -0.299436
    17  C   -0.475710
    18  H    0.150559
    19  H    0.151247
    20  H    0.150261
    21  H    0.151430
    22  H    0.156106
    23  H    0.155689
    24  H    0.159668
    25  C   -0.297896
    26  C   -0.299815
    27  C   -0.479255
    28  H    0.145924
    29  H    0.148818
    30  H    0.151744
    31  H    0.154203
    32  H    0.150209
    33  H    0.149053
    34  H    0.167113
 Sum of Mulliken charges =  -0.00000

 Dipole moment (field-independent basis, Debye):
    X=             -0.1162    Y=             -5.0897    Z=              0.9895  Tot=              5.1863
 Quadrupole moment (field-independent basis, Debye-Ang):
   XX=            -97.0097   YY=            -99.9289   ZZ=            -89.3316
   XY=            -14.2745   XZ=              1.3160   YZ=              0.2693

 Normal termination of Gaussian 16 at Thu May  6 00:04:43 2021.
