 Gaussian 16, Revision A.03,
 Gaussian 16:  EM64L-G16RevA.03 25-Dec-2016

 -------------
 #p 6-31g* mp2
 -------------

 ------------------------------------------------------
 Input file generated by CHIRIPA (05-May-2021 14:57:22)
 ------------------------------------------------------
 Symbolic Z-matrix:
 Charge =  0 Multiplicity = 1

                         Standard orientation:
 ---------------------------------------------------------------------
 Center     Atomic      Atomic             Coordinates (Angstroms)
 Number     Number       Type             X           Y           Z
 ---------------------------------------------------------------------
      1          6           0        3.568482   -2.126508    0.409731
      2          6           0        4.091279   -1.382833   -0.653355
      3          6           0        3.750148   -0.036532   -0.813514
      4          6           0        2.879626    0.536795    0.112108
      5          6           0        2.342204   -0.177734    1.181647
      6          6           0        2.697149   -1.522650    1.322230
      7          1           0        3.838847   -3.171809    0.526543
      8          1           0        4.768189   -1.849178   -1.363538
      9          1           0        4.140280    0.562503   -1.627378
     10          1           0        1.669758    0.314734    1.873535
     11          1           0        2.289608   -2.097755    2.148795
     12          7           0        2.511173    1.961331   -0.047084
     13          8           0        1.742273    2.443138    0.781947
     14          8           0        2.998257    2.569101   -0.997874
     15          6           0       -1.236517   -2.125634   -0.508868
     16          6           0       -0.831433   -0.787528   -0.465266
     17          6           0       -1.766804    0.231158   -0.260550
     18          6           0       -3.105071   -0.125714   -0.102523
     19          6           0       -3.539788   -1.449659   -0.140986
     20          6           0       -2.587021   -2.451854   -0.346875
     21          1           0       -0.503141   -2.910568   -0.668350
     22          1           0        0.216713   -0.531235   -0.590760
     23          1           0       -1.480662    1.275230   -0.222402
     24          1           0       -4.591719   -1.674104   -0.012602
     25          1           0       -2.904493   -3.490189   -0.380275
     26          7           0       -4.104515    0.943994    0.114820
     27          8           0       -5.277546    0.603382    0.251269
     28          8           0       -3.695923    2.102787    0.144609
 ---------------------------------------------------------------------

 SCF Done:  E(RHF) =  -868.336693301     A.U. after   16 cycles
 E2 =    -0.2602418145D+01 EUMP2 =    -0.87093911144529D+03

 The electronic state is 1-A.
 Alpha  occ. eigenvalues --  -20.61667 -20.61657 -20.60501 -20.60471 -15.86712
 Alpha  occ. eigenvalues --  -15.85542 -11.32208 -11.30996 -11.28783 -11.28763
 Alpha  occ. eigenvalues --  -11.28536 -11.27789 -11.27777 -11.27623 -11.27477
 Alpha  occ. eigenvalues --  -11.27406 -11.26686 -11.26510  -1.60742  -1.59565
 Alpha  occ. eigenvalues --   -1.40285  -1.39113  -1.20434  -1.19192  -1.09776
 Alpha  occ. eigenvalues --   -1.08588  -1.05809  -1.04596  -0.96577  -0.95396
 Alpha  occ. eigenvalues --   -0.87189  -0.85998  -0.83374  -0.82223  -0.78412
 Alpha  occ. eigenvalues --   -0.77245  -0.72900  -0.72106  -0.71758  -0.71461
 Alpha  occ. eigenvalues --   -0.70893  -0.70314  -0.66027  -0.65748  -0.64839
 Alpha  occ. eigenvalues --   -0.64651  -0.63106  -0.61952  -0.56267  -0.55181
 Alpha  occ. eigenvalues --   -0.54287  -0.53842  -0.52943  -0.52505  -0.49680
 Alpha  occ. eigenvalues --   -0.49663  -0.48531  -0.48503  -0.45643  -0.44498
 Alpha  occ. eigenvalues --   -0.38426  -0.37614  -0.37085  -0.36126
 Alpha virt. eigenvalues --    0.04050   0.05270   0.10137   0.11464   0.15516
 Alpha virt. eigenvalues --    0.16732   0.20522   0.21568   0.26482   0.27246
 Alpha virt. eigenvalues --    0.27420   0.28356   0.30227   0.31095   0.31687

 Mulliken charges:
               1
     1  C   -0.174249
     2  C   -0.218506
     3  C   -0.172500
     4  C    0.152173
     5  C   -0.181371
     6  C   -0.218087
     7  H    0.228422
     8  H    0.227265
     9  H    0.279550
    10  H    0.281019
    11  H    0.227921
    12  N    0.487409
    13  O   -0.458157
    14  O   -0.455416
    15  C   -0.175595
    16  C   -0.225240
    17  C   -0.176025
    18  C    0.158451
    19  C   -0.171527
    20  C   -0.219033
    21  H    0.220724
    22  H    0.230499
    23  H    0.286961
    24  H    0.274957
    25  H    0.220979
    26  N    0.487595
    27  O   -0.462578
    28  O   -0.455642
 Sum of Mulliken charges =  -0.00000

 Dipole moment (field-independent basis, Debye):
    X=              5.0877    Y=             -8.5882    Z=             -0.1628  Tot=              9.9834
 Quadrupole moment (field-independent basis, Debye-Ang):
   XX=           -115.1363   YY=           -107.7170   ZZ=           -102.1417
   XY=              0.0960   XZ=              0.8418   YZ=             -0.3535

 Normal termination of Gaussian 16 at Thu May  6 17:55:12 2021.
