 Gaussian 16, Revision A.03,
 Gaussian 16:  EM64L-G16RevA.03 25-Dec-2016

 -------------
 #p 6-31g* mp2
 -------------

 ------------------------------------------------------
 Input file generated by CHIRIPA (05-May-2021 14:57:24)
 ------------------------------------------------------
 Symbolic Z-matrix:
 Charge =  0 Multiplicity = 1

                         Standard orientation:
 ---------------------------------------------------------------------
 Center     Atomic      Atomic             Coordinates (Angstroms)
 Number     Number       Type             X           Y           Z
 ---------------------------------------------------------------------
      1          6           0        2.838642    2.682390   -0.055773
      2          6           0        2.971604    2.002963    1.159637
      3          6           0        3.187174    0.621798    1.181086
      4          6           0        3.264819   -0.051529   -0.037065
      5          6           0        3.136384    0.597148   -1.264262
      6          6           0        2.921311    1.978555   -1.261717
      7          1           0        2.671375    3.755406   -0.063115
      8          1           0        2.907839    2.546989    2.097729
      9          1           0        3.293671    0.070879    2.107673
     10          1           0        3.204548    0.027625   -2.183183
     11          1           0        2.818425    2.503594   -2.207124
     12          7           0        3.492771   -1.513834   -0.027059
     13          8           0        3.557292   -2.084062   -1.113942
     14          8           0        3.602601   -2.062073    1.067477
     15          6           0       -0.782220   -0.759511    0.289335
     16          6           0       -1.559275   -0.496119    1.422177
     17          6           0       -2.915009   -0.179228    1.295226
     18          6           0       -3.463626   -0.134368    0.014486
     19          6           0       -2.715634   -0.391800   -1.133350
     20          6           0       -1.361857   -0.706604   -0.982570
     21          1           0        0.270187   -1.004868    0.397209
     22          1           0       -1.111794   -0.536480    2.411204
     23          1           0       -3.539704    0.029087    2.155329
     24          1           0       -3.189859   -0.343912   -2.106095
     25          1           0       -0.760809   -0.910696   -1.864121
     26          7           0       -4.897845    0.200005   -0.132525
     27          8           0       -5.357409    0.233066   -1.271975
     28          8           0       -5.535265    0.422695    0.894481
 ---------------------------------------------------------------------

 SCF Done:  E(RHF) =  -868.338007481     A.U. after   16 cycles
 E2 =    -0.2600419143D+01 EUMP2 =    -0.87093842662333D+03

 The electronic state is 1-A.
 Alpha  occ. eigenvalues --  -20.61881 -20.61875 -20.60753 -20.60748 -15.86930
 Alpha  occ. eigenvalues --  -15.85807 -11.32250 -11.31129 -11.28789 -11.28776
 Alpha  occ. eigenvalues --  -11.28427 -11.27736 -11.27721 -11.27707 -11.27698
 Alpha  occ. eigenvalues --  -11.27386 -11.26693 -11.26671  -1.60974  -1.59831
 Alpha  occ. eigenvalues --   -1.40520  -1.39386  -1.20400  -1.19298  -1.09787
 Alpha  occ. eigenvalues --   -1.08688  -1.05765  -1.04699  -0.96627  -0.95533
 Alpha  occ. eigenvalues --   -0.87160  -0.86091  -0.83443  -0.82373  -0.78522
 Alpha  occ. eigenvalues --   -0.77433  -0.73120  -0.72371  -0.72024  -0.71442
 Alpha  occ. eigenvalues --   -0.71155  -0.70365  -0.66019  -0.65728  -0.64945
 Alpha  occ. eigenvalues --   -0.64698  -0.63102  -0.62051  -0.56210  -0.55265
 Alpha  occ. eigenvalues --   -0.54034  -0.53828  -0.53014  -0.52788  -0.49895
 Alpha  occ. eigenvalues --   -0.49881  -0.48783  -0.48779  -0.45918  -0.44801
 Alpha  occ. eigenvalues --   -0.38349  -0.37379  -0.37241  -0.36309
 Alpha virt. eigenvalues --    0.03961   0.05108   0.10240   0.11353   0.15500
 Alpha virt. eigenvalues --    0.16620   0.20522   0.21285   0.26377   0.27243
 Alpha virt. eigenvalues --    0.27498   0.27620   0.30314   0.30702   0.31620

 Mulliken charges:
               1
     1  C   -0.168994
     2  C   -0.216461
     3  C   -0.177323
     4  C    0.150732
     5  C   -0.175250
     6  C   -0.216757
     7  H    0.230466
     8  H    0.226910
     9  H    0.276166
    10  H    0.276441
    11  H    0.227397
    12  N    0.487341
    13  O   -0.458274
    14  O   -0.459223
    15  C   -0.168087
    16  C   -0.220560
    17  C   -0.171376
    18  C    0.157871
    19  C   -0.171458
    20  C   -0.220146
    21  H    0.228114
    22  H    0.222664
    23  H    0.274726
    24  H    0.274861
    25  H    0.224098
    26  N    0.488072
    27  O   -0.460928
    28  O   -0.461023
 Sum of Mulliken charges =  -0.00000

 Dipole moment (field-independent basis, Debye):
    X=              4.4642    Y=              4.1501    Z=              0.4525  Tot=              6.1121
 Quadrupole moment (field-independent basis, Debye-Ang):
   XX=           -146.5561   YY=           -105.8484   ZZ=            -94.7024
   XY=             20.8786   XZ=             -2.2148   YZ=              0.2718

 Normal termination of Gaussian 16 at Thu May  6 14:39:51 2021.
