 Gaussian 16, Revision A.03,
 Gaussian 16:  EM64L-G16RevA.03 25-Dec-2016

 -------------
 #p 6-31g* mp2
 -------------

 ------------------------------------------------------
 Input file generated by CHIRIPA (05-May-2021 14:51:08)
 ------------------------------------------------------
 Symbolic Z-matrix:
 Charge =  0 Multiplicity = 1

                         Standard orientation:
 ---------------------------------------------------------------------
 Center     Atomic      Atomic             Coordinates (Angstroms)
 Number     Number       Type             X           Y           Z
 ---------------------------------------------------------------------
      1          6           0       -1.883372    1.236493    0.480404
      2          6           0       -0.853005    2.191555   -0.123074
      3          6           0        0.061306    2.817361    0.930584
      4          1           0       -2.489731    1.779844    1.217998
      5          1           0       -1.359244    0.442699    1.030473
      6          1           0       -1.378882    2.982535   -0.673002
      7          1           0       -0.249155    1.645915   -0.859456
      8          1           0        0.611739    2.041642    1.472697
      9          1           0       -0.524407    3.385856    1.660210
     10          1           0        0.790090    3.496562    0.477354
     11          6           0       -2.804751    0.602929   -0.560454
     12          6           0       -3.835118   -0.352133    0.043024
     13          6           0       -4.749429   -0.977939   -1.010635
     14          1           0       -3.328879    1.396723   -1.110523
     15          1           0       -2.198392    0.059578   -1.298048
     16          1           0       -4.438968    0.193506    0.779406
     17          1           0       -3.309241   -1.143113    0.592952
     18          1           0       -4.163716   -1.546435   -1.740260
     19          1           0       -5.299862   -0.202221   -1.552747
     20          1           0       -5.478213   -1.657141   -0.557404
     21          6           0        1.891103   -1.224986    0.573943
     22          6           0        0.584023   -1.785287    0.012170
     23          6           0       -0.311487   -2.392593    1.092463
     24          1           0        2.433180   -2.027031    1.093386
     25          1           0        1.659853   -0.462854    1.330960
     26          1           0        0.817675   -2.545150   -0.744554
     27          1           0        0.045086   -0.981861   -0.506162
     28          1           0       -0.573546   -1.640259    1.843409
     29          1           0        0.203433   -3.212431    1.603662
     30          1           0       -1.240382   -2.787070    0.668903
     31          6           0        2.797020   -0.614436   -0.493892
     32          6           0        4.104100   -0.054135    0.067880
     33          6           0        4.999610    0.553172   -1.012413
     34          1           0        3.028269   -1.376567   -1.250909
     35          1           0        2.254942    0.187609   -1.013337
     36          1           0        4.643038   -0.857561    0.586211
     37          1           0        3.870448    0.705729    0.824604
     38          1           0        4.484689    1.373009   -1.523612
     39          1           0        5.261669   -0.199163   -1.763359
     40          1           0        5.928505    0.947648   -0.588853
 ---------------------------------------------------------------------

 SCF Done:  E(RHF) =  -470.731838139     A.U. after   11 cycles
 E2 =    -0.1586598943D+01 EUMP2 =    -0.47231843708192D+03

 The electronic state is 1-A.
 Alpha  occ. eigenvalues --  -11.21666 -11.21659 -11.21625 -11.21556 -11.21472
 Alpha  occ. eigenvalues --  -11.21406 -11.21394 -11.21329 -11.21171 -11.21149
 Alpha  occ. eigenvalues --  -11.21085 -11.21058  -1.08575  -1.08377  -1.03603
 Alpha  occ. eigenvalues --   -1.03548  -0.96101  -0.95956  -0.87070  -0.87018
 Alpha  occ. eigenvalues --   -0.79679  -0.79608  -0.78382  -0.78190  -0.65786
 Alpha  occ. eigenvalues --   -0.64589  -0.61093  -0.60809  -0.59455  -0.59315
 Alpha  occ. eigenvalues --   -0.57717  -0.57555  -0.55703  -0.54948  -0.52765
 Alpha  occ. eigenvalues --   -0.52689  -0.52521  -0.52366  -0.50048  -0.49915
 Alpha  occ. eigenvalues --   -0.48055  -0.47873  -0.46781  -0.46687  -0.46074
 Alpha  occ. eigenvalues --   -0.45912  -0.45545  -0.45336  -0.43829  -0.43795
 Alpha virt. eigenvalues --    0.18706   0.21714   0.23622   0.24452   0.25348
 Alpha virt. eigenvalues --    0.25888   0.26855   0.28244   0.29015   0.30048
 Alpha virt. eigenvalues --    0.30639   0.30977   0.31595   0.32105   0.32564

 Mulliken charges:
               1
     1  C   -0.307567
     2  C   -0.302852
     3  C   -0.478632
     4  H    0.150480
     5  H    0.158651
     6  H    0.152664
     7  H    0.153474
     8  H    0.156888
     9  H    0.155859
    10  H    0.160350
    11  C   -0.299969
    12  C   -0.304557
    13  C   -0.475807
    14  H    0.149816
    15  H    0.150716
    16  H    0.151716
    17  H    0.157557
    18  H    0.154938
    19  H    0.155152
    20  H    0.160168
    21  C   -0.301031
    22  C   -0.309106
    23  C   -0.480480
    24  H    0.150430
    25  H    0.151660
    26  H    0.152939
    27  H    0.160341
    28  H    0.156559
    29  H    0.156529
    30  H    0.162418
    31  C   -0.300803
    32  C   -0.299905
    33  C   -0.475786
    34  H    0.149734
    35  H    0.151956
    36  H    0.151981
    37  H    0.152616
    38  H    0.155348
    39  H    0.155123
    40  H    0.160431
 Sum of Mulliken charges =  -0.00000

 Dipole moment (field-independent basis, Debye):
    X=              0.0141    Y=             -0.0211    Z=              0.0145  Tot=              0.0292
 Quadrupole moment (field-independent basis, Debye-Ang):
   XX=            -85.2890   YY=            -83.8451   ZZ=            -85.6072
   XY=             -1.6543   XZ=             -0.1455   YZ=              0.1694

 Normal termination of Gaussian 16 at Thu May  6 08:26:20 2021.
