 Gaussian 16, Revision A.03,
 Gaussian 16:  EM64L-G16RevA.03 25-Dec-2016

 -------------
 #p 6-31g* mp2
 -------------

 ------------------------------------------------------
 Input file generated by CHIRIPA (05-May-2021 14:51:07)
 ------------------------------------------------------
 Symbolic Z-matrix:
 Charge =  0 Multiplicity = 1

                         Standard orientation:
 ---------------------------------------------------------------------
 Center     Atomic      Atomic             Coordinates (Angstroms)
 Number     Number       Type             X           Y           Z
 ---------------------------------------------------------------------
      1          6           0        2.929959    0.397249    0.174724
      2          6           0        4.091790    0.342220   -0.817801
      3          6           0        4.658282    1.724879   -1.142043
      4          1           0        2.134547    1.033737   -0.236550
      5          1           0        3.270373    0.881378    1.100539
      6          1           0        3.749662   -0.142907   -1.740957
      7          1           0        4.884449   -0.294366   -0.404201
      8          1           0        5.026179    2.213135   -0.233825
      9          1           0        3.884944    2.365455   -1.578177
     10          1           0        5.487764    1.662188   -1.853302
     11          6           0        2.352966   -0.977231    0.508807
     12          6           0        1.191136   -0.922202    1.501332
     13          6           0        0.624644   -2.304861    1.825574
     14          1           0        2.012553   -1.461360   -0.417008
     15          1           0        3.148379   -1.613719    0.920081
     16          1           0        0.398476   -0.285616    1.087732
     17          1           0        1.533264   -0.437075    2.424488
     18          1           0        1.397982   -2.945436    2.261708
     19          1           0        0.256747   -2.793117    0.917356
     20          1           0       -0.204838   -2.242170    2.536833
     21          6           0       -2.739073    0.784146    0.232443
     22          6           0       -2.691673    2.246577   -0.211442
     23          6           0       -2.888520    3.223105    0.948488
     24          1           0       -3.703466    0.586709    0.720204
     25          1           0       -1.963805    0.613517    0.992207
     26          1           0       -3.465890    2.414060   -0.971149
     27          1           0       -1.727357    2.440506   -0.698373
     28          1           0       -2.109168    3.084941    1.704874
     29          1           0       -3.857578    3.058344    1.430548
     30          1           0       -2.851028    4.262824    0.608725
     31          6           0       -2.543853   -0.204164   -0.915974
     32          6           0       -2.591253   -1.666595   -0.472089
     33          6           0       -2.394405   -2.643124   -1.632019
     34          1           0       -3.319120   -0.033535   -1.675738
     35          1           0       -1.579460   -0.006727   -1.403734
     36          1           0       -3.555569   -1.860524    0.014842
     37          1           0       -1.817037   -1.834078    0.287618
     38          1           0       -1.425348   -2.478363   -2.114079
     39          1           0       -3.173758   -2.504958   -2.388405
     40          1           0       -2.431898   -3.682842   -1.292256
 ---------------------------------------------------------------------

 SCF Done:  E(RHF) =  -470.732613017     A.U. after   11 cycles
 E2 =    -0.1584411156D+01 EUMP2 =    -0.47231702417327D+03

 The electronic state is 1-A.
 Alpha  occ. eigenvalues --  -11.21689 -11.21651 -11.21617 -11.21513 -11.21478
 Alpha  occ. eigenvalues --  -11.21418 -11.21408 -11.21350 -11.21136 -11.21108
 Alpha  occ. eigenvalues --  -11.21083 -11.21075  -1.08523  -1.08417  -1.03626
 Alpha  occ. eigenvalues --   -1.03506  -0.96057  -0.95982  -0.87078  -0.86990
 Alpha  occ. eigenvalues --   -0.79709  -0.79549  -0.78331  -0.78238  -0.65426
 Alpha  occ. eigenvalues --   -0.64846  -0.61234  -0.60700  -0.59432  -0.59331
 Alpha  occ. eigenvalues --   -0.57680  -0.57579  -0.55408  -0.55228  -0.52747
 Alpha  occ. eigenvalues --   -0.52666  -0.52475  -0.52402  -0.50107  -0.49845
 Alpha  occ. eigenvalues --   -0.47995  -0.47900  -0.46852  -0.46422  -0.46010
 Alpha  occ. eigenvalues --   -0.45785  -0.45758  -0.45484  -0.43852  -0.43781
 Alpha virt. eigenvalues --    0.19505   0.23153   0.23381   0.24799   0.25852
 Alpha virt. eigenvalues --    0.26444   0.26757   0.27960   0.28884   0.29448
 Alpha virt. eigenvalues --    0.31244   0.31501   0.31655   0.31820   0.32345

 Mulliken charges:
               1
     1  C   -0.298340
     2  C   -0.299720
     3  C   -0.475761
     4  H    0.149015
     5  H    0.149811
     6  H    0.151994
     7  H    0.152175
     8  H    0.155295
     9  H    0.155210
    10  H    0.160481
    11  C   -0.297824
    12  C   -0.307742
    13  C   -0.480218
    14  H    0.149356
    15  H    0.150205
    16  H    0.157990
    17  H    0.152601
    18  H    0.156974
    19  H    0.157723
    20  H    0.160878
    21  C   -0.303738
    22  C   -0.299315
    23  C   -0.475807
    24  H    0.150069
    25  H    0.153885
    26  H    0.152115
    27  H    0.151219
    28  H    0.155487
    29  H    0.155220
    30  H    0.160287
    31  C   -0.297594
    32  C   -0.310173
    33  C   -0.475759
    34  H    0.149681
    35  H    0.148265
    36  H    0.151639
    37  H    0.164749
    38  H    0.153912
    39  H    0.155419
    40  H    0.160335
 Sum of Mulliken charges =  -0.00000

 Dipole moment (field-independent basis, Debye):
    X=              0.0236    Y=             -0.0162    Z=              0.0357  Tot=              0.0458
 Quadrupole moment (field-independent basis, Debye-Ang):
   XX=            -83.5614   YY=            -86.3035   ZZ=            -84.8153
   XY=             -0.4199   XZ=              0.9036   YZ=             -0.4131

 Normal termination of Gaussian 16 at Wed May  5 18:04:09 2021.
