 Gaussian 16, Revision A.03,
 Gaussian 16:  EM64L-G16RevA.03 25-Dec-2016

 -------------
 #p 6-31g* mp2
 -------------

 ------------------------------------------------------
 Input file generated by CHIRIPA (05-May-2021 14:55:21)
 ------------------------------------------------------
 Symbolic Z-matrix:
 Charge =  0 Multiplicity = 1

                         Standard orientation:
 ---------------------------------------------------------------------
 Center     Atomic      Atomic             Coordinates (Angstroms)
 Number     Number       Type             X           Y           Z
 ---------------------------------------------------------------------
      1          6           0       -1.510092    2.116020   -0.236336
      2          6           0       -0.854520    0.901192   -0.462034
      3          6           0       -1.547476   -0.308893   -0.361763
      4          6           0       -2.901390   -0.267045   -0.032435
      5          6           0       -3.582533    0.927148    0.198294
      6          6           0       -2.869609    2.125105    0.092528
      7          1           0       -0.964031    3.051333   -0.316364
      8          1           0        0.201242    0.891104   -0.717589
      9          1           0       -1.064644   -1.263640   -0.531318
     10          1           0       -4.635561    0.905243    0.451415
     11          1           0       -3.381322    3.067061    0.268350
     12          7           0       -3.645561   -1.541688    0.076626
     13          8           0       -4.837862   -1.477837    0.368139
     14          8           0       -3.022451   -2.580470   -0.131470
     15          6           0        4.133657   -0.417767    0.163937
     16          6           0        3.751001   -1.869874   -0.124067
     17          6           0        4.915558   -2.839550    0.079234
     18          1           0        4.970418   -0.129730   -0.487070
     19          1           0        4.500312   -0.340474    1.196887
     20          1           0        3.383877   -1.944148   -1.155725
     21          1           0        2.914928   -2.154428    0.527567
     22          1           0        5.278361   -2.794910    1.111214
     23          1           0        5.749974   -2.583436   -0.581642
     24          1           0        4.619930   -3.871928   -0.132092
     25          6           0        2.979923    0.563607   -0.034887
     26          6           0        3.362577    2.015714    0.253116
     27          6           0        2.198021    2.985390    0.049816
     28          1           0        2.613268    0.486314   -1.067837
     29          1           0        2.143161    0.275569    0.616119
     30          1           0        4.198651    2.300268   -0.398517
     31          1           0        3.729703    2.089989    1.284775
     32          1           0        1.363605    2.729276    0.710692
     33          1           0        1.835218    2.940750   -0.982164
     34          1           0        2.493650    4.017768    0.261142
 ---------------------------------------------------------------------

 SCF Done:  E(RHF) =  -669.534237505     A.U. after   15 cycles
 E2 =    -0.2093678402D+01 EUMP2 =    -0.67162791590718D+03

 The electronic state is 1-A.
 Alpha  occ. eigenvalues --  -20.60670 -20.60665 -15.85720 -11.31052 -11.27618
 Alpha  occ. eigenvalues --  -11.27582 -11.27276 -11.26623 -11.26453 -11.22707
 Alpha  occ. eigenvalues --  -11.22522 -11.22428 -11.22215 -11.22143 -11.21491
 Alpha  occ. eigenvalues --   -1.59746  -1.39301  -1.19209  -1.09388  -1.08604
 Alpha  occ. eigenvalues --   -1.04625  -1.04403  -0.96918  -0.95448  -0.87938
 Alpha  occ. eigenvalues --   -0.86016  -0.82287  -0.80556  -0.79215  -0.77310
 Alpha  occ. eigenvalues --   -0.71939  -0.71069  -0.70316  -0.65991  -0.64857
 Alpha  occ. eigenvalues --   -0.64636  -0.62008  -0.61801  -0.60229  -0.58519
 Alpha  occ. eigenvalues --   -0.56216  -0.55127  -0.53554  -0.53333  -0.52943
 Alpha  occ. eigenvalues --   -0.52696  -0.50841  -0.48831  -0.48697  -0.48630
 Alpha  occ. eigenvalues --   -0.47554  -0.46628  -0.46583  -0.44714  -0.44677
 Alpha  occ. eigenvalues --   -0.37170  -0.36195
 Alpha virt. eigenvalues --    0.05157   0.11319   0.16594   0.20721   0.22341
 Alpha virt. eigenvalues --    0.23676   0.25343   0.25612   0.26271   0.28315
 Alpha virt. eigenvalues --    0.29580   0.29961   0.30645   0.31209   0.31718

 Mulliken charges:
               1
     1  C   -0.178193
     2  C   -0.226733
     3  C   -0.176170
     4  C    0.158826
     5  C   -0.171583
     6  C   -0.218814
     7  H    0.230290
     8  H    0.241488
     9  H    0.275407
    10  H    0.274907
    11  H    0.222749
    12  N    0.488062
    13  O   -0.460956
    14  O   -0.460821
    15  C   -0.296790
    16  C   -0.301593
    17  C   -0.476409
    18  H    0.152206
    19  H    0.153023
    20  H    0.151622
    21  H    0.153517
    22  H    0.156684
    23  H    0.155941
    24  H    0.163921
    25  C   -0.311010
    26  C   -0.296873
    27  C   -0.490151
    28  H    0.145597
    29  H    0.152378
    30  H    0.156485
    31  H    0.157439
    32  H    0.157604
    33  H    0.150927
    34  H    0.167023
 Sum of Mulliken charges =  -0.00000

 Dipole moment (field-independent basis, Debye):
    X=              2.9560    Y=              4.4653    Z=             -0.3134  Tot=              5.3642
 Quadrupole moment (field-independent basis, Debye-Ang):
   XX=           -106.2396   YY=            -96.7042   ZZ=            -94.3665
   XY=            -15.6763   XZ=             -0.1788   YZ=              0.6807

 Normal termination of Gaussian 16 at Thu May  6 07:45:34 2021.
