 Gaussian 16, Revision A.03,
 Gaussian 16:  EM64L-G16RevA.03 25-Dec-2016

 -------------
 #p 6-31g* mp2
 -------------

 ------------------------------------------------------
 Input file generated by CHIRIPA (05-May-2021 14:57:24)
 ------------------------------------------------------
 Symbolic Z-matrix:
 Charge =  0 Multiplicity = 1

                         Standard orientation:
 ---------------------------------------------------------------------
 Center     Atomic      Atomic             Coordinates (Angstroms)
 Number     Number       Type             X           Y           Z
 ---------------------------------------------------------------------
      1          6           0       -4.868083   -1.569533    0.113190
      2          6           0       -5.340601   -0.254677    0.179525
      3          6           0       -4.460515    0.823567    0.047665
      4          6           0       -3.108168    0.549312   -0.150403
      5          6           0       -2.606838   -0.749523   -0.221009
      6          6           0       -3.505113   -1.812332   -0.086513
      7          1           0       -5.558820   -2.401144    0.216646
      8          1           0       -6.398583   -0.063125    0.334533
      9          1           0       -4.799369    1.851357    0.095035
     10          1           0       -1.546719   -0.908947   -0.376407
     11          1           0       -3.135323   -2.832432   -0.138447
     12          7           0       -2.166833    1.682630   -0.291392
     13          8           0       -0.980032    1.414396   -0.465148
     14          8           0       -2.633639    2.817700   -0.225473
     15          6           0        4.907798    1.545088   -0.023133
     16          6           0        3.837108    1.612961    0.874384
     17          6           0        2.919833    0.561897    0.966144
     18          6           0        3.104328   -0.546949    0.141696
     19          6           0        4.160902   -0.644177   -0.762456
     20          6           0        5.065998    0.418721   -0.837253
     21          1           0        5.615627    2.366177   -0.087826
     22          1           0        3.711761    2.486475    1.507872
     23          1           0        2.081957    0.588319    1.652207
     24          1           0        4.259662   -1.527980   -1.380967
     25          1           0        5.896569    0.363273   -1.535196
     26          7           0        2.139697   -1.665928    0.229859
     27          8           0        2.324351   -2.631812   -0.507438
     28          8           0        1.217232   -1.555911    1.034590
 ---------------------------------------------------------------------

 SCF Done:  E(RHF) =  -868.340675681     A.U. after   16 cycles
 E2 =    -0.2598411494D+01 EUMP2 =    -0.87093908717524D+03

 The electronic state is 1-A.
 Alpha  occ. eigenvalues --  -20.60689 -20.60684 -20.60365 -20.60360 -15.85705
 Alpha  occ. eigenvalues --  -15.85408 -11.30712 -11.30513 -11.27313 -11.27208
 Alpha  occ. eigenvalues --  -11.27153 -11.26998 -11.26922 -11.26835 -11.26266
 Alpha  occ. eigenvalues --  -11.26174 -11.26129 -11.25957  -1.59751  -1.59444
 Alpha  occ. eigenvalues --   -1.39311  -1.39000  -1.18871  -1.18688  -1.08346
 Alpha  occ. eigenvalues --   -1.08147  -1.04228  -1.04036  -0.95236  -0.95011
 Alpha  occ. eigenvalues --   -0.85652  -0.85458  -0.82084  -0.81843  -0.77158
 Alpha  occ. eigenvalues --   -0.76897  -0.71953  -0.71646  -0.71031  -0.70757
 Alpha  occ. eigenvalues --   -0.70009  -0.69799  -0.64544  -0.64344  -0.64252
 Alpha  occ. eigenvalues --   -0.64040  -0.61585  -0.61360  -0.54786  -0.54596
 Alpha  occ. eigenvalues --   -0.52565  -0.52411  -0.52334  -0.52116  -0.48712
 Alpha  occ. eigenvalues --   -0.48684  -0.48393  -0.48375  -0.44790  -0.44457
 Alpha  occ. eigenvalues --   -0.36846  -0.36699  -0.35795  -0.35630
 Alpha virt. eigenvalues --    0.05315   0.05616   0.11856   0.12015   0.16871
 Alpha virt. eigenvalues --    0.17116   0.21895   0.22207   0.27860   0.28109
 Alpha virt. eigenvalues --    0.28685   0.29151   0.31378   0.31742   0.32872

 Mulliken charges:
               1
     1  C   -0.170714
     2  C   -0.219675
     3  C   -0.171854
     4  C    0.155252
     5  C   -0.170413
     6  C   -0.220686
     7  H    0.223948
     8  H    0.220493
     9  H    0.272317
    10  H    0.288480
    11  H    0.228981
    12  N    0.488181
    13  O   -0.462967
    14  O   -0.464459
    15  C   -0.169515
    16  C   -0.217631
    17  C   -0.161026
    18  C    0.158084
    19  C   -0.170813
    20  C   -0.219022
    21  H    0.224839
    22  H    0.224967
    23  H    0.278583
    24  H    0.272882
    25  H    0.221526
    26  N    0.488736
    27  O   -0.463553
    28  O   -0.464941
 Sum of Mulliken charges =  -0.00000

 Dipole moment (field-independent basis, Debye):
    X=              0.2549    Y=             -0.0792    Z=              0.2361  Tot=              0.3564
 Quadrupole moment (field-independent basis, Debye-Ang):
   XX=            -60.6618   YY=           -111.2914   ZZ=           -103.8330
   XY=             17.9455   XZ=             -4.0376   YZ=              4.1631

 Normal termination of Gaussian 16 at Wed May  5 22:41:41 2021.
