 Gaussian 16, Revision A.03,
 Gaussian 16:  EM64L-G16RevA.03 25-Dec-2016

 -------------
 #p 6-31g* mp2
 -------------

 ------------------------------------------------------
 Input file generated by CHIRIPA (05-May-2021 14:55:19)
 ------------------------------------------------------
 Symbolic Z-matrix:
 Charge =  0 Multiplicity = 1

                         Standard orientation:
 ---------------------------------------------------------------------
 Center     Atomic      Atomic             Coordinates (Angstroms)
 Number     Number       Type             X           Y           Z
 ---------------------------------------------------------------------
      1          6           0       -5.169471    1.338212    0.236222
      2          6           0       -3.986679    1.786048    0.833689
      3          6           0       -2.801770    1.056802    0.696801
      4          6           0       -2.835851   -0.121176   -0.047843
      5          6           0       -3.998369   -0.593458   -0.655126
      6          6           0       -5.171537    0.151980   -0.504972
      7          1           0       -6.085376    1.910997    0.347713
      8          1           0       -3.982112    2.706932    1.409881
      9          1           0       -1.872038    1.380479    1.148742
     10          1           0       -3.971713   -1.515236   -1.223486
     11          1           0       -6.088636   -0.198229   -0.970084
     12          7           0       -1.587656   -0.901767   -0.199783
     13          8           0       -1.644029   -1.936363   -0.860895
     14          8           0       -0.576581   -0.464217    0.345116
     15          6           0        4.035266   -0.743548    0.185787
     16          6           0        2.772872   -1.603135    0.259667
     17          6           0        3.073388   -3.069033    0.573717
     18          1           0        4.706421   -1.154154   -0.580957
     19          1           0        4.573445   -0.811914    1.141341
     20          1           0        2.236514   -1.532070   -0.695260
     21          1           0        2.104558   -1.190323    1.026192
     22          1           0        3.587881   -3.159244    1.535881
     23          1           0        3.720586   -3.502932   -0.195352
     24          1           0        2.156899   -3.665349    0.621847
     25          6           0        3.751151    0.724413   -0.127414
     26          6           0        5.013545    1.584000   -0.201294
     27          6           0        4.713029    3.049898   -0.515344
     28          1           0        3.212970    0.792779   -1.082968
     29          1           0        3.079995    1.135019    0.639330
     30          1           0        5.681858    1.171188   -0.967819
     31          1           0        5.549903    1.512935    0.753633
     32          1           0        4.065831    3.483797    0.253725
     33          1           0        4.198536    3.140108   -1.477508
     34          1           0        5.629517    3.646214   -0.563474
 ---------------------------------------------------------------------

 SCF Done:  E(RHF) =  -669.535698843     A.U. after   15 cycles
 E2 =    -0.2091282026D+01 EUMP2 =    -0.67162698086971D+03

 The electronic state is 1-A.
 Alpha  occ. eigenvalues --  -20.60935 -20.60929 -15.85970 -11.31299 -11.27864
 Alpha  occ. eigenvalues --  -11.27860 -11.27601 -11.26872 -11.26862 -11.20803
 Alpha  occ. eigenvalues --  -11.20477 -11.20291 -11.20065 -11.19670 -11.19546
 Alpha  occ. eigenvalues --   -1.59998  -1.39554  -1.19468  -1.08871  -1.07224
 Alpha  occ. eigenvalues --   -1.04865  -1.02303  -0.95712  -0.94833  -0.86265
 Alpha  occ. eigenvalues --   -0.85864  -0.82549  -0.78404  -0.77600  -0.76907
 Alpha  occ. eigenvalues --   -0.72181  -0.71314  -0.70577  -0.65123  -0.64868
 Alpha  occ. eigenvalues --   -0.63875  -0.62213  -0.59713  -0.58234  -0.56379
 Alpha  occ. eigenvalues --   -0.55367  -0.54160  -0.53197  -0.52957  -0.51548
 Alpha  occ. eigenvalues --   -0.51243  -0.49011  -0.48945  -0.48824  -0.46650
 Alpha  occ. eigenvalues --   -0.45462  -0.44973  -0.44413  -0.44328  -0.42565
 Alpha  occ. eigenvalues --   -0.37447  -0.36467
 Alpha virt. eigenvalues --    0.04928   0.11188   0.16425   0.21319   0.23928
 Alpha virt. eigenvalues --    0.25488   0.27238   0.27764   0.28153   0.28785
 Alpha virt. eigenvalues --    0.29106   0.30904   0.32393   0.32525   0.32846

 Mulliken charges:
               1
     1  C   -0.170619
     2  C   -0.218516
     3  C   -0.170807
     4  C    0.157686
     5  C   -0.170599
     6  C   -0.218579
     7  H    0.226005
     8  H    0.223837
     9  H    0.275557
    10  H    0.275830
    11  H    0.223815
    12  N    0.490664
    13  O   -0.459778
    14  O   -0.460811
    15  C   -0.299308
    16  C   -0.296648
    17  C   -0.476843
    18  H    0.144312
    19  H    0.143591
    20  H    0.159821
    21  H    0.165940
    22  H    0.147366
    23  H    0.148545
    24  H    0.164762
    25  C   -0.295646
    26  C   -0.298668
    27  C   -0.474552
    28  H    0.150046
    29  H    0.149758
    30  H    0.150239
    31  H    0.149613
    32  H    0.152711
    33  H    0.154054
    34  H    0.157223
 Sum of Mulliken charges =  -0.00000

 Dipole moment (field-independent basis, Debye):
    X=             -4.8027    Y=              2.7244    Z=              0.5236  Tot=              5.5464
 Quadrupole moment (field-independent basis, Debye-Ang):
   XX=            -70.7908   YY=            -95.3069   ZZ=            -93.0274
   XY=             -5.4684   XZ=              0.0749   YZ=              2.6232

 Normal termination of Gaussian 16 at Wed May  5 15:49:57 2021.
