 Gaussian 16, Revision A.03,
 Gaussian 16:  EM64L-G16RevA.03 25-Dec-2016

 -------------
 #p 6-31g* mp2
 -------------

 ------------------------------------------------------
 Input file generated by CHIRIPA (05-May-2021 14:55:23)
 ------------------------------------------------------
 Symbolic Z-matrix:
 Charge =  0 Multiplicity = 1

                         Standard orientation:
 ---------------------------------------------------------------------
 Center     Atomic      Atomic             Coordinates (Angstroms)
 Number     Number       Type             X           Y           Z
 ---------------------------------------------------------------------
      1          6           0       -2.335979    2.695651    0.125883
      2          6           0       -1.780590    1.794450    1.040158
      3          6           0       -2.149573    0.446099    1.021483
      4          6           0       -3.080880    0.031375    0.070715
      5          6           0       -3.651986    0.904978   -0.853377
      6          6           0       -3.268261    2.248827   -0.816306
      7          1           0       -2.043619    3.741334    0.147535
      8          1           0       -1.056340    2.138643    1.772988
      9          1           0       -1.735277   -0.273010    1.717659
     10          1           0       -4.371564    0.532186   -1.572161
     11          1           0       -3.701227    2.946465   -1.527563
     12          7           0       -3.479309   -1.393681    0.041207
     13          8           0       -4.301809   -1.733992   -0.806330
     14          8           0       -2.961553   -2.143344    0.866174
     15          6           0        4.445864    0.021603    0.232274
     16          6           0        5.730069   -0.026065   -0.596298
     17          6           0        6.894174    0.703253    0.075082
     18          1           0        4.170146    1.070171    0.409566
     19          1           0        4.637701   -0.422270    1.218971
     20          1           0        5.535500    0.416512   -1.581632
     21          1           0        6.002657   -1.074641   -0.771799
     22          1           0        7.116756    0.257985    1.050168
     23          1           0        6.646946    1.757610    0.235734
     24          1           0        7.802092    0.656724   -0.534328
     25          6           0        3.273084   -0.703182   -0.425755
     26          6           0        1.988880   -0.655513    0.402816
     27          6           0        0.824774   -1.384830   -0.268561
     28          1           0        3.081248   -0.259308   -1.412452
     29          1           0        3.548802   -1.751748   -0.603046
     30          1           0        1.716292    0.393063    0.578318
     31          1           0        2.183448   -1.098089    1.388153
     32          1           0        1.072003   -2.439188   -0.429214
     33          1           0        0.602193   -0.939563   -1.243649
     34          1           0       -0.083144   -1.338303    0.340848
 ---------------------------------------------------------------------

 SCF Done:  E(RHF) =  -669.534926509     A.U. after   15 cycles
 E2 =    -0.2092751986D+01 EUMP2 =    -0.67162767849469D+03

 The electronic state is 1-A.
 Alpha  occ. eigenvalues --  -20.60846 -20.60828 -15.85869 -11.31211 -11.27802
 Alpha  occ. eigenvalues --  -11.27794 -11.27539 -11.26803 -11.26792 -11.21728
 Alpha  occ. eigenvalues --  -11.21727 -11.21540 -11.21460 -11.21210 -11.20879
 Alpha  occ. eigenvalues --   -1.59898  -1.39455  -1.19401  -1.08794  -1.08542
 Alpha  occ. eigenvalues --   -1.04810  -1.03608  -0.96044  -0.95628  -0.87060
 Alpha  occ. eigenvalues --   -0.86200  -0.82466  -0.79681  -0.78368  -0.77521
 Alpha  occ. eigenvalues --   -0.72095  -0.71214  -0.70531  -0.65175  -0.65054
 Alpha  occ. eigenvalues --   -0.64821  -0.62207  -0.61004  -0.59412  -0.57674
 Alpha  occ. eigenvalues --   -0.55330  -0.55300  -0.53270  -0.52949  -0.52591
 Alpha  occ. eigenvalues --   -0.52351  -0.49961  -0.48861  -0.48848  -0.47989
 Alpha  occ. eigenvalues --   -0.46721  -0.45902  -0.45835  -0.44880  -0.43819
 Alpha  occ. eigenvalues --   -0.37361  -0.36360
 Alpha virt. eigenvalues --    0.04993   0.11176   0.16459   0.20982   0.22816
 Alpha virt. eigenvalues --    0.24203   0.26316   0.26745   0.27374   0.27918
 Alpha virt. eigenvalues --    0.28839   0.29970   0.31416   0.31641   0.31965

 Mulliken charges:
               1
     1  C   -0.170827
     2  C   -0.219347
     3  C   -0.171184
     4  C    0.161995
     5  C   -0.170836
     6  C   -0.218636
     7  H    0.225700
     8  H    0.224142
     9  H    0.275795
    10  H    0.275720
    11  H    0.223491
    12  N    0.488911
    13  O   -0.459367
    14  O   -0.460815
    15  C   -0.297890
    16  C   -0.299718
    17  C   -0.475654
    18  H    0.146634
    19  H    0.149747
    20  H    0.151740
    21  H    0.153251
    22  H    0.155479
    23  H    0.153948
    24  H    0.160785
    25  C   -0.297887
    26  C   -0.301085
    27  C   -0.479364
    28  H    0.149419
    29  H    0.152162
    30  H    0.143783
    31  H    0.151635
    32  H    0.160040
    33  H    0.153660
    34  H    0.164574
 Sum of Mulliken charges =  -0.00000

 Dipole moment (field-independent basis, Debye):
    X=              1.3347    Y=              4.9629    Z=              0.0673  Tot=              5.1396
 Quadrupole moment (field-independent basis, Debye-Ang):
   XX=           -102.7805   YY=            -94.1995   ZZ=            -92.1054
   XY=            -17.0537   XZ=              2.2952   YZ=             -1.0566

 Normal termination of Gaussian 16 at Wed May  5 22:21:57 2021.
