 Gaussian 16, Revision A.03,
 Gaussian 16:  EM64L-G16RevA.03 25-Dec-2016

 -------------
 #p 6-31g* mp2
 -------------

 ------------------------------------------------------
 Input file generated by CHIRIPA (05-May-2021 14:51:09)
 ------------------------------------------------------
 Symbolic Z-matrix:
 Charge =  0 Multiplicity = 1

                         Standard orientation:
 ---------------------------------------------------------------------
 Center     Atomic      Atomic             Coordinates (Angstroms)
 Number     Number       Type             X           Y           Z
 ---------------------------------------------------------------------
      1          6           0        4.136139    0.048580    0.060515
      2          6           0        3.925216   -1.454570   -0.123973
      3          6           0        5.214157   -2.258228    0.050841
      4          1           0        4.888348    0.397989   -0.659930
      5          1           0        4.551774    0.233415    1.060754
      6          1           0        3.508809   -1.636395   -1.123053
      7          1           0        3.173282   -1.800406    0.596866
      8          1           0        5.630086   -2.106270    1.052096
      9          1           0        5.967520   -1.941327   -0.677595
     10          1           0        5.040460   -3.330218   -0.085269
     11          6           0        2.856690    0.865437   -0.111189
     12          6           0        3.067614    2.368588    0.073299
     13          6           0        1.778673    3.172245   -0.101515
     14          1           0        2.441056    0.680603   -1.111429
     15          1           0        2.104482    0.516028    0.609256
     16          1           0        3.819548    2.714423   -0.647541
     17          1           0        3.484021    2.550413    1.072379
     18          1           0        1.025310    2.855344    0.626921
     19          1           0        1.362743    3.020287   -1.102771
     20          1           0        1.952370    4.244235    0.034595
     21          6           0       -4.115869   -0.153919    0.353735
     22          6           0       -5.367686   -0.237198   -0.520339
     23          6           0       -6.598663    0.373282    0.150335
     24          1           0       -4.307333   -0.665350    1.307006
     25          1           0       -3.917199    0.898777    0.598186
     26          1           0       -5.563141   -1.289309   -0.764214
     27          1           0       -5.173154    0.274325   -1.471716
     28          1           0       -6.428428    1.430357    0.378839
     29          1           0       -6.820631   -0.142162    1.090361
     30          1           0       -7.482085    0.303015   -0.491918
     31          6           0       -2.876960   -0.760098   -0.303061
     32          6           0       -1.625144   -0.676819    0.571013
     33          6           0       -0.394167   -1.287300   -0.099660
     34          1           0       -3.075630   -1.812795   -0.547512
     35          1           0       -2.685497   -0.248667   -1.256332
     36          1           0       -1.819674   -1.188342    1.522391
     37          1           0       -1.429688    0.375291    0.814888
     38          1           0       -0.172199   -0.771856   -1.039686
     39          1           0       -0.564401   -2.344375   -0.328165
     40          1           0        0.489255   -1.217032    0.542592
 ---------------------------------------------------------------------

 SCF Done:  E(RHF) =  -470.732660726     A.U. after   11 cycles
 E2 =    -0.1583411457D+01 EUMP2 =    -0.47231607218234D+03

 The electronic state is 1-A.
 Alpha  occ. eigenvalues --  -11.21584 -11.21584 -11.21570 -11.21569 -11.21381
 Alpha  occ. eigenvalues --  -11.21364 -11.21321 -11.21292 -11.21088 -11.21057
 Alpha  occ. eigenvalues --  -11.21048 -11.20956  -1.08427  -1.08383  -1.03515
 Alpha  occ. eigenvalues --   -1.03494  -0.95996  -0.95912  -0.87005  -0.86940
 Alpha  occ. eigenvalues --   -0.79578  -0.79574  -0.78252  -0.78174  -0.65064
 Alpha  occ. eigenvalues --   -0.65025  -0.60932  -0.60875  -0.59356  -0.59311
 Alpha  occ. eigenvalues --   -0.57651  -0.57493  -0.55259  -0.55226  -0.52793
 Alpha  occ. eigenvalues --   -0.52569  -0.52402  -0.52328  -0.49918  -0.49874
 Alpha  occ. eigenvalues --   -0.47909  -0.47876  -0.46633  -0.46589  -0.45802
 Alpha  occ. eigenvalues --   -0.45711  -0.45692  -0.45612  -0.43787  -0.43632
 Alpha virt. eigenvalues --    0.21256   0.23075   0.23787   0.24165   0.25580
 Alpha virt. eigenvalues --    0.26249   0.26547   0.27486   0.28228   0.29478
 Alpha virt. eigenvalues --    0.30340   0.31236   0.31695   0.31882   0.32274

 Mulliken charges:
               1
     1  C   -0.298538
     2  C   -0.301243
     3  C   -0.475684
     4  H    0.149396
     5  H    0.148994
     6  H    0.152841
     7  H    0.153274
     8  H    0.154936
     9  H    0.155132
    10  H    0.160316
    11  C   -0.301279
    12  C   -0.299381
    13  C   -0.475976
    14  H    0.150146
    15  H    0.154249
    16  H    0.151747
    17  H    0.151662
    18  H    0.155043
    19  H    0.154761
    20  H    0.160324
    21  C   -0.298251
    22  C   -0.299622
    23  C   -0.475695
    24  H    0.149485
    25  H    0.149599
    26  H    0.151857
    27  H    0.151946
    28  H    0.155214
    29  H    0.155111
    30  H    0.160191
    31  C   -0.298291
    32  C   -0.301059
    33  C   -0.478571
    34  H    0.149506
    35  H    0.149709
    36  H    0.151338
    37  H    0.151919
    38  H    0.155995
    39  H    0.154077
    40  H    0.164822
 Sum of Mulliken charges =  -0.00000

 Dipole moment (field-independent basis, Debye):
    X=              0.0162    Y=             -0.0062    Z=             -0.0097  Tot=              0.0199
 Quadrupole moment (field-independent basis, Debye-Ang):
   XX=            -86.5083   YY=            -84.6929   ZZ=            -83.7347
   XY=              1.1808   XZ=             -0.0420   YZ=             -0.5511

 Normal termination of Gaussian 16 at Thu May  6 00:32:55 2021.
