 Gaussian 16, Revision A.03,
 Gaussian 16:  EM64L-G16RevA.03 25-Dec-2016

 -------------
 #p 6-31g* mp2
 -------------

 ------------------------------------------------------
 Input file generated by CHIRIPA (05-May-2021 14:57:23)
 ------------------------------------------------------
 Symbolic Z-matrix:
 Charge =  0 Multiplicity = 1

                         Standard orientation:
 ---------------------------------------------------------------------
 Center     Atomic      Atomic             Coordinates (Angstroms)
 Number     Number       Type             X           Y           Z
 ---------------------------------------------------------------------
      1          6           0       -1.483240    2.389063   -0.215164
      2          6           0       -0.989682    1.108255   -0.484333
      3          6           0       -1.841162   -0.000324   -0.460220
      4          6           0       -3.186669    0.209205   -0.161894
      5          6           0       -3.708472    1.472818    0.110672
      6          6           0       -2.838670    2.566943    0.080957
      7          1           0       -0.814673    3.244620   -0.236072
      8          1           0        0.062506    0.967123   -0.714610
      9          1           0       -1.485589   -1.002902   -0.664730
     10          1           0       -4.762162    1.582024    0.337015
     11          1           0       -3.224754    3.560481    0.290403
     12          7           0       -4.097791   -0.956747   -0.133401
     13          8           0       -5.279118   -0.745573    0.132133
     14          8           0       -3.613349   -2.059717   -0.377142
     15          6           0        4.859480    1.248711   -0.399030
     16          6           0        4.678428    0.107954   -1.187963
     17          6           0        3.671563   -0.813098   -0.883934
     18          6           0        2.860267   -0.560892    0.221272
     19          6           0        3.015702    0.566360    1.026527
     20          6           0        4.029003    1.473875    0.703752
     21          1           0        5.644136    1.958949   -0.642489
     22          1           0        5.321896   -0.069490   -2.044998
     23          1           0        3.509383   -1.704452   -1.477739
     24          1           0        2.358544    0.716083    1.874551
     25          1           0        4.167303    2.358941    1.318226
     26          7           0        1.790937   -1.528804    0.553057
     27          8           0        1.089454   -1.283678    1.532074
     28          8           0        1.674527   -2.514250   -0.172189
 ---------------------------------------------------------------------

 SCF Done:  E(RHF) =  -868.337493425     A.U. after   16 cycles
 E2 =    -0.2601059626D+01 EUMP2 =    -0.87093855305161D+03

 The electronic state is 1-A.
 Alpha  occ. eigenvalues --  -20.61582 -20.61564 -20.60031 -20.59991 -15.86604
 Alpha  occ. eigenvalues --  -15.85070 -11.32032 -11.30487 -11.28591 -11.28555
 Alpha  occ. eigenvalues --  -11.28288 -11.27580 -11.27542 -11.27152 -11.27005
 Alpha  occ. eigenvalues --  -11.26974 -11.26205 -11.26156  -1.60659  -1.59089
 Alpha  occ. eigenvalues --   -1.40197  -1.38638  -1.20197  -1.18706  -1.09574
 Alpha  occ. eigenvalues --   -1.08117  -1.05577  -1.04121  -0.96392  -0.94925
 Alpha  occ. eigenvalues --   -0.86967  -0.85534  -0.83203  -0.81762  -0.78259
 Alpha  occ. eigenvalues --   -0.76776  -0.72790  -0.72031  -0.71292  -0.71249
 Alpha  occ. eigenvalues --   -0.70410  -0.69850  -0.65819  -0.65546  -0.64375
 Alpha  occ. eigenvalues --   -0.64174  -0.62901  -0.61455  -0.56044  -0.54703
 Alpha  occ. eigenvalues --   -0.53946  -0.53640  -0.52449  -0.52227  -0.49569
 Alpha  occ. eigenvalues --   -0.49562  -0.48069  -0.48029  -0.45573  -0.44031
 Alpha  occ. eigenvalues --   -0.38175  -0.37195  -0.36737  -0.35681
 Alpha virt. eigenvalues --    0.04214   0.05781   0.10410   0.11955   0.15712
 Alpha virt. eigenvalues --    0.17216   0.20714   0.21748   0.26637   0.27188
 Alpha virt. eigenvalues --    0.27661   0.28786   0.30391   0.31211   0.31841

 Mulliken charges:
               1
     1  C   -0.172949
     2  C   -0.218615
     3  C   -0.163597
     4  C    0.156430
     5  C   -0.171002
     6  C   -0.219341
     7  H    0.219396
     8  H    0.216253
     9  H    0.286880
    10  H    0.273821
    11  H    0.219810
    12  N    0.487893
    13  O   -0.464448
    14  O   -0.455124
    15  C   -0.170679
    16  C   -0.218445
    17  C   -0.172221
    18  C    0.151941
    19  C   -0.176104
    20  C   -0.219452
    21  H    0.228301
    22  H    0.226776
    23  H    0.278798
    24  H    0.278217
    25  H    0.225196
    26  N    0.484828
    27  O   -0.455636
    28  O   -0.456928
 Sum of Mulliken charges =  -0.00000

 Dipole moment (field-independent basis, Debye):
    X=              7.2442    Y=              7.2426    Z=             -1.2358  Tot=             10.3180
 Quadrupole moment (field-independent basis, Debye-Ang):
   XX=           -100.8810   YY=           -104.5564   ZZ=           -103.0010
   XY=             -7.7414   XZ=             -5.1505   YZ=              4.1811

 Normal termination of Gaussian 16 at Fri May  7 11:04:56 2021.
