 Gaussian 16, Revision A.03,
 Gaussian 16:  EM64L-G16RevA.03 25-Dec-2016

 -------------
 #p 6-31g* mp2
 -------------

 ------------------------------------------------------
 Input file generated by CHIRIPA (05-May-2021 14:55:19)
 ------------------------------------------------------
 Symbolic Z-matrix:
 Charge =  0 Multiplicity = 1

                         Standard orientation:
 ---------------------------------------------------------------------
 Center     Atomic      Atomic             Coordinates (Angstroms)
 Number     Number       Type             X           Y           Z
 ---------------------------------------------------------------------
      1          6           0        2.984798    1.083812    2.182272
      2          6           0        3.282404   -0.282835    2.167157
      3          6           0        3.102749   -1.035774    1.002960
      4          6           0        2.621574   -0.386942   -0.133164
      5          6           0        2.316039    0.973083   -0.149645
      6          6           0        2.503414    1.706311    1.025862
      7          1           0        3.127356    1.661057    3.091041
      8          1           0        3.656398   -0.768923    3.063757
      9          1           0        3.325184   -2.095198    0.963429
     10          1           0        1.944744    1.429747   -1.059049
     11          1           0        2.271454    2.767519    1.034683
     12          7           0        2.427295   -1.173611   -1.371633
     13          8           0        2.002097   -0.578440   -2.359366
     14          8           0        2.703896   -2.370479   -1.331163
     15          6           0       -4.039015    0.148807    0.280863
     16          6           0       -4.249087   -1.358185    0.431958
     17          6           0       -5.538488   -1.703487    1.177614
     18          1           0       -4.023583    0.612121    1.276879
     19          1           0       -4.898162    0.580206   -0.251262
     20          1           0       -3.389148   -1.786825    0.962420
     21          1           0       -4.263830   -1.817991   -0.564525
     22          1           0       -6.408884   -1.302902    0.647951
     23          1           0       -5.529233   -1.271559    2.183572
     24          1           0       -5.668758   -2.785863    1.274329
     25          6           0       -2.754185    0.509852   -0.462497
     26          6           0       -2.544113    2.016845   -0.613591
     27          6           0       -1.254712    2.362148   -1.359248
     28          1           0       -1.895038    0.078454    0.069628
     29          1           0       -2.769617    0.046539   -1.458512
     30          1           0       -2.529370    2.476651    0.382892
     31          1           0       -3.404052    2.445485   -1.144054
     32          1           0       -1.263967    1.930219   -2.365207
     33          1           0       -0.384316    1.961562   -0.829586
     34          1           0       -1.124442    3.444523   -1.455963
 ---------------------------------------------------------------------

 SCF Done:  E(RHF) =  -669.535284113     A.U. after   15 cycles
 E2 =    -0.2091804293D+01 EUMP2 =    -0.67162708840515D+03

 The electronic state is 1-A.
 Alpha  occ. eigenvalues --  -20.60770 -20.60763 -15.85824 -11.31216 -11.27794
 Alpha  occ. eigenvalues --  -11.27755 -11.27537 -11.26815 -11.26804 -11.21665
 Alpha  occ. eigenvalues --  -11.21485 -11.21330 -11.21264 -11.21192 -11.20990
 Alpha  occ. eigenvalues --   -1.59844  -1.39396  -1.19398  -1.08783  -1.08381
 Alpha  occ. eigenvalues --   -1.04806  -1.03516  -0.95979  -0.95611  -0.87003
 Alpha  occ. eigenvalues --   -0.86193  -0.82444  -0.79586  -0.78179  -0.77482
 Alpha  occ. eigenvalues --   -0.72042  -0.71168  -0.70507  -0.65060  -0.65011
 Alpha  occ. eigenvalues --   -0.64796  -0.62187  -0.60900  -0.59340  -0.57574
 Alpha  occ. eigenvalues --   -0.55384  -0.55194  -0.53148  -0.52933  -0.52680
 Alpha  occ. eigenvalues --   -0.52327  -0.49904  -0.48803  -0.48792  -0.47887
 Alpha  occ. eigenvalues --   -0.46605  -0.45723  -0.45642  -0.44791  -0.43765
 Alpha  occ. eigenvalues --   -0.37377  -0.36379
 Alpha virt. eigenvalues --    0.05001   0.11195   0.16469   0.21137   0.22949
 Alpha virt. eigenvalues --    0.24336   0.26184   0.26836   0.27635   0.27914
 Alpha virt. eigenvalues --    0.29094   0.30815   0.31507   0.31763   0.31881

 Mulliken charges:
               1
     1  C   -0.170801
     2  C   -0.218395
     3  C   -0.171183
     4  C    0.157255
     5  C   -0.172071
     6  C   -0.219841
     7  H    0.225755
     8  H    0.223598
     9  H    0.275764
    10  H    0.280002
    11  H    0.224594
    12  N    0.488118
    13  O   -0.459760
    14  O   -0.460577
    15  C   -0.298360
    16  C   -0.299774
    17  C   -0.475705
    18  H    0.147425
    19  H    0.149521
    20  H    0.151922
    21  H    0.154606
    22  H    0.155166
    23  H    0.153703
    24  H    0.160748
    25  C   -0.298674
    26  C   -0.298941
    27  C   -0.481217
    28  H    0.149274
    29  H    0.155090
    30  H    0.148527
    31  H    0.153024
    32  H    0.165182
    33  H    0.149573
    34  H    0.156451
 Sum of Mulliken charges =  -0.00000

 Dipole moment (field-independent basis, Debye):
    X=              0.6852    Y=              2.7001    Z=              4.2968  Tot=              5.1208
 Quadrupole moment (field-independent basis, Debye-Ang):
   XX=            -91.8826   YY=            -94.1690   ZZ=            -94.6357
   XY=              5.3252   XZ=             13.6029   YZ=             -4.0280

 Normal termination of Gaussian 16 at Wed May  5 22:06:16 2021.
