 Gaussian 16, Revision A.03,
 Gaussian 16:  EM64L-G16RevA.03 25-Dec-2016

 -------------
 #p 6-31g* mp2
 -------------

 ------------------------------------------------------
 Input file generated by CHIRIPA (05-May-2021 14:51:12)
 ------------------------------------------------------
 Symbolic Z-matrix:
 Charge =  0 Multiplicity = 1

                         Standard orientation:
 ---------------------------------------------------------------------
 Center     Atomic      Atomic             Coordinates (Angstroms)
 Number     Number       Type             X           Y           Z
 ---------------------------------------------------------------------
      1          6           0        3.702257   -0.738128   -0.182049
      2          6           0        4.337240    0.645765   -0.322132
      3          6           0        5.787981    0.584781   -0.801117
      4          1           0        4.296918   -1.337997    0.520432
      5          1           0        3.748113   -1.254682   -1.150793
      6          1           0        4.288955    1.160090    0.646245
      7          1           0        3.740890    1.242473   -1.024215
      8          1           0        5.850776    0.095129   -1.778306
      9          1           0        6.401956    0.012278   -0.098355
     10          1           0        6.222376    1.585019   -0.894309
     11          6           0        2.251997   -0.693662    0.295964
     12          6           0        1.617014   -2.077554    0.436047
     13          6           0        0.166273   -2.016571    0.915032
     14          1           0        2.206141   -0.177108    1.264707
     15          1           0        1.657336   -0.093793   -0.406518
     16          1           0        2.213364   -2.674263    1.138130
     17          1           0        1.665298   -2.591879   -0.532330
     18          1           0       -0.447703   -1.444067    0.212270
     19          1           0        0.103477   -1.526919    1.892221
     20          1           0       -0.268122   -3.016809    1.008224
     21          6           0       -3.229493   -0.005005   -0.050150
     22          6           0       -4.625338   -0.164532   -0.653598
     23          6           0       -5.116421   -1.612358   -0.632813
     24          1           0       -2.523653   -0.641057   -0.601671
     25          1           0       -3.240536   -0.374601    0.984583
     26          1           0       -4.612005    0.206533   -1.686435
     27          1           0       -5.327900    0.472120   -0.100698
     28          1           0       -5.158252   -1.990260    0.393851
     29          1           0       -4.438291   -2.257356   -1.200895
     30          1           0       -6.116123   -1.703502   -1.068873
     31          6           0       -2.724761    1.436795   -0.063765
     32          6           0       -1.328915    1.596321    0.539684
     33          6           0       -0.837833    3.044147    0.518898
     34          1           0       -2.713718    1.806391   -1.098498
     35          1           0       -3.430599    2.072847    0.487757
     36          1           0       -0.626354    0.959670   -0.013217
     37          1           0       -1.342248    1.225257    1.572520
     38          1           0       -1.515963    3.689146    1.086980
     39          1           0       -0.796001    3.422050   -0.507767
     40          1           0        0.161870    3.135292    0.954958
 ---------------------------------------------------------------------

 SCF Done:  E(RHF) =  -470.731808228     A.U. after   11 cycles
 E2 =    -0.1584606441D+01 EUMP2 =    -0.47231641466927D+03

 The electronic state is 1-A.
 Alpha  occ. eigenvalues --  -11.21603 -11.21577 -11.21561 -11.21499 -11.21400
 Alpha  occ. eigenvalues --  -11.21367 -11.21341 -11.21308 -11.21072 -11.21048
 Alpha  occ. eigenvalues --  -11.21017 -11.20919  -1.08452  -1.08371  -1.03532
 Alpha  occ. eigenvalues --   -1.03462  -0.95981  -0.95916  -0.86972  -0.86960
 Alpha  occ. eigenvalues --   -0.79682  -0.79501  -0.78406  -0.78014  -0.65190
 Alpha  occ. eigenvalues --   -0.64925  -0.60984  -0.60823  -0.59426  -0.59210
 Alpha  occ. eigenvalues --   -0.57653  -0.57485  -0.55342  -0.55149  -0.52686
 Alpha  occ. eigenvalues --   -0.52646  -0.52366  -0.52338  -0.49968  -0.49846
 Alpha  occ. eigenvalues --   -0.48150  -0.47747  -0.46871  -0.46559  -0.46053
 Alpha  occ. eigenvalues --   -0.45787  -0.45604  -0.44941  -0.43761  -0.43736
 Alpha virt. eigenvalues --    0.21428   0.23179   0.23773   0.24383   0.25243
 Alpha virt. eigenvalues --    0.26112   0.26861   0.27281   0.28623   0.29684
 Alpha virt. eigenvalues --    0.30437   0.31423   0.31743   0.31946   0.32186

 Mulliken charges:
               1
     1  C   -0.297930
     2  C   -0.299622
     3  C   -0.475691
     4  H    0.149789
     5  H    0.149307
     6  H    0.151830
     7  H    0.151880
     8  H    0.155136
     9  H    0.155207
    10  H    0.160288
    11  C   -0.301101
    12  C   -0.300067
    13  C   -0.481016
    14  H    0.149941
    15  H    0.151758
    16  H    0.151542
    17  H    0.151016
    18  H    0.163541
    19  H    0.154947
    20  H    0.159079
    21  C   -0.301478
    22  C   -0.299099
    23  C   -0.475585
    24  H    0.151800
    25  H    0.150987
    26  H    0.151519
    27  H    0.151901
    28  H    0.155393
    29  H    0.155077
    30  H    0.160071
    31  C   -0.298299
    32  C   -0.305327
    33  C   -0.475612
    34  H    0.148605
    35  H    0.149397
    36  H    0.158651
    37  H    0.152429
    38  H    0.154771
    39  H    0.154343
    40  H    0.160621
 Sum of Mulliken charges =  -0.00000

 Dipole moment (field-independent basis, Debye):
    X=             -0.0078    Y=             -0.0038    Z=              0.0110  Tot=              0.0140
 Quadrupole moment (field-independent basis, Debye-Ang):
   XX=            -85.9676   YY=            -85.9479   ZZ=            -83.0842
   XY=             -0.6186   XZ=              0.2147   YZ=              0.1036

 Normal termination of Gaussian 16 at Wed May  5 23:09:53 2021.
