 Gaussian 16, Revision A.03,
 Gaussian 16:  EM64L-G16RevA.03 25-Dec-2016

 -------------
 #p 6-31g* mp2
 -------------

 ------------------------------------------------------
 Input file generated by CHIRIPA (05-May-2021 14:57:27)
 ------------------------------------------------------
 Symbolic Z-matrix:
 Charge =  0 Multiplicity = 1

                         Standard orientation:
 ---------------------------------------------------------------------
 Center     Atomic      Atomic             Coordinates (Angstroms)
 Number     Number       Type             X           Y           Z
 ---------------------------------------------------------------------
      1          6           0        1.707362   -2.480915   -0.040104
      2          6           0        3.094528   -2.446507    0.136267
      3          6           0        3.786136   -1.232357    0.090795
      4          6           0        3.055714   -0.066498   -0.134029
      5          6           0        1.673289   -0.068145   -0.313435
      6          6           0        1.002412   -1.293717   -0.263998
      7          1           0        1.178157   -3.428533   -0.003241
      8          1           0        3.644597   -3.366930    0.310307
      9          1           0        4.859718   -1.176923    0.224086
     10          1           0        1.152302    0.865922   -0.485218
     11          1           0       -0.074912   -1.317421   -0.401310
     12          7           0        3.776915    1.224915   -0.184266
     13          8           0        3.110323    2.238072   -0.383779
     14          8           0        4.995127    1.199514   -0.023178
     15          6           0       -2.187935    2.671813    0.410552
     16          6           0       -3.158247    2.351026   -0.544494
     17          6           0       -3.580766    1.028791   -0.710980
     18          6           0       -3.009254    0.048042    0.098215
     19          6           0       -2.040588    0.336034    1.058442
     20          6           0       -1.633180    1.665068    1.207567
     21          1           0       -1.865581    3.701597    0.533139
     22          1           0       -3.590815    3.130816   -1.164863
     23          1           0       -4.330256    0.752553   -1.442675
     24          1           0       -1.627700   -0.463028    1.662133
     25          1           0       -0.879445    1.911270    1.950071
     26          7           0       -3.448558   -1.355347   -0.068846
     27          8           0       -2.929589   -2.201043    0.656487
     28          8           0       -4.303534   -1.583057   -0.921959
 ---------------------------------------------------------------------

 SCF Done:  E(RHF) =  -868.339520335     A.U. after   16 cycles
 E2 =    -0.2601361823D+01 EUMP2 =    -0.87094088215824D+03

 The electronic state is 1-A.
 Alpha  occ. eigenvalues --  -20.61729 -20.61693 -20.60964 -20.60938 -15.86737
 Alpha  occ. eigenvalues --  -15.86001 -11.31959 -11.31206 -11.28505 -11.28458
 Alpha  occ. eigenvalues --  -11.28110 -11.27757 -11.27733 -11.27412 -11.27387
 Alpha  occ. eigenvalues --  -11.27362 -11.26701 -11.26610  -1.60782  -1.60032
 Alpha  occ. eigenvalues --   -1.40338  -1.39591  -1.20115  -1.19352  -1.09504
 Alpha  occ. eigenvalues --   -1.08752  -1.05478  -1.04720  -0.96363  -0.95618
 Alpha  occ. eigenvalues --   -0.86869  -0.86107  -0.83186  -0.82463  -0.78289
 Alpha  occ. eigenvalues --   -0.77546  -0.72943  -0.72223  -0.72119  -0.71356
 Alpha  occ. eigenvalues --   -0.71137  -0.70399  -0.65731  -0.65436  -0.64984
 Alpha  occ. eigenvalues --   -0.64673  -0.62819  -0.62058  -0.55889  -0.55167
 Alpha  occ. eigenvalues --   -0.53817  -0.53525  -0.53060  -0.52763  -0.49725
 Alpha  occ. eigenvalues --   -0.49686  -0.48988  -0.48958  -0.45752  -0.45033
 Alpha  occ. eigenvalues --   -0.38047  -0.37305  -0.37180  -0.36225
 Alpha virt. eigenvalues --    0.04177   0.05002   0.10327   0.11407   0.15696
 Alpha virt. eigenvalues --    0.16537   0.20875   0.21683   0.26671   0.27383
 Alpha virt. eigenvalues --    0.27781   0.28484   0.30231   0.31224   0.31778

 Mulliken charges:
               1
     1  C   -0.171711
     2  C   -0.219049
     3  C   -0.171375
     4  C    0.158354
     5  C   -0.177840
     6  C   -0.225889
     7  H    0.234122
     8  H    0.224299
     9  H    0.275001
    10  H    0.273277
    11  H    0.229947
    12  N    0.488285
    13  O   -0.465151
    14  O   -0.459661
    15  C   -0.170160
    16  C   -0.218178
    17  C   -0.170546
    18  C    0.155017
    19  C   -0.182283
    20  C   -0.222487
    21  H    0.233752
    22  H    0.227850
    23  H    0.277665
    24  H    0.277016
    25  H    0.231801
    26  N    0.487938
    27  O   -0.465114
    28  O   -0.454879
 Sum of Mulliken charges =  -0.00000

 Dipole moment (field-independent basis, Debye):
    X=             -1.2519    Y=              0.4841    Z=              0.7709  Tot=              1.5479
 Quadrupole moment (field-independent basis, Debye-Ang):
   XX=           -124.1977   YY=           -102.2666   ZZ=           -103.0837
   XY=            -32.9187   XZ=              2.8543   YZ=             -0.3428

 Normal termination of Gaussian 16 at Thu May  6 02:03:22 2021.
