 Gaussian 16, Revision A.03,
 Gaussian 16:  EM64L-G16RevA.03 25-Dec-2016

 -------------
 #p 6-31g* mp2
 -------------

 ------------------------------------------------------
 Input file generated by CHIRIPA (05-May-2021 14:53:15)
 ------------------------------------------------------
 Symbolic Z-matrix:
 Charge =  0 Multiplicity = 1

                         Standard orientation:
 ---------------------------------------------------------------------
 Center     Atomic      Atomic             Coordinates (Angstroms)
 Number     Number       Type             X           Y           Z
 ---------------------------------------------------------------------
      1          6           0        4.240970    0.306022   -0.069643
      2          6           0        5.523829   -0.286276   -0.653974
      3          6           0        6.478724    0.782098   -1.187403
      4          1           0        3.733967    0.900244   -0.842166
      5          1           0        4.502161    1.002465    0.739147
      6          1           0        5.260231   -0.982444   -1.460499
      7          1           0        6.027739   -0.879314    0.119974
      8          1           0        6.770477    1.471521   -0.388542
      9          1           0        5.998609    1.367806   -1.977996
     10          1           0        7.389144    0.336697   -1.600456
     11          6           0        3.276276   -0.749603    0.467712
     12          6           0        1.993418   -0.157305    1.052044
     13          6           0        1.038523   -1.225679    1.585472
     14          1           0        3.015086   -1.446046   -0.341077
     15          1           0        3.783279   -1.343825    1.240236
     16          1           0        1.489508    0.435733    0.278095
     17          1           0        2.257015    0.538863    1.858569
     18          1           0        1.518638   -1.811387    2.376066
     19          1           0        0.746769   -1.915102    0.786612
     20          1           0        0.128103   -0.780277    1.998526
     21          6           0       -2.576190    2.591980    0.465803
     22          6           0       -2.276564    1.581053    1.384919
     23          6           0       -2.472205    0.237516    1.051481
     24          6           0       -2.971251   -0.060558   -0.215561
     25          6           0       -3.279262    0.924020   -1.153125
     26          6           0       -3.075702    2.260821   -0.798056
     27          1           0       -2.421135    3.633056    0.733228
     28          1           0       -1.888509    1.835288    2.367173
     29          1           0       -2.248615   -0.565082    1.743769
     30          1           0       -3.664760    0.639528   -2.124656
     31          1           0       -3.309273    3.043827   -1.513872
     32          7           0       -3.182559   -1.479335   -0.580006
     33          8           0       -3.623346   -1.715717   -1.702712
     34          8           0       -2.903395   -2.328126    0.263949
 ---------------------------------------------------------------------

 SCF Done:  E(RHF) =  -669.535090315     A.U. after   15 cycles
 E2 =    -0.2091892946D+01 EUMP2 =    -0.67162698326185D+03

 The electronic state is 1-A.
 Alpha  occ. eigenvalues --  -20.60780 -20.60770 -15.85828 -11.31195 -11.27780
 Alpha  occ. eigenvalues --  -11.27762 -11.27524 -11.26793 -11.26783 -11.21720
 Alpha  occ. eigenvalues --  -11.21649 -11.21478 -11.21410 -11.21138 -11.21123
 Alpha  occ. eigenvalues --   -1.59850  -1.39403  -1.19381  -1.08771  -1.08503
 Alpha  occ. eigenvalues --   -1.04793  -1.03605  -0.96058  -0.95602  -0.87076
 Alpha  occ. eigenvalues --   -0.86177  -0.82439  -0.79669  -0.78314  -0.77484
 Alpha  occ. eigenvalues --   -0.72047  -0.71174  -0.70500  -0.65130  -0.65035
 Alpha  occ. eigenvalues --   -0.64796  -0.62189  -0.60992  -0.59432  -0.57679
 Alpha  occ. eigenvalues --   -0.55335  -0.55275  -0.53218  -0.52969  -0.52600
 Alpha  occ. eigenvalues --   -0.52406  -0.49969  -0.48807  -0.48801  -0.47982
 Alpha  occ. eigenvalues --   -0.46692  -0.45855  -0.45777  -0.44804  -0.43871
 Alpha  occ. eigenvalues --   -0.37357  -0.36355
 Alpha virt. eigenvalues --    0.05023   0.11246   0.16467   0.20931   0.22845
 Alpha virt. eigenvalues --    0.24185   0.26288   0.26588   0.27437   0.27922
 Alpha virt. eigenvalues --    0.28694   0.30729   0.31388   0.31637   0.31977

 Mulliken charges:
               1
     1  C   -0.298074
     2  C   -0.299857
     3  C   -0.475686
     4  H    0.148937
     5  H    0.148039
     6  H    0.153326
     7  H    0.152350
     8  H    0.154447
     9  H    0.154764
    10  H    0.160839
    11  C   -0.298893
    12  C   -0.300201
    13  C   -0.475210
    14  H    0.152610
    15  H    0.150251
    16  H    0.152071
    17  H    0.147693
    18  H    0.156073
    19  H    0.165777
    20  H    0.148327
    21  C   -0.170642
    22  C   -0.218787
    23  C   -0.168694
    24  C    0.157041
    25  C   -0.171233
    26  C   -0.218714
    27  H    0.225804
    28  H    0.223755
    29  H    0.277373
    30  H    0.275598
    31  H    0.223461
    32  N    0.487969
    33  O   -0.460667
    34  O   -0.459848
 Sum of Mulliken charges =  -0.00000

 Dipole moment (field-independent basis, Debye):
    X=              0.7470    Y=              4.9380    Z=              1.2286  Tot=              5.1431
 Quadrupole moment (field-independent basis, Debye-Ang):
   XX=            -99.8626   YY=            -95.8221   ZZ=            -90.8896
   XY=            -16.2664   XZ=             -1.6038   YZ=             -2.2897

 Normal termination of Gaussian 16 at Thu May  6 20:24:28 2021.
