 Gaussian 16, Revision A.03,
 Gaussian 16:  EM64L-G16RevA.03 25-Dec-2016

 -------------
 #p 6-31g* mp2
 -------------

 ------------------------------------------------------
 Input file generated by CHIRIPA (05-May-2021 14:57:23)
 ------------------------------------------------------
 Symbolic Z-matrix:
 Charge =  0 Multiplicity = 1

                         Standard orientation:
 ---------------------------------------------------------------------
 Center     Atomic      Atomic             Coordinates (Angstroms)
 Number     Number       Type             X           Y           Z
 ---------------------------------------------------------------------
      1          6           0       -5.494766    0.101703    0.745357
      2          6           0       -4.963649   -1.186419    0.622163
      3          6           0       -3.660936   -1.375232    0.151168
      4          6           0       -2.913975   -0.248480   -0.189083
      5          6           0       -3.414973    1.047605   -0.077480
      6          6           0       -4.720099    1.212645    0.395759
      7          1           0       -6.507683    0.239144    1.112109
      8          1           0       -5.562966   -2.051031    0.892920
      9          1           0       -3.224907   -2.361249    0.045967
     10          1           0       -2.793315    1.890107   -0.355241
     11          1           0       -5.129967    2.214192    0.490403
     12          7           0       -1.533574   -0.435784   -0.688892
     13          8           0       -0.895956    0.573253   -0.982020
     14          8           0       -1.115372   -1.588084   -0.778050
     15          6           0        4.101752   -2.102510    0.353382
     16          6           0        3.557433   -1.696580   -0.869508
     17          6           0        3.022608   -0.413391   -1.017625
     18          6           0        3.048647    0.441910    0.082861
     19          6           0        3.583921    0.066842    1.314160
     20          6           0        4.113238   -1.221059    1.439398
     21          1           0        4.515077   -3.101152    0.459556
     22          1           0        3.547163   -2.379008   -1.714630
     23          1           0        2.595000   -0.073217   -1.952961
     24          1           0        3.579935    0.769448    2.138627
     25          1           0        4.535310   -1.533593    2.390303
     26          7           0        2.485367    1.802859   -0.061833
     27          8           0        2.520315    2.537530    0.922886
     28          8           0        2.019587    2.109129   -1.157226
 ---------------------------------------------------------------------

 SCF Done:  E(RHF) =  -868.338112709     A.U. after   16 cycles
 E2 =    -0.2599960501D+01 EUMP2 =    -0.87093807320952D+03

 The electronic state is 1-A.
 Alpha  occ. eigenvalues --  -20.60608 -20.60536 -20.59493 -20.59367 -15.85598
 Alpha  occ. eigenvalues --  -15.84473 -11.30961 -11.29871 -11.27575 -11.27479
 Alpha  occ. eigenvalues --  -11.27300 -11.26584 -11.26556 -11.26523 -11.26390
 Alpha  occ. eigenvalues --  -11.26311 -11.25602 -11.25477  -1.59656  -1.58486
 Alpha  occ. eigenvalues --   -1.39200  -1.38039  -1.19143  -1.18073  -1.08547
 Alpha  occ. eigenvalues --   -1.07479  -1.04542  -1.03495  -0.95377  -0.94305
 Alpha  occ. eigenvalues --   -0.85941  -0.84901  -0.82200  -0.81147  -0.77245
 Alpha  occ. eigenvalues --   -0.76164  -0.71836  -0.70983  -0.70719  -0.70253
 Alpha  occ. eigenvalues --   -0.69741  -0.69232  -0.64791  -0.64548  -0.63749
 Alpha  occ. eigenvalues --   -0.63538  -0.61881  -0.60851  -0.55058  -0.54058
 Alpha  occ. eigenvalues --   -0.52879  -0.52632  -0.51808  -0.51616  -0.48625
 Alpha  occ. eigenvalues --   -0.48587  -0.47496  -0.47441  -0.44620  -0.43393
 Alpha  occ. eigenvalues --   -0.37136  -0.36146  -0.36078  -0.35073
 Alpha virt. eigenvalues --    0.05274   0.06402   0.11508   0.12572   0.16763
 Alpha virt. eigenvalues --    0.17846   0.21645   0.22537   0.27559   0.28436
 Alpha virt. eigenvalues --    0.28562   0.29459   0.31191   0.32018   0.32843

 Mulliken charges:
               1
     1  C   -0.170820
     2  C   -0.218861
     3  C   -0.171446
     4  C    0.157469
     5  C   -0.170801
     6  C   -0.218896
     7  H    0.224956
     8  H    0.221951
     9  H    0.273324
    10  H    0.282033
    11  H    0.224534
    12  N    0.487669
    13  O   -0.452981
    14  O   -0.467994
    15  C   -0.171146
    16  C   -0.216603
    17  C   -0.157506
    18  C    0.159282
    19  C   -0.172868
    20  C   -0.219542
    21  H    0.220664
    22  H    0.221253
    23  H    0.280121
    24  H    0.270784
    25  H    0.217668
    26  N    0.489960
    27  O   -0.471197
    28  O   -0.451005
 Sum of Mulliken charges =  -0.00000

 Dipole moment (field-independent basis, Debye):
    X=             -3.1086    Y=             -3.9658    Z=              1.9905  Tot=              5.4179
 Quadrupole moment (field-independent basis, Debye-Ang):
   XX=            -66.8215   YY=           -105.3533   ZZ=           -101.8444
   XY=            -14.1211   XZ=             -2.1158   YZ=             -0.3859

 Normal termination of Gaussian 16 at Thu May  6 21:12:02 2021.
