 Gaussian 16, Revision A.03,
 Gaussian 16:  EM64L-G16RevA.03 25-Dec-2016

 -------------
 #p 6-31g* mp2
 -------------

 ------------------------------------------------------
 Input file generated by CHIRIPA (05-May-2021 14:55:25)
 ------------------------------------------------------
 Symbolic Z-matrix:
 Charge =  0 Multiplicity = 1

                         Standard orientation:
 ---------------------------------------------------------------------
 Center     Atomic      Atomic             Coordinates (Angstroms)
 Number     Number       Type             X           Y           Z
 ---------------------------------------------------------------------
      1          6           0        1.005395   -2.426815    0.139873
      2          6           0        0.533234   -1.140972   -0.143307
      3          6           0        1.421368   -0.067030   -0.254734
      4          6           0        2.781311   -0.315956   -0.076188
      5          6           0        3.282500   -1.585601    0.206835
      6          6           0        2.376105   -2.644642    0.313734
      7          1           0        0.308378   -3.255291    0.224674
      8          1           0       -0.530748   -0.968854   -0.278822
      9          1           0        1.082980    0.938550   -0.473182
     10          1           0        4.348712   -1.726087    0.336735
     11          1           0        2.745637   -3.642184    0.533737
     12          7           0        3.731205    0.813091   -0.191754
     13          8           0        4.924604    0.567540   -0.030074
     14          8           0        3.264346    1.922209   -0.441826
     15          6           0       -3.730732    0.027342    0.332388
     16          6           0       -4.800524   -0.486515   -0.631710
     17          6           0       -5.534097   -1.717744   -0.099038
     18          1           0       -3.007281   -0.775691    0.529114
     19          1           0       -4.200599    0.267756    1.296142
     20          1           0       -4.329010   -0.724583   -1.593798
     21          1           0       -5.521406    0.317894   -0.826313
     22          1           0       -6.030454   -1.489906    0.849814
     23          1           0       -4.831283   -2.538307    0.077969
     24          1           0       -6.294348   -2.068327   -0.803998
     25          6           0       -2.988646    1.257871   -0.186105
     26          6           0       -1.918856    1.771729    0.777992
     27          6           0       -1.185283    3.002957    0.245319
     28          1           0       -2.518780    1.017456   -1.149860
     29          1           0       -3.712098    2.060903   -0.382832
     30          1           0       -1.197973    0.967319    0.972595
     31          1           0       -2.390370    2.009796    1.740080
     32          1           0       -1.888097    3.823519    0.068313
     33          1           0       -0.688925    2.775120   -0.703533
     34          1           0       -0.425031    3.353539    0.950281
 ---------------------------------------------------------------------

 SCF Done:  E(RHF) =  -669.534488766     A.U. after   15 cycles
 E2 =    -0.2093713198D+01 EUMP2 =    -0.67162820196375D+03

 The electronic state is 1-A.
 Alpha  occ. eigenvalues --  -20.60750 -20.60744 -15.85802 -11.31170 -11.27756
 Alpha  occ. eigenvalues --  -11.27715 -11.27495 -11.26769 -11.26725 -11.22353
 Alpha  occ. eigenvalues --  -11.22287 -11.22271 -11.22175 -11.21753 -11.21537
 Alpha  occ. eigenvalues --   -1.59825  -1.39378  -1.19354  -1.09245  -1.08745
 Alpha  occ. eigenvalues --   -1.04779  -1.04221  -0.96677  -0.95578  -0.87678
 Alpha  occ. eigenvalues --   -0.86155  -0.82427  -0.80286  -0.79054  -0.77466
 Alpha  occ. eigenvalues --   -0.72022  -0.71148  -0.70475  -0.66046  -0.65003
 Alpha  occ. eigenvalues --   -0.64719  -0.62352  -0.61343  -0.60014  -0.58268
 Alpha  occ. eigenvalues --   -0.56019  -0.55246  -0.53308  -0.53096  -0.53068
 Alpha  occ. eigenvalues --   -0.52835  -0.50613  -0.48782  -0.48776  -0.48582
 Alpha  occ. eigenvalues --   -0.47361  -0.46551  -0.46524  -0.44782  -0.44494
 Alpha  occ. eigenvalues --   -0.37335  -0.36326
 Alpha virt. eigenvalues --    0.05041   0.11256   0.16398   0.18622   0.22658
 Alpha virt. eigenvalues --    0.23417   0.25199   0.25950   0.26938   0.28664
 Alpha virt. eigenvalues --    0.29658   0.30933   0.31310   0.31510   0.32689

 Mulliken charges:
               1
     1  C   -0.172778
     2  C   -0.227597
     3  C   -0.177349
     4  C    0.157376
     5  C   -0.170275
     6  C   -0.218908
     7  H    0.225605
     8  H    0.233594
     9  H    0.286319
    10  H    0.275657
    11  H    0.223458
    12  N    0.487420
    13  O   -0.460547
    14  O   -0.460186
    15  C   -0.300188
    16  C   -0.300156
    17  C   -0.475499
    18  H    0.140539
    19  H    0.154615
    20  H    0.151159
    21  H    0.155818
    22  H    0.157400
    23  H    0.151895
    24  H    0.162978
    25  C   -0.301511
    26  C   -0.309204
    27  C   -0.480772
    28  H    0.145428
    29  H    0.156010
    30  H    0.148635
    31  H    0.157209
    32  H    0.160120
    33  H    0.153207
    34  H    0.170529
 Sum of Mulliken charges =  -0.00000

 Dipole moment (field-independent basis, Debye):
    X=             -3.4859    Y=             -3.8241    Z=              0.4527  Tot=              5.1942
 Quadrupole moment (field-independent basis, Debye-Ang):
   XX=           -109.8087   YY=            -90.5236   ZZ=            -95.3461
   XY=            -14.0687   XZ=              2.0028   YZ=              0.1151

 Normal termination of Gaussian 16 at Thu May  6 00:04:21 2021.
