 Gaussian 16, Revision A.03,
 Gaussian 16:  EM64L-G16RevA.03 25-Dec-2016

 -------------
 #p 6-31g* mp2
 -------------

 ------------------------------------------------------
 Input file generated by CHIRIPA (05-May-2021 14:57:26)
 ------------------------------------------------------
 Symbolic Z-matrix:
 Charge =  0 Multiplicity = 1

                         Standard orientation:
 ---------------------------------------------------------------------
 Center     Atomic      Atomic             Coordinates (Angstroms)
 Number     Number       Type             X           Y           Z
 ---------------------------------------------------------------------
      1          6           0       -5.155369    2.122291    0.575870
      2          6           0       -3.767916    2.199458    0.416057
      3          6           0       -3.029103    1.064754    0.067989
      4          6           0       -3.713125   -0.136299   -0.113330
      5          6           0       -5.094553   -0.245196    0.038617
      6          6           0       -5.813100    0.902361    0.386973
      7          1           0       -5.721424    3.008748    0.846370
      8          1           0       -3.254458    3.145540    0.562121
      9          1           0       -1.954166    1.096245   -0.062155
     10          1           0       -5.578415   -1.202326   -0.113694
     11          1           0       -6.890528    0.839471    0.510413
     12          7           0       -2.941705   -1.344362   -0.481967
     13          8           0       -3.567950   -2.390648   -0.636046
     14          8           0       -1.725427   -1.222082   -0.609844
     15          6           0        5.790662    1.483096   -0.362233
     16          6           0        5.807654    0.613022    0.732849
     17          6           0        4.732498   -0.247910    0.972398
     18          6           0        3.651707   -0.212256    0.092676
     19          6           0        3.605222    0.643194   -1.007020
     20          6           0        4.691438    1.495383   -1.227148
     21          1           0        6.630165    2.148492   -0.540778
     22          1           0        6.659994    0.601315    1.406216
     23          1           0        4.719573   -0.931571    1.812551
     24          1           0        2.741539    0.632050   -1.660737
     25          1           0        4.675509    2.170036   -2.078402
     26          7           0        2.507633   -1.119059    0.335998
     27          8           0        1.567298   -1.068387   -0.453838
     28          8           0        2.572907   -1.863312    1.311940
 ---------------------------------------------------------------------

 SCF Done:  E(RHF) =  -868.334895782     A.U. after   16 cycles
 E2 =    -0.2600377795D+01 EUMP2 =    -0.87093527357637D+03

 The electronic state is 1-A.
 Alpha  occ. eigenvalues --  -20.60031 -20.59956 -20.59713 -20.59602 -15.85054
 Alpha  occ. eigenvalues --  -15.84710 -11.30765 -11.30465 -11.27374 -11.27370
 Alpha  occ. eigenvalues --  -11.27179 -11.27095 -11.27068 -11.26918 -11.26468
 Alpha  occ. eigenvalues --  -11.26456 -11.26199 -11.26188  -1.59073  -1.58744
 Alpha  occ. eigenvalues --   -1.38616  -1.38279  -1.18971  -1.18682  -1.08302
 Alpha  occ. eigenvalues --   -1.08011  -1.04423  -1.04143  -0.95076  -0.94771
 Alpha  occ. eigenvalues --   -0.85804  -0.85522  -0.81910  -0.81586  -0.76902
 Alpha  occ. eigenvalues --   -0.76574  -0.71325  -0.70808  -0.70425  -0.70092
 Alpha  occ. eigenvalues --   -0.70072  -0.69787  -0.64611  -0.64428  -0.64315
 Alpha  occ. eigenvalues --   -0.64156  -0.61765  -0.61483  -0.54912  -0.54643
 Alpha  occ. eigenvalues --   -0.52739  -0.52517  -0.52454  -0.52242  -0.48057
 Alpha  occ. eigenvalues --   -0.48008  -0.47678  -0.47653  -0.43951  -0.43592
 Alpha  occ. eigenvalues --   -0.36974  -0.36691  -0.36046  -0.35765
 Alpha virt. eigenvalues --    0.05633   0.05960   0.11603   0.11885   0.17063
 Alpha virt. eigenvalues --    0.17379   0.21705   0.21964   0.27594   0.27836
 Alpha virt. eigenvalues --    0.28603   0.28925   0.31214   0.31499   0.32836

 Mulliken charges:
               1
     1  C   -0.172023
     2  C   -0.218708
     3  C   -0.171646
     4  C    0.158847
     5  C   -0.171521
     6  C   -0.218638
     7  H    0.222585
     8  H    0.219978
     9  H    0.278322
    10  H    0.274869
    11  H    0.221084
    12  N    0.487471
    13  O   -0.466039
    14  O   -0.445010
    15  C   -0.172004
    16  C   -0.218553
    17  C   -0.171642
    18  C    0.158536
    19  C   -0.172783
    20  C   -0.218721
    21  H    0.223707
    22  H    0.221995
    23  H    0.275428
    24  H    0.276287
    25  H    0.221519
    26  N    0.486636
    27  O   -0.447402
    28  O   -0.462573
 Sum of Mulliken charges =  -0.00000

 Dipole moment (field-independent basis, Debye):
    X=              1.4023    Y=              7.2712    Z=              0.3670  Tot=              7.4143
 Quadrupole moment (field-independent basis, Debye-Ang):
   XX=            -53.6559   YY=           -106.7587   ZZ=           -103.2708
   XY=             -2.9471   XZ=             -5.1503   YZ=             -1.8161

 Normal termination of Gaussian 16 at Wed May  5 21:14:25 2021.
