 Gaussian 16, Revision A.03,
 Gaussian 16:  EM64L-G16RevA.03 25-Dec-2016

 -------------
 #p 6-31g* mp2
 -------------

 ------------------------------------------------------
 Input file generated by CHIRIPA (05-May-2021 14:53:14)
 ------------------------------------------------------
 Symbolic Z-matrix:
 Charge =  0 Multiplicity = 1

                         Standard orientation:
 ---------------------------------------------------------------------
 Center     Atomic      Atomic             Coordinates (Angstroms)
 Number     Number       Type             X           Y           Z
 ---------------------------------------------------------------------
      1          6           0        3.381200    0.359346    0.077264
      2          6           0        3.431434   -1.111897    0.490671
      3          6           0        4.717550   -1.473403    1.234319
      4          1           0        4.249156    0.585176   -0.557243
      5          1           0        3.476920    0.988227    0.973222
      6          1           0        3.334258   -1.737821   -0.405651
      7          1           0        2.563155   -1.334299    1.124111
      8          1           0        4.817652   -0.873715    2.144789
      9          1           0        5.593136   -1.279530    0.606335
     10          1           0        4.732466   -2.529697    1.520468
     11          6           0        2.101506    0.736088   -0.667166
     12          6           0        2.051272    2.207331   -1.080573
     13          6           0        0.765156    2.568837   -1.824221
     14          1           0        2.005786    0.107207   -1.563124
     15          1           0        1.233550    0.510258   -0.032659
     16          1           0        2.919551    2.429733   -1.714012
     17          1           0        2.148448    2.833255   -0.184251
     18          1           0       -0.110430    2.374964   -1.196237
     19          1           0        0.665055    1.969149   -2.734690
     20          1           0        0.750240    3.625131   -2.110369
     21          6           0       -1.708892   -2.176366   -1.536346
     22          6           0       -0.799356   -2.000025   -0.488410
     23          6           0       -1.028956   -1.034288    0.496061
     24          6           0       -2.183523   -0.258869    0.401235
     25          6           0       -3.108579   -0.410668   -0.630520
     26          6           0       -2.858574   -1.382524   -1.603936
     27          1           0       -1.522608   -2.928950   -2.296813
     28          1           0        0.094344   -2.615099   -0.433376
     29          1           0       -0.341468   -0.876687    1.318216
     30          1           0       -3.990586    0.217579   -0.658596
     31          1           0       -3.566676   -1.517263   -2.416637
     32          7           0       -2.437391    0.766753    1.437600
     33          8           0       -3.462061    1.437139    1.331446
     34          8           0       -1.606895    0.880828    2.336433
 ---------------------------------------------------------------------

 SCF Done:  E(RHF) =  -669.534743708     A.U. after   15 cycles
 E2 =    -0.2093921307D+01 EUMP2 =    -0.67162866501522D+03

 The electronic state is 1-A.
 Alpha  occ. eigenvalues --  -20.60814 -20.60808 -15.85867 -11.31203 -11.27763
 Alpha  occ. eigenvalues --  -11.27757 -11.27492 -11.26764 -11.26735 -11.22196
 Alpha  occ. eigenvalues --  -11.21647 -11.21606 -11.21494 -11.21464 -11.21029
 Alpha  occ. eigenvalues --   -1.59891  -1.39444  -1.19374  -1.08769  -1.08682
 Alpha  occ. eigenvalues --   -1.04770  -1.03758  -0.96181  -0.95612  -0.87203
 Alpha  occ. eigenvalues --   -0.86171  -0.82444  -0.79864  -0.78527  -0.77469
 Alpha  occ. eigenvalues --   -0.72082  -0.71218  -0.70494  -0.65354  -0.65017
 Alpha  occ. eigenvalues --   -0.64734  -0.62118  -0.61154  -0.59574  -0.57805
 Alpha  occ. eigenvalues --   -0.55465  -0.55264  -0.53174  -0.52901  -0.52854
 Alpha  occ. eigenvalues --   -0.52563  -0.50128  -0.48842  -0.48837  -0.48165
 Alpha  occ. eigenvalues --   -0.46908  -0.46023  -0.45924  -0.44840  -0.44004
 Alpha  occ. eigenvalues --   -0.37340  -0.36265
 Alpha virt. eigenvalues --    0.05012   0.11185   0.16493   0.19803   0.22915
 Alpha virt. eigenvalues --    0.23898   0.25058   0.25982   0.27622   0.28206
 Alpha virt. eigenvalues --    0.29838   0.30413   0.31112   0.31672   0.32172

 Mulliken charges:
               1
     1  C   -0.298344
     2  C   -0.300938
     3  C   -0.475592
     4  H    0.150598
     5  H    0.154649
     6  H    0.147598
     7  H    0.144492
     8  H    0.159241
     9  H    0.157106
    10  H    0.159389
    11  C   -0.302588
    12  C   -0.299962
    13  C   -0.475143
    14  H    0.145009
    15  H    0.154089
    16  H    0.150667
    17  H    0.156954
    18  H    0.156640
    19  H    0.151930
    20  H    0.161845
    21  C   -0.171301
    22  C   -0.215829
    23  C   -0.174282
    24  C    0.159440
    25  C   -0.171135
    26  C   -0.218077
    27  H    0.225578
    28  H    0.226061
    29  H    0.276371
    30  H    0.275675
    31  H    0.223457
    32  N    0.488037
    33  O   -0.459912
    34  O   -0.461725
 Sum of Mulliken charges =  -0.00000

 Dipole moment (field-independent basis, Debye):
    X=              0.9261    Y=             -3.5391    Z=             -3.6332  Tot=              5.1559
 Quadrupole moment (field-independent basis, Debye-Ang):
   XX=            -95.5033   YY=            -93.2395   ZZ=            -96.8031
   XY=              6.9341   XZ=             10.0628   YZ=             -0.5715

 Normal termination of Gaussian 16 at Thu May  6 12:07:36 2021.
