 Gaussian 16, Revision A.03,
 Gaussian 16:  EM64L-G16RevA.03 25-Dec-2016

 -------------
 #p 6-31g* mp2
 -------------

 ------------------------------------------------------
 Input file generated by CHIRIPA (05-May-2021 14:57:24)
 ------------------------------------------------------
 Symbolic Z-matrix:
 Charge =  0 Multiplicity = 1

                         Standard orientation:
 ---------------------------------------------------------------------
 Center     Atomic      Atomic             Coordinates (Angstroms)
 Number     Number       Type             X           Y           Z
 ---------------------------------------------------------------------
      1          6           0       -3.610120    2.235576   -1.205996
      2          6           0       -2.592457    1.837302   -0.332921
      3          6           0       -2.643764    0.589294    0.295085
      4          6           0       -3.732235   -0.239019    0.025976
      5          6           0       -4.761657    0.129274   -0.838860
      6          6           0       -4.689569    1.381796   -1.455739
      7          1           0       -3.562192    3.206812   -1.689525
      8          1           0       -1.752942    2.498293   -0.137091
      9          1           0       -1.869599    0.255801    0.975429
     10          1           0       -5.585868   -0.551397   -1.014305
     11          1           0       -5.481333    1.688463   -2.133316
     12          7           0       -3.797551   -1.562619    0.684928
     13          8           0       -4.767183   -2.273991    0.431155
     14          8           0       -2.877878   -1.863622    1.442711
     15          6           0        2.234744    1.332334    1.643280
     16          6           0        3.570156    1.709311    1.466975
     17          6           0        4.403075    0.989991    0.604784
     18          6           0        3.865202   -0.105913   -0.068252
     19          6           0        2.538910   -0.506344    0.086335
     20          6           0        1.724283    0.227658    0.953614
     21          1           0        1.594817    1.896822    2.315027
     22          1           0        3.969296    2.566781    2.001275
     23          1           0        5.440624    1.259916    0.449702
     24          1           0        2.169572   -1.365705   -0.460020
     25          1           0        0.687574   -0.067405    1.088585
     26          7           0        4.737293   -0.875196   -0.983707
     27          8           0        4.239328   -1.836812   -1.565053
     28          8           0        5.902290   -0.501979   -1.102562
 ---------------------------------------------------------------------

 SCF Done:  E(RHF) =  -868.337151327     A.U. after   16 cycles
 E2 =    -0.2599547670D+01 EUMP2 =    -0.87093669899706D+03

 The electronic state is 1-A.
 Alpha  occ. eigenvalues --  -20.61409 -20.61378 -20.60886 -20.60877 -15.86450
 Alpha  occ. eigenvalues --  -15.85941 -11.31865 -11.31390 -11.28540 -11.28359
 Alpha  occ. eigenvalues --  -11.28114 -11.27978 -11.27960 -11.27795 -11.27482
 Alpha  occ. eigenvalues --  -11.27376 -11.27060 -11.27021  -1.60466  -1.59958
 Alpha  occ. eigenvalues --   -1.40023  -1.39509  -1.20021  -1.19586  -1.09393
 Alpha  occ. eigenvalues --   -1.08980  -1.05443  -1.04997  -0.96233  -0.95791
 Alpha  occ. eigenvalues --   -0.86834  -0.86405  -0.83071  -0.82616  -0.78136
 Alpha  occ. eigenvalues --   -0.77635  -0.72667  -0.72158  -0.71788  -0.71283
 Alpha  occ. eigenvalues --   -0.71134  -0.70713  -0.65676  -0.65471  -0.65243
 Alpha  occ. eigenvalues --   -0.65010  -0.62845  -0.62292  -0.55907  -0.55537
 Alpha  occ. eigenvalues --   -0.53747  -0.53571  -0.53329  -0.53055  -0.49436
 Alpha  occ. eigenvalues --   -0.49413  -0.48926  -0.48905  -0.45418  -0.44895
 Alpha  occ. eigenvalues --   -0.37968  -0.37601  -0.37042  -0.36594
 Alpha virt. eigenvalues --    0.04414   0.04897   0.10595   0.11018   0.15926
 Alpha virt. eigenvalues --    0.16354   0.18551   0.21906   0.24612   0.27028
 Alpha virt. eigenvalues --    0.28037   0.29193   0.29610   0.31029   0.31951

 Mulliken charges:
               1
     1  C   -0.170240
     2  C   -0.218247
     3  C   -0.177356
     4  C    0.160697
     5  C   -0.169668
     6  C   -0.217728
     7  H    0.228059
     8  H    0.221923
     9  H    0.271028
    10  H    0.277979
    11  H    0.226363
    12  N    0.487723
    13  O   -0.456243
    14  O   -0.464088
    15  C   -0.173725
    16  C   -0.218525
    17  C   -0.170694
    18  C    0.158812
    19  C   -0.171082
    20  C   -0.224682
    21  H    0.223027
    22  H    0.223677
    23  H    0.276370
    24  H    0.280024
    25  H    0.227424
    26  N    0.487902
    27  O   -0.458424
    28  O   -0.460306
 Sum of Mulliken charges =  -0.00000

 Dipole moment (field-independent basis, Debye):
    X=             -2.9718    Y=              7.3445    Z=              0.7514  Tot=              7.9586
 Quadrupole moment (field-independent basis, Debye-Ang):
   XX=           -122.6117   YY=           -106.4808   ZZ=           -105.4225
   XY=             -3.3047   XZ=             25.1393   YZ=              1.2741

 Normal termination of Gaussian 16 at Fri May  7 01:51:30 2021.
