 Gaussian 16, Revision A.03,
 Gaussian 16:  EM64L-G16RevA.03 25-Dec-2016

 -------------
 #p 6-31g* mp2
 -------------

 ------------------------------------------------------
 Input file generated by CHIRIPA (05-May-2021 14:53:13)
 ------------------------------------------------------
 Symbolic Z-matrix:
 Charge =  0 Multiplicity = 1

                         Standard orientation:
 ---------------------------------------------------------------------
 Center     Atomic      Atomic             Coordinates (Angstroms)
 Number     Number       Type             X           Y           Z
 ---------------------------------------------------------------------
      1          6           0        4.029703   -0.479133    0.312103
      2          6           0        2.724759    0.304454    0.457353
      3          6           0        1.536300   -0.587830    0.816782
      4          1           0        3.902507   -1.251126   -0.459125
      5          1           0        4.238265   -1.008045    1.252395
      6          1           0        2.519437    0.832838   -0.482471
      7          1           0        2.855137    1.074796    1.228190
      8          1           0        1.715439   -1.104505    1.765232
      9          1           0        1.377833   -1.347838    0.044851
     10          1           0        0.613811   -0.007234    0.915690
     11          6           0        5.226947    0.399124   -0.047065
     12          6           0        6.531891   -0.384462   -0.192315
     13          6           0        7.720350    0.507821   -0.551744
     14          1           0        5.018385    0.928036   -0.987357
     15          1           0        5.354143    1.171117    0.724163
     16          1           0        6.401513   -1.154805   -0.963152
     17          1           0        6.737212   -0.912847    0.747509
     18          1           0        7.878817    1.267829    0.220187
     19          1           0        7.541211    1.024496   -1.500194
     20          1           0        8.642839   -0.072775   -0.650652
     21          6           0       -3.457217   -2.485262   -0.192421
     22          6           0       -4.708287   -1.865255   -0.109140
     23          6           0       -4.808161   -0.471667   -0.059306
     24          6           0       -3.631217    0.274541   -0.094937
     25          6           0       -2.370136   -0.313771   -0.177706
     26          6           0       -2.294184   -1.708909   -0.226379
     27          1           0       -3.388925   -3.568436   -0.230683
     28          1           0       -5.613196   -2.465657   -0.082602
     29          1           0       -5.763807    0.034276    0.005349
     30          1           0       -1.485800    0.311336   -0.202410
     31          1           0       -1.321235   -2.187694   -0.291038
     32          7           0       -3.724286    1.750691   -0.042795
     33          8           0       -2.672436    2.385645   -0.075665
     34          8           0       -4.847322    2.244792    0.029957
 ---------------------------------------------------------------------

 SCF Done:  E(RHF) =  -669.535453360     A.U. after   15 cycles
 E2 =    -0.2091259346D+01 EUMP2 =    -0.67162671270643D+03

 The electronic state is 1-A.
 Alpha  occ. eigenvalues --  -20.60729 -20.60723 -15.85780 -11.31121 -11.27695
 Alpha  occ. eigenvalues --  -11.27656 -11.27430 -11.26714 -11.26670 -11.22027
 Alpha  occ. eigenvalues --  -11.21866 -11.21791 -11.21732 -11.21589 -11.21200
 Alpha  occ. eigenvalues --   -1.59804  -1.39358  -1.19293  -1.08745  -1.08694
 Alpha  occ. eigenvalues --   -1.04693  -1.03890  -0.96375  -0.95532  -0.87402
 Alpha  occ. eigenvalues --   -0.86093  -0.82363  -0.79955  -0.78528  -0.77411
 Alpha  occ. eigenvalues --   -0.72000  -0.71126  -0.70417  -0.65372  -0.64946
 Alpha  occ. eigenvalues --   -0.64704  -0.62115  -0.61270  -0.59718  -0.57960
 Alpha  occ. eigenvalues --   -0.55668  -0.55198  -0.53166  -0.52984  -0.52928
 Alpha  occ. eigenvalues --   -0.52583  -0.50306  -0.48757  -0.48754  -0.48262
 Alpha  occ. eigenvalues --   -0.46963  -0.46081  -0.45982  -0.44768  -0.44134
 Alpha  occ. eigenvalues --   -0.37279  -0.36287
 Alpha virt. eigenvalues --    0.05099   0.11338   0.16589   0.20191   0.22712
 Alpha virt. eigenvalues --    0.23843   0.25502   0.26468   0.26597   0.27789
 Alpha virt. eigenvalues --    0.29018   0.29653   0.31388   0.31569   0.32217

 Mulliken charges:
               1
     1  C   -0.298982
     2  C   -0.299448
     3  C   -0.484202
     4  H    0.148173
     5  H    0.149841
     6  H    0.155177
     7  H    0.157461
     8  H    0.159558
     9  H    0.147777
    10  H    0.162028
    11  C   -0.298848
    12  C   -0.299850
    13  C   -0.475946
    14  H    0.150976
    15  H    0.151479
    16  H    0.151422
    17  H    0.151922
    18  H    0.156068
    19  H    0.155897
    20  H    0.160567
    21  C   -0.171215
    22  C   -0.218510
    23  C   -0.170972
    24  C    0.159918
    25  C   -0.177427
    26  C   -0.221444
    27  H    0.225436
    28  H    0.223140
    29  H    0.275310
    30  H    0.280677
    31  H    0.227490
    32  N    0.487881
    33  O   -0.460793
    34  O   -0.460560
 Sum of Mulliken charges =  -0.00000

 Dipole moment (field-independent basis, Debye):
    X=              0.4958    Y=             -5.1543    Z=             -0.1475  Tot=              5.1801
 Quadrupole moment (field-independent basis, Debye-Ang):
   XX=            -92.5301   YY=            -98.5168   ZZ=            -94.6342
   XY=             19.3224   XZ=              0.8957   YZ=              0.7191

 Normal termination of Gaussian 16 at Thu May  6 13:40:50 2021.
