 Gaussian 16, Revision A.03,
 Gaussian 16:  EM64L-G16RevA.03 25-Dec-2016

 -------------
 #p 6-31g* mp2
 -------------

 ------------------------------------------------------
 Input file generated by CHIRIPA (05-May-2021 14:55:23)
 ------------------------------------------------------
 Symbolic Z-matrix:
 Charge =  0 Multiplicity = 1

                         Standard orientation:
 ---------------------------------------------------------------------
 Center     Atomic      Atomic             Coordinates (Angstroms)
 Number     Number       Type             X           Y           Z
 ---------------------------------------------------------------------
      1          6           0        0.584504    0.563859    1.334414
      2          6           0        1.373379   -0.486764    1.814403
      3          6           0        2.574959   -0.818918    1.181609
      4          6           0        2.959047   -0.076130    0.066247
      5          6           0        2.194910    0.976128   -0.435885
      6          6           0        0.997060    1.290670    0.212780
      7          1           0       -0.347464    0.815043    1.832148
      8          1           0        1.055476   -1.052940    2.685280
      9          1           0        3.204950   -1.627424    1.532105
     10          1           0        2.538078    1.522347   -1.306114
     11          1           0        0.386428    2.107106   -0.162197
     12          7           0        4.229132   -0.418444   -0.612064
     13          8           0        4.545338    0.251296   -1.592930
     14          8           0        4.884368   -1.350009   -0.150015
     15          6           0       -3.676068   -0.598509   -0.640094
     16          6           0       -3.962493   -1.833831    0.214262
     17          6           0       -4.273687   -3.073624   -0.624706
     18          1           0       -4.542107   -0.398201   -1.285693
     19          1           0       -2.830491   -0.811682   -1.308639
     20          1           0       -4.806392   -1.617923    0.881970
     21          1           0       -3.095747   -2.031108    0.858039
     22          1           0       -3.431050   -3.316771   -1.280025
     23          1           0       -5.151414   -2.901236   -1.255958
     24          1           0       -4.475331   -3.944990    0.006104
     25          6           0       -3.363220    0.648974    0.184310
     26          6           0       -3.076795    1.884296   -0.670047
     27          6           0       -2.765600    3.124087    0.168921
     28          1           0       -4.208796    0.862146    0.852855
     29          1           0       -2.497181    0.448667    0.829908
     30          1           0       -3.943540    2.081573   -1.313824
     31          1           0       -2.232896    1.668387   -1.337755
     32          1           0       -1.887873    2.951701    0.800174
     33          1           0       -3.608237    3.367235    0.824240
     34          1           0       -2.563957    3.995454   -0.461889
 ---------------------------------------------------------------------

 SCF Done:  E(RHF) =  -669.535060004     A.U. after   15 cycles
 E2 =    -0.2092756947D+01 EUMP2 =    -0.67162781695060D+03

 The electronic state is 1-A.
 Alpha  occ. eigenvalues --  -20.60779 -20.60774 -15.85832 -11.31209 -11.27775
 Alpha  occ. eigenvalues --  -11.27768 -11.27497 -11.26792 -11.26765 -11.22652
 Alpha  occ. eigenvalues --  -11.22397 -11.22312 -11.22258 -11.22102 -11.21563
 Alpha  occ. eigenvalues --   -1.59854  -1.39407  -1.19380  -1.09320  -1.08770
 Alpha  occ. eigenvalues --   -1.04784  -1.04398  -0.96852  -0.95610  -0.87863
 Alpha  occ. eigenvalues --   -0.86180  -0.82442  -0.80471  -0.79105  -0.77484
 Alpha  occ. eigenvalues --   -0.72050  -0.71177  -0.70530  -0.66014  -0.65026
 Alpha  occ. eigenvalues --   -0.64756  -0.62229  -0.61664  -0.60235  -0.58448
 Alpha  occ. eigenvalues --   -0.56209  -0.55279  -0.53527  -0.53281  -0.53100
 Alpha  occ. eigenvalues --   -0.52849  -0.50796  -0.48811  -0.48807  -0.48766
 Alpha  occ. eigenvalues --   -0.47510  -0.46638  -0.46526  -0.44810  -0.44638
 Alpha  occ. eigenvalues --   -0.37346  -0.36383
 Alpha virt. eigenvalues --    0.05017   0.11201   0.16399   0.18644   0.22800
 Alpha virt. eigenvalues --    0.23628   0.24975   0.25951   0.26666   0.28107
 Alpha virt. eigenvalues --    0.29292   0.29829   0.30844   0.31307   0.31536

 Mulliken charges:
               1
     1  C   -0.173851
     2  C   -0.219542
     3  C   -0.170954
     4  C    0.158871
     5  C   -0.171352
     6  C   -0.223903
     7  H    0.229204
     8  H    0.223671
     9  H    0.275677
    10  H    0.275832
    11  H    0.229816
    12  N    0.487975
    13  O   -0.460315
    14  O   -0.460327
    15  C   -0.298911
    16  C   -0.299722
    17  C   -0.476411
    18  H    0.152381
    19  H    0.153119
    20  H    0.152397
    21  H    0.149323
    22  H    0.157483
    23  H    0.156601
    24  H    0.161645
    25  C   -0.300659
    26  C   -0.303303
    27  C   -0.479542
    28  H    0.152119
    29  H    0.142042
    30  H    0.158175
    31  H    0.151781
    32  H    0.144717
    33  H    0.161268
    34  H    0.164698
 Sum of Mulliken charges =  -0.00000

 Dipole moment (field-independent basis, Debye):
    X=             -4.6590    Y=              1.1711    Z=              2.2924  Tot=              5.3229
 Quadrupole moment (field-independent basis, Debye-Ang):
   XX=           -120.1161   YY=            -93.2368   ZZ=            -92.8803
   XY=              2.7079   XZ=              7.5536   YZ=             -3.4526

 Normal termination of Gaussian 16 at Wed May  5 23:57:20 2021.
