 Gaussian 16, Revision A.03,
 Gaussian 16:  EM64L-G16RevA.03 25-Dec-2016

 -------------
 #p 6-31g* mp2
 -------------

 ------------------------------------------------------
 Input file generated by CHIRIPA (05-May-2021 14:57:22)
 ------------------------------------------------------
 Symbolic Z-matrix:
 Charge =  0 Multiplicity = 1

                         Standard orientation:
 ---------------------------------------------------------------------
 Center     Atomic      Atomic             Coordinates (Angstroms)
 Number     Number       Type             X           Y           Z
 ---------------------------------------------------------------------
      1          6           0       -1.970022   -1.179235    0.994816
      2          6           0       -2.966763   -0.699988    1.851175
      3          6           0       -4.095107   -0.054672    1.336436
      4          6           0       -4.194792    0.094934   -0.045943
      5          6           0       -3.218676   -0.371593   -0.925056
      6          6           0       -2.098932   -1.013800   -0.388128
      7          1           0       -1.096837   -1.679324    1.403296
      8          1           0       -2.869309   -0.827059    2.925605
      9          1           0       -4.881718    0.326015    1.976545
     10          1           0       -3.343844   -0.230087   -1.991699
     11          1           0       -1.326418   -1.384976   -1.055583
     12          7           0       -5.384767    0.776455   -0.602619
     13          8           0       -5.448934    0.895733   -1.824213
     14          8           0       -6.230771    1.178448    0.193193
     15          6           0        5.485126    2.049106    0.123007
     16          6           0        5.969658    0.873795   -0.460426
     17          6           0        5.154923   -0.258010   -0.559279
     18          6           0        3.854965   -0.179030   -0.062124
     19          6           0        3.343282    0.977380    0.524551
     20          6           0        4.175793    2.097063    0.612770
     21          1           0        6.124937    2.923611    0.195667
     22          1           0        6.986081    0.833666   -0.841632
     23          1           0        5.504503   -1.180763   -1.006199
     24          1           0        2.325614    0.986976    0.895599
     25          1           0        3.796824    3.008476    1.066370
     26          7           0        2.983032   -1.370804   -0.161147
     27          8           0        1.841523   -1.275552    0.284410
     28          8           0        3.457631   -2.377604   -0.682441
 ---------------------------------------------------------------------

 SCF Done:  E(RHF) =  -868.340578500     A.U. after   16 cycles
 E2 =    -0.2598211539D+01 EUMP2 =    -0.87093879003909D+03

 The electronic state is 1-A.
 Alpha  occ. eigenvalues --  -20.61852 -20.61786 -20.60201 -20.60194 -15.86856
 Alpha  occ. eigenvalues --  -15.85246 -11.31907 -11.30411 -11.28446 -11.28426
 Alpha  occ. eigenvalues --  -11.28113 -11.27379 -11.27368 -11.26998 -11.26923
 Alpha  occ. eigenvalues --  -11.26454 -11.25921 -11.25739  -1.60882  -1.59281
 Alpha  occ. eigenvalues --   -1.40447  -1.38840  -1.20049  -1.18543  -1.09499
 Alpha  occ. eigenvalues --   -1.07930  -1.05404  -1.03919  -0.96388  -0.94807
 Alpha  occ. eigenvalues --   -0.86816  -0.85291  -0.83237  -0.81659  -0.78315
 Alpha  occ. eigenvalues --   -0.76770  -0.73106  -0.72182  -0.71465  -0.71150
 Alpha  occ. eigenvalues --   -0.70605  -0.69526  -0.65706  -0.65400  -0.64165
 Alpha  occ. eigenvalues --   -0.63869  -0.62755  -0.61268  -0.55910  -0.54260
 Alpha  occ. eigenvalues --   -0.53750  -0.53489  -0.52266  -0.51974  -0.49857
 Alpha  occ. eigenvalues --   -0.49803  -0.48235  -0.48202  -0.45918  -0.44292
 Alpha  occ. eigenvalues --   -0.38007  -0.36993  -0.36458  -0.35550
 Alpha virt. eigenvalues --    0.04188   0.05756   0.10666   0.12121   0.15746
 Alpha virt. eigenvalues --    0.17322   0.20817   0.22450   0.26776   0.27592
 Alpha virt. eigenvalues --    0.28264   0.29325   0.30497   0.31805   0.32290

 Mulliken charges:
               1
     1  C   -0.174319
     2  C   -0.221051
     3  C   -0.172731
     4  C    0.157088
     5  C   -0.173576
     6  C   -0.221355
     7  H    0.242628
     8  H    0.220120
     9  H    0.272039
    10  H    0.272785
    11  H    0.234047
    12  N    0.488218
    13  O   -0.462574
    14  O   -0.463290
    15  C   -0.169649
    16  C   -0.218503
    17  C   -0.170331
    18  C    0.157380
    19  C   -0.170739
    20  C   -0.218404
    21  H    0.228343
    22  H    0.225792
    23  H    0.276559
    24  H    0.274402
    25  H    0.225975
    26  N    0.492114
    27  O   -0.475208
    28  O   -0.455759
 Sum of Mulliken charges =  -0.00000

 Dipole moment (field-independent basis, Debye):
    X=              7.8735    Y=              1.7447    Z=              2.2769  Tot=              8.3798
 Quadrupole moment (field-independent basis, Debye-Ang):
   XX=           -114.1182   YY=           -106.2786   ZZ=           -100.7156
   XY=             24.5219   XZ=            -11.1542   YZ=              2.0533

 Normal termination of Gaussian 16 at Thu May  6 01:47:18 2021.
