 Gaussian 16, Revision A.03,
 Gaussian 16:  EM64L-G16RevA.03 25-Dec-2016

 -------------
 #p 6-31g* mp2
 -------------

 ------------------------------------------------------
 Input file generated by CHIRIPA (05-May-2021 14:51:11)
 ------------------------------------------------------
 Symbolic Z-matrix:
 Charge =  0 Multiplicity = 1

                         Standard orientation:
 ---------------------------------------------------------------------
 Center     Atomic      Atomic             Coordinates (Angstroms)
 Number     Number       Type             X           Y           Z
 ---------------------------------------------------------------------
      1          6           0       -4.563996    0.373039    0.202758
      2          6           0       -4.602551    1.768336   -0.421456
      3          6           0       -5.916754    2.501194   -0.150195
      4          1           0       -5.403063   -0.219395   -0.187028
      5          1           0       -4.719576    0.459615    1.287052
      6          1           0       -4.445564    1.679274   -1.504064
      7          1           0       -3.763182    2.357454   -0.030284
      8          1           0       -6.076803    2.619431    0.926376
      9          1           0       -6.763063    1.937397   -0.555777
     10          1           0       -5.922772    3.496486   -0.605407
     11          6           0       -3.256504   -0.372143   -0.059725
     12          6           0       -3.217948   -1.767441    0.564489
     13          6           0       -1.903745   -2.500299    0.293228
     14          1           0       -3.100923   -0.458720   -1.144019
     15          1           0       -2.417436    0.220290    0.330061
     16          1           0       -4.057317   -2.356559    0.173317
     17          1           0       -3.374935   -1.678379    1.647097
     18          1           0       -1.057437   -1.936502    0.698810
     19          1           0       -1.743696   -2.618536   -0.783343
     20          1           0       -1.897728   -3.495591    0.748440
     21          6           0        3.211953   -0.308273   -0.104045
     22          6           0        3.225314   -1.816940   -0.352506
     23          6           0        1.820912   -2.418222   -0.414997
     24          1           0        2.681313   -0.102534    0.835656
     25          1           0        2.637095    0.182559   -0.901551
     26          1           0        3.801144   -2.304644    0.444476
     27          1           0        3.756152   -2.019124   -1.291628
     28          1           0        1.240582   -1.958542   -1.221540
     29          1           0        1.285830   -2.245684    0.524428
     30          1           0        1.853878   -3.497556   -0.593358
     31          6           0        4.608546    0.307378   -0.038988
     32          6           0        4.595185    1.816044    0.209473
     33          6           0        5.999587    2.417328    0.271964
     34          1           0        5.183405   -0.183455    0.758518
     35          1           0        5.139186    0.101639   -0.978689
     36          1           0        4.064348    2.018229    1.148595
     37          1           0        4.019355    2.303749   -0.587509
     38          1           0        6.534670    2.244788   -0.667461
     39          1           0        6.579917    1.957646    1.078507
     40          1           0        5.966622    3.496661    0.450325
 ---------------------------------------------------------------------

 SCF Done:  E(RHF) =  -470.732748333     A.U. after   11 cycles
 E2 =    -0.1582533873D+01 EUMP2 =    -0.47231528220599D+03

 The electronic state is 1-A.
 Alpha  occ. eigenvalues --  -11.21594 -11.21580 -11.21542 -11.21526 -11.21387
 Alpha  occ. eigenvalues --  -11.21368 -11.21328 -11.21307 -11.21066 -11.21055
 Alpha  occ. eigenvalues --  -11.20959 -11.20930  -1.08408  -1.08385  -1.03519
 Alpha  occ. eigenvalues --   -1.03456  -0.96005  -0.95868  -0.87071  -0.86837
 Alpha  occ. eigenvalues --   -0.79674  -0.79433  -0.78243  -0.78174  -0.65052
 Alpha  occ. eigenvalues --   -0.65007  -0.60971  -0.60814  -0.59330  -0.59280
 Alpha  occ. eigenvalues --   -0.57704  -0.57419  -0.55384  -0.55082  -0.52777
 Alpha  occ. eigenvalues --   -0.52579  -0.52572  -0.52064  -0.50060  -0.49698
 Alpha  occ. eigenvalues --   -0.48097  -0.47614  -0.46696  -0.46458  -0.45841
 Alpha  occ. eigenvalues --   -0.45702  -0.45666  -0.45583  -0.43775  -0.43712
 Alpha virt. eigenvalues --    0.22443   0.23034   0.23621   0.24838   0.26085
 Alpha virt. eigenvalues --    0.26527   0.26895   0.27612   0.27685   0.29343
 Alpha virt. eigenvalues --    0.29947   0.31402   0.31766   0.32110   0.32151

 Mulliken charges:
               1
     1  C   -0.298176
     2  C   -0.299609
     3  C   -0.475673
     4  H    0.149590
     5  H    0.149397
     6  H    0.151808
     7  H    0.151901
     8  H    0.155137
     9  H    0.155146
    10  H    0.160151
    11  C   -0.298154
    12  C   -0.300306
    13  C   -0.476589
    14  H    0.149205
    15  H    0.149595
    16  H    0.151380
    17  H    0.151265
    18  H    0.158811
    19  H    0.155497
    20  H    0.159368
    21  C   -0.298104
    22  C   -0.300477
    23  C   -0.476006
    24  H    0.148765
    25  H    0.149549
    26  H    0.151503
    27  H    0.151507
    28  H    0.155728
    29  H    0.157875
    30  H    0.160019
    31  C   -0.298173
    32  C   -0.299616
    33  C   -0.475688
    34  H    0.149481
    35  H    0.149690
    36  H    0.151740
    37  H    0.151918
    38  H    0.155198
    39  H    0.155163
    40  H    0.160186
 Sum of Mulliken charges =  -0.00000

 Dipole moment (field-independent basis, Debye):
    X=              0.0102    Y=             -0.0190    Z=             -0.0053  Tot=              0.0222
 Quadrupole moment (field-independent basis, Debye-Ang):
   XX=            -86.5788   YY=            -85.3791   ZZ=            -83.0262
   XY=              0.1754   XZ=              0.4236   YZ=              0.0713

 Normal termination of Gaussian 16 at Wed May  5 15:13:02 2021.
