 Gaussian 16, Revision A.03,
 Gaussian 16:  EM64L-G16RevA.03 25-Dec-2016

 -------------
 #p 6-31g* mp2
 -------------

 ------------------------------------------------------
 Input file generated by CHIRIPA (05-May-2021 14:51:13)
 ------------------------------------------------------
 Symbolic Z-matrix:
 Charge =  0 Multiplicity = 1

                         Standard orientation:
 ---------------------------------------------------------------------
 Center     Atomic      Atomic             Coordinates (Angstroms)
 Number     Number       Type             X           Y           Z
 ---------------------------------------------------------------------
      1          6           0        1.799205   -1.407762   -0.173937
      2          6           0        0.986794   -1.921514    1.015193
      3          6           0       -0.182535   -2.811147    0.592087
      4          1           0        1.136462   -0.848495   -0.848427
      5          1           0        2.178203   -2.264748   -0.747810
      6          1           0        0.610598   -1.063825    1.587436
      7          1           0        1.651587   -2.479460    1.687027
      8          1           0        0.178315   -3.684925    0.039909
      9          1           0       -0.868589   -2.261246   -0.060247
     10          1           0       -0.749713   -3.167325    1.457712
     11          6           0        2.971662   -0.516969    0.232955
     12          6           0        3.784074   -0.003217   -0.956175
     13          6           0        4.953402    0.886416   -0.533069
     14          1           0        2.592665    0.340017    0.806828
     15          1           0        3.634406   -1.076236    0.907445
     16          1           0        3.119280    0.554729   -1.628009
     17          1           0        4.160269   -0.860906   -1.528418
     18          1           0        5.639457    0.336515    0.119265
     19          1           0        4.592553    1.760194    0.019109
     20          1           0        5.520580    1.242594   -1.398694
     21          6           0       -2.610753    0.235154   -0.091371
     22          6           0       -4.062046    0.086886   -0.549355
     23          6           0       -4.498087   -1.373763   -0.668371
     24          1           0       -1.954125   -0.288468   -0.799610
     25          1           0       -2.486734   -0.265704    0.878761
     26          1           0       -4.183619    0.589066   -1.517679
     27          1           0       -4.715279    0.611085    0.159953
     28          1           0       -4.405297   -1.883315    0.296175
     29          1           0       -3.870615   -1.905459   -1.390990
     30          1           0       -5.538739   -1.456566   -0.997077
     31          6           0       -2.160114    1.689577    0.032353
     32          6           0       -0.708822    1.837845    0.490337
     33          6           0       -0.272780    3.298494    0.609352
     34          1           0       -2.284134    2.190435   -0.937779
     35          1           0       -2.816742    2.213199    0.740592
     36          1           0       -0.055589    1.313646   -0.218971
     37          1           0       -0.587249    1.335666    1.458662
     38          1           0       -0.900252    3.830191    1.331971
     39          1           0       -0.365571    3.808046   -0.355194
     40          1           0        0.767872    3.381297    0.938060
 ---------------------------------------------------------------------

 SCF Done:  E(RHF) =  -470.732248964     A.U. after   11 cycles
 E2 =    -0.1585521186D+01 EUMP2 =    -0.47231777014998D+03

 The electronic state is 1-A.
 Alpha  occ. eigenvalues --  -11.21699 -11.21653 -11.21586 -11.21484 -11.21478
 Alpha  occ. eigenvalues --  -11.21423 -11.21352 -11.21291 -11.21165 -11.21096
 Alpha  occ. eigenvalues --  -11.21060 -11.20879  -1.08546  -1.08349  -1.03608
 Alpha  occ. eigenvalues --   -1.03460  -0.96065  -0.95899  -0.87089  -0.86909
 Alpha  occ. eigenvalues --   -0.79706  -0.79508  -0.78376  -0.78181  -0.65236
 Alpha  occ. eigenvalues --   -0.64935  -0.61019  -0.60861  -0.59436  -0.59282
 Alpha  occ. eigenvalues --   -0.57689  -0.57522  -0.55360  -0.55182  -0.52743
 Alpha  occ. eigenvalues --   -0.52603  -0.52512  -0.52316  -0.50009  -0.49869
 Alpha  occ. eigenvalues --   -0.47963  -0.47896  -0.46821  -0.46578  -0.46094
 Alpha  occ. eigenvalues --   -0.45932  -0.45485  -0.45212  -0.43860  -0.43716
 Alpha virt. eigenvalues --    0.19899   0.22289   0.23761   0.23920   0.24866
 Alpha virt. eigenvalues --    0.25833   0.27284   0.27877   0.28365   0.29606
 Alpha virt. eigenvalues --    0.30856   0.31364   0.31723   0.31933   0.32424

 Mulliken charges:
               1
     1  C   -0.300222
     2  C   -0.302724
     3  C   -0.481215
     4  H    0.150306
     5  H    0.149512
     6  H    0.155650
     7  H    0.151209
     8  H    0.153653
     9  H    0.163094
    10  H    0.158434
    11  C   -0.300272
    12  C   -0.299614
    13  C   -0.475550
    14  H    0.151500
    15  H    0.149708
    16  H    0.151179
    17  H    0.151944
    18  H    0.155211
    19  H    0.154957
    20  H    0.160165
    21  C   -0.303350
    22  C   -0.299388
    23  C   -0.476559
    24  H    0.151887
    25  H    0.152724
    26  H    0.151879
    27  H    0.152128
    28  H    0.156073
    29  H    0.155589
    30  H    0.160548
    31  C   -0.297683
    32  C   -0.307150
    33  C   -0.475759
    34  H    0.149562
    35  H    0.150002
    36  H    0.157361
    37  H    0.153944
    38  H    0.155685
    39  H    0.155509
    40  H    0.160073
 Sum of Mulliken charges =  -0.00000

 Dipole moment (field-independent basis, Debye):
    X=             -0.0670    Y=              0.0434    Z=              0.0018  Tot=              0.0799
 Quadrupole moment (field-independent basis, Debye-Ang):
   XX=            -85.2486   YY=            -85.7081   ZZ=            -83.8695
   XY=             -1.5151   XZ=             -0.4657   YZ=             -0.2177

 Normal termination of Gaussian 16 at Thu May  6 00:49:16 2021.
