 Gaussian 16, Revision A.03,
 Gaussian 16:  EM64L-G16RevA.03 25-Dec-2016

 -------------
 #p 6-31g* mp2
 -------------

 ------------------------------------------------------
 Input file generated by CHIRIPA (05-May-2021 14:57:23)
 ------------------------------------------------------
 Symbolic Z-matrix:
 Charge =  0 Multiplicity = 1

                         Standard orientation:
 ---------------------------------------------------------------------
 Center     Atomic      Atomic             Coordinates (Angstroms)
 Number     Number       Type             X           Y           Z
 ---------------------------------------------------------------------
      1          6           0       -3.695283    2.027896   -0.269804
      2          6           0       -2.620275    1.812285    0.598752
      3          6           0       -2.159313    0.516547    0.849997
      4          6           0       -2.799561   -0.545241    0.212832
      5          6           0       -3.872941   -0.362773   -0.657715
      6          6           0       -4.317089    0.941594   -0.894165
      7          1           0       -4.046838    3.037808   -0.459231
      8          1           0       -2.135455    2.654024    1.085036
      9          1           0       -1.329127    0.321084    1.517832
     10          1           0       -4.336033   -1.221859   -1.127751
     11          1           0       -5.152169    1.106048   -1.569177
     12          7           0       -2.320462   -1.921549    0.470982
     13          8           0       -2.901575   -2.840100   -0.102784
     14          8           0       -1.372902   -2.055686    1.242198
     15          6           0        1.401372    2.360725   -0.056736
     16          6           0        2.693411    2.400731    0.477636
     17          6           0        3.520621    1.275125    0.420328
     18          6           0        3.021328    0.120966   -0.181263
     19          6           0        1.738695    0.049855   -0.722638
     20          6           0        0.928970    1.187484   -0.654115
     21          1           0        0.765567    3.239793   -0.007862
     22          1           0        3.062933    3.310520    0.942161
     23          1           0        4.524986    1.278522    0.826109
     24          1           0        1.398238   -0.871462   -1.179454
     25          1           0       -0.074014    1.153524   -1.069945
     26          7           0        3.887802   -1.077027   -0.247869
     27          8           0        3.424370   -2.081690   -0.783144
     28          8           0        5.013970   -0.988665    0.236460
 ---------------------------------------------------------------------

 SCF Done:  E(RHF) =  -868.335942647     A.U. after   16 cycles
 E2 =    -0.2602644951D+01 EUMP2 =    -0.87093858759795D+03

 The electronic state is 1-A.
 Alpha  occ. eigenvalues --  -20.61312 -20.61303 -20.60544 -20.60512 -15.86371
 Alpha  occ. eigenvalues --  -15.85588 -11.31948 -11.31139 -11.28554 -11.28544
 Alpha  occ. eigenvalues --  -11.28363 -11.27742 -11.27670 -11.27641 -11.27612
 Alpha  occ. eigenvalues --  -11.27549 -11.26854 -11.26727  -1.60387  -1.59600
 Alpha  occ. eigenvalues --   -1.39931  -1.39148  -1.20187  -1.19343  -1.09522
 Alpha  occ. eigenvalues --   -1.08733  -1.05615  -1.04756  -0.96309  -0.95526
 Alpha  occ. eigenvalues --   -0.86977  -0.86165  -0.83126  -0.82346  -0.78143
 Alpha  occ. eigenvalues --   -0.77335  -0.72569  -0.71808  -0.71739  -0.71240
 Alpha  occ. eigenvalues --   -0.70921  -0.70505  -0.65808  -0.65578  -0.64996
 Alpha  occ. eigenvalues --   -0.64798  -0.62915  -0.62102  -0.56073  -0.55362
 Alpha  occ. eigenvalues --   -0.54075  -0.53669  -0.53063  -0.52714  -0.49349
 Alpha  occ. eigenvalues --   -0.49317  -0.48584  -0.48546  -0.45283  -0.44511
 Alpha  occ. eigenvalues --   -0.38207  -0.37669  -0.37083  -0.36161
 Alpha virt. eigenvalues --    0.04365   0.05167   0.10234   0.11381   0.15804
 Alpha virt. eigenvalues --    0.16596   0.20085   0.21591   0.25647   0.27273
 Alpha virt. eigenvalues --    0.27618   0.28334   0.30207   0.31450   0.32469

 Mulliken charges:
               1
     1  C   -0.171297
     2  C   -0.226450
     3  C   -0.175390
     4  C    0.155512
     5  C   -0.170288
     6  C   -0.219271
     7  H    0.227296
     8  H    0.221492
     9  H    0.281710
    10  H    0.279063
    11  H    0.226588
    12  N    0.487014
    13  O   -0.457070
    14  O   -0.456300
    15  C   -0.177889
    16  C   -0.217930
    17  C   -0.170965
    18  C    0.159587
    19  C   -0.166975
    20  C   -0.224855
    21  H    0.217516
    22  H    0.221979
    23  H    0.276133
    24  H    0.280979
    25  H    0.228437
    26  N    0.488073
    27  O   -0.455126
    28  O   -0.461571
 Sum of Mulliken charges =  -0.00000

 Dipole moment (field-independent basis, Debye):
    X=             -4.8288    Y=              8.7391    Z=             -0.6868  Tot=             10.0080
 Quadrupole moment (field-independent basis, Debye-Ang):
   XX=           -108.6480   YY=           -108.4891   ZZ=           -103.3918
   XY=              3.0572   XZ=              7.9751   YZ=              3.4194

 Normal termination of Gaussian 16 at Fri May  7 09:28:05 2021.
