 Gaussian 16, Revision A.03,
 Gaussian 16:  EM64L-G16RevA.03 25-Dec-2016

 -------------
 #p 6-31g* mp2
 -------------

 ------------------------------------------------------
 Input file generated by CHIRIPA (05-May-2021 14:55:20)
 ------------------------------------------------------
 Symbolic Z-matrix:
 Charge =  0 Multiplicity = 1

                         Standard orientation:
 ---------------------------------------------------------------------
 Center     Atomic      Atomic             Coordinates (Angstroms)
 Number     Number       Type             X           Y           Z
 ---------------------------------------------------------------------
      1          6           0       -4.336872   -2.269281    0.218100
      2          6           0       -5.041848   -1.230434    0.834807
      3          6           0       -4.595631    0.090372    0.730364
      4          6           0       -3.435394    0.337492   -0.001805
      5          6           0       -2.711072   -0.675909   -0.627638
      6          6           0       -3.175781   -1.989196   -0.509871
      7          1           0       -4.690687   -3.292395    0.304409
      8          1           0       -5.943882   -1.444998    1.400794
      9          1           0       -5.122044    0.913696    1.197745
     10          1           0       -1.815206   -0.430898   -1.185143
     11          1           0       -2.626259   -2.793978   -0.989867
     12          7           0       -2.953215    1.731791   -0.119427
     13          8           0       -1.928237    1.923229   -0.770126
     14          8           0       -3.609392    2.606804    0.441306
     15          6           0        5.079732   -0.076012    0.469824
     16          6           0        6.452347   -0.128344   -0.201872
     17          6           0        7.603987   -0.003376    0.796077
     18          1           0        4.985614    0.867777    1.024212
     19          1           0        5.011712   -0.882926    1.212561
     20          1           0        6.517245    0.677573   -0.944100
     21          1           0        6.543136   -1.072035   -0.754883
     22          1           0        7.567381   -0.814785    1.530160
     23          1           0        7.541344    0.944764    1.339867
     24          1           0        8.575947   -0.043236    0.294515
     25          6           0        3.918316   -0.199687   -0.514829
     26          6           0        2.545702   -0.147356    0.156867
     27          6           0        1.394062   -0.272323   -0.841082
     28          1           0        3.986337    0.607227   -1.257567
     29          1           0        4.012435   -1.143478   -1.069218
     30          1           0        2.454913    0.796335    0.709877
     31          1           0        2.480803   -0.953272    0.899094
     32          1           0        1.456705   -1.220464   -1.384872
     33          1           0        1.430667    0.539084   -1.575165
     34          1           0        0.422101   -0.232464   -0.339521
 ---------------------------------------------------------------------

 SCF Done:  E(RHF) =  -669.535556240     A.U. after   15 cycles
 E2 =    -0.2091285558D+01 EUMP2 =    -0.67162684179744D+03

 The electronic state is 1-A.
 Alpha  occ. eigenvalues --  -20.60782 -20.60776 -15.85826 -11.31182 -11.27756
 Alpha  occ. eigenvalues --  -11.27708 -11.27499 -11.26775 -11.26758 -11.21470
 Alpha  occ. eigenvalues --  -11.21417 -11.21247 -11.21186 -11.20953 -11.20922
 Alpha  occ. eigenvalues --   -1.59853  -1.39406  -1.19357  -1.08756  -1.08272
 Alpha  occ. eigenvalues --   -1.04758  -1.03379  -0.95848  -0.95584  -0.86874
 Alpha  occ. eigenvalues --   -0.86152  -0.82419  -0.79454  -0.78085  -0.77465
 Alpha  occ. eigenvalues --   -0.72045  -0.71174  -0.70471  -0.65010  -0.64896
 Alpha  occ. eigenvalues --   -0.64771  -0.62139  -0.60766  -0.59197  -0.57447
 Alpha  occ. eigenvalues --   -0.55267  -0.55115  -0.53113  -0.52969  -0.52397
 Alpha  occ. eigenvalues --   -0.52248  -0.49774  -0.48806  -0.48797  -0.47763
 Alpha  occ. eigenvalues --   -0.46465  -0.45629  -0.45545  -0.44812  -0.43626
 Alpha  occ. eigenvalues --   -0.37342  -0.36353
 Alpha virt. eigenvalues --    0.05026   0.11210   0.16554   0.21214   0.23053
 Alpha virt. eigenvalues --    0.24430   0.26520   0.26821   0.27675   0.27845
 Alpha virt. eigenvalues --    0.28987   0.30515   0.31581   0.31616   0.31962

 Mulliken charges:
               1
     1  C   -0.170663
     2  C   -0.218526
     3  C   -0.170775
     4  C    0.157209
     5  C   -0.175175
     6  C   -0.220256
     7  H    0.225549
     8  H    0.223416
     9  H    0.275512
    10  H    0.283959
    11  H    0.223968
    12  N    0.488001
    13  O   -0.460777
    14  O   -0.460246
    15  C   -0.298341
    16  C   -0.299560
    17  C   -0.475660
    18  H    0.151244
    19  H    0.148276
    20  H    0.152715
    21  H    0.150867
    22  H    0.154476
    23  H    0.155844
    24  H    0.159888
    25  C   -0.298752
    26  C   -0.299870
    27  C   -0.480012
    28  H    0.151655
    29  H    0.147261
    30  H    0.157842
    31  H    0.148717
    32  H    0.146374
    33  H    0.165052
    34  H    0.160789
 Sum of Mulliken charges =  -0.00000

 Dipole moment (field-independent basis, Debye):
    X=             -1.7128    Y=             -4.8150    Z=              0.4138  Tot=              5.1273
 Quadrupole moment (field-independent basis, Debye-Ang):
   XX=            -81.3736   YY=            -97.1660   ZZ=            -94.2201
   XY=             15.3659   XZ=             -4.5167   YZ=              0.9250

 Normal termination of Gaussian 16 at Thu May  6 07:43:33 2021.
