 Gaussian 16, Revision A.03,
 Gaussian 16:  EM64L-G16RevA.03 25-Dec-2016

 -------------
 #p 6-31g* mp2
 -------------

 ------------------------------------------------------
 Input file generated by CHIRIPA (05-May-2021 14:57:25)
 ------------------------------------------------------
 Symbolic Z-matrix:
 Charge =  0 Multiplicity = 1

                         Standard orientation:
 ---------------------------------------------------------------------
 Center     Atomic      Atomic             Coordinates (Angstroms)
 Number     Number       Type             X           Y           Z
 ---------------------------------------------------------------------
      1          6           0       -2.520755   -2.094347   -0.723017
      2          6           0       -3.154626   -1.560534    0.403825
      3          6           0       -3.049839   -0.197939    0.698616
      4          6           0       -2.299827    0.605505   -0.158852
      5          6           0       -1.656646    0.103418   -1.289125
      6          6           0       -1.775103   -1.262134   -1.564412
      7          1           0       -2.607465   -3.153992   -0.944442
      8          1           0       -3.734365   -2.204463    1.059037
      9          1           0       -3.530290    0.241584    1.564297
     10          1           0       -1.085653    0.770375   -1.923595
     11          1           0       -1.281754   -1.673948   -2.440233
     12          7           0       -2.181659    2.049589    0.142905
     13          8           0       -1.515055    2.736269   -0.628293
     14          8           0       -2.757879    2.467438    1.144908
     15          6           0        1.005824   -2.400222    0.921851
     16          6           0        1.382062   -2.244007   -0.416269
     17          6           0        2.109959   -1.121748   -0.822777
     18          6           0        2.446285   -0.170986    0.139629
     19          6           0        2.086069   -0.298186    1.480284
     20          6           0        1.358407   -1.428526    1.864195
     21          1           0        0.440468   -3.275159    1.228859
     22          1           0        1.109626   -2.997034   -1.150282
     23          1           0        2.414145   -0.975715   -1.852128
     24          1           0        2.372226    0.469391    2.189058
     25          1           0        1.067570   -1.547214    2.904085
     26          7           0        3.216752    1.021377   -0.278761
     27          8           0        3.500747    1.844713    0.588478
     28          8           0        3.522060    1.110039   -1.466011
 ---------------------------------------------------------------------

 SCF Done:  E(RHF) =  -868.335199166     A.U. after   16 cycles
 E2 =    -0.2604087390D+01 EUMP2 =    -0.87093928655636D+03

 The electronic state is 1-A.
 Alpha  occ. eigenvalues --  -20.60946 -20.60918 -20.60759 -20.60730 -15.85993
 Alpha  occ. eigenvalues --  -15.85811 -11.31542 -11.31362 -11.28130 -11.28080
 Alpha  occ. eigenvalues --  -11.27980 -11.27953 -11.27891 -11.27746 -11.27238
 Alpha  occ. eigenvalues --  -11.27218 -11.27094 -11.26980  -1.60008  -1.59815
 Alpha  occ. eigenvalues --   -1.39555  -1.39367  -1.19747  -1.19539  -1.09133
 Alpha  occ. eigenvalues --   -1.08906  -1.05197  -1.04970  -0.95921  -0.95716
 Alpha  occ. eigenvalues --   -0.86603  -0.86366  -0.82757  -0.82552  -0.77760
 Alpha  occ. eigenvalues --   -0.77564  -0.72206  -0.72028  -0.71338  -0.71136
 Alpha  occ. eigenvalues --   -0.70889  -0.70668  -0.65406  -0.65277  -0.65207
 Alpha  occ. eigenvalues --   -0.64973  -0.62555  -0.62311  -0.55727  -0.55503
 Alpha  occ. eigenvalues --   -0.54106  -0.53308  -0.53086  -0.52692  -0.48984
 Alpha  occ. eigenvalues --   -0.48950  -0.48801  -0.48769  -0.44919  -0.44732
 Alpha  occ. eigenvalues --   -0.38244  -0.37332  -0.37142  -0.35851
 Alpha virt. eigenvalues --    0.04587   0.05152   0.10247   0.11638   0.15912
 Alpha virt. eigenvalues --    0.16758   0.19818   0.21825   0.25638   0.27173
 Alpha virt. eigenvalues --    0.28170   0.28524   0.29851   0.30995   0.32118

 Mulliken charges:
               1
     1  C   -0.175431
     2  C   -0.219947
     3  C   -0.171690
     4  C    0.159930
     5  C   -0.168016
     6  C   -0.212618
     7  H    0.221048
     8  H    0.221918
     9  H    0.275838
    10  H    0.279230
    11  H    0.218573
    12  N    0.487394
    13  O   -0.455223
    14  O   -0.460764
    15  C   -0.165701
    16  C   -0.213498
    17  C   -0.175818
    18  C    0.160570
    19  C   -0.170356
    20  C   -0.218366
    21  H    0.220645
    22  H    0.214603
    23  H    0.272938
    24  H    0.279094
    25  H    0.224006
    26  N    0.489010
    27  O   -0.455669
    28  O   -0.461699
 Sum of Mulliken charges =  -0.00000

 Dipole moment (field-independent basis, Debye):
    X=             -3.0618    Y=             -8.9911    Z=              0.5041  Tot=              9.5115
 Quadrupole moment (field-independent basis, Debye-Ang):
   XX=           -116.0791   YY=           -110.5092   ZZ=            -96.6469
   XY=              2.0859   XZ=              3.2643   YZ=              0.3983

 Normal termination of Gaussian 16 at Thu May  6 21:18:54 2021.
