 Gaussian 16, Revision A.03,
 Gaussian 16:  EM64L-G16RevA.03 25-Dec-2016

 -------------
 #p 6-31g* mp2
 -------------

 ------------------------------------------------------
 Input file generated by CHIRIPA (05-May-2021 14:53:12)
 ------------------------------------------------------
 Symbolic Z-matrix:
 Charge =  0 Multiplicity = 1

                         Standard orientation:
 ---------------------------------------------------------------------
 Center     Atomic      Atomic             Coordinates (Angstroms)
 Number     Number       Type             X           Y           Z
 ---------------------------------------------------------------------
      1          6           0        2.939223    0.206296    0.433611
      2          6           0        3.579319   -1.118522    0.017535
      3          6           0        4.073424   -1.936848    1.210849
      4          1           0        3.668831    0.794717    1.006654
      5          1           0        2.099618    0.002581    1.112550
      6          1           0        4.416602   -0.912442   -0.661512
      7          1           0        2.848165   -1.703775   -0.554748
      8          1           0        3.244704   -2.171450    1.886709
      9          1           0        4.822052   -1.375621    1.779338
     10          1           0        4.527395   -2.879832    0.890612
     11          6           0        2.440325    1.035656   -0.748333
     12          6           0        1.800229    2.360474   -0.332258
     13          6           0        1.306124    3.178800   -1.525572
     14          1           0        3.279930    1.239371   -1.427272
     15          1           0        1.710717    0.447235   -1.321376
     16          1           0        2.531383    2.945727    0.240025
     17          1           0        0.962946    2.154394    0.346789
     18          1           0        0.557496    2.617573   -2.094061
     19          1           0        2.134844    3.413402   -2.201432
     20          1           0        0.852153    4.121784   -1.205335
     21          6           0       -3.004756    1.553294    1.303888
     22          6           0       -3.770124    0.917073    0.321058
     23          6           0       -3.279649   -0.213092   -0.339781
     24          6           0       -2.014051   -0.682206    0.008769
     25          6           0       -1.227515   -0.070330    0.983582
     26          6           0       -1.738127    1.058435    1.631436
     27          1           0       -3.393590    2.430689    1.812201
     28          1           0       -4.754140    1.299175    0.064627
     29          1           0       -3.851012   -0.725050   -1.104542
     30          1           0       -0.250132   -0.474547    1.217563
     31          1           0       -1.141514    1.550496    2.394307
     32          7           0       -1.484148   -1.877919   -0.683959
     33          8           0       -0.366175   -2.271522   -0.358616
     34          8           0       -2.196818   -2.398875   -1.539146
 ---------------------------------------------------------------------

 SCF Done:  E(RHF) =  -669.535741854     A.U. after   15 cycles
 E2 =    -0.2093730251D+01 EUMP2 =    -0.67162947210515D+03

 The electronic state is 1-A.
 Alpha  occ. eigenvalues --  -20.60949 -20.60941 -15.85985 -11.31303 -11.27872
 Alpha  occ. eigenvalues --  -11.27861 -11.27602 -11.26876 -11.26866 -11.21682
 Alpha  occ. eigenvalues --  -11.21339 -11.21235 -11.21154 -11.21054 -11.20631
 Alpha  occ. eigenvalues --   -1.60009  -1.39565  -1.19480  -1.08878  -1.08291
 Alpha  occ. eigenvalues --   -1.04878  -1.03336  -0.95818  -0.95717  -0.86834
 Alpha  occ. eigenvalues --   -0.86273  -0.82557  -0.79424  -0.78116  -0.77600
 Alpha  occ. eigenvalues --   -0.72206  -0.71327  -0.70592  -0.65134  -0.65078
 Alpha  occ. eigenvalues --   -0.64751  -0.62197  -0.60725  -0.59203  -0.57419
 Alpha  occ. eigenvalues --   -0.55401  -0.55078  -0.53207  -0.52966  -0.52499
 Alpha  occ. eigenvalues --   -0.52232  -0.49763  -0.48963  -0.48959  -0.47740
 Alpha  occ. eigenvalues --   -0.46444  -0.45667  -0.45544  -0.44919  -0.43619
 Alpha  occ. eigenvalues --   -0.37451  -0.36429
 Alpha virt. eigenvalues --    0.04868   0.11122   0.16252   0.19921   0.23083
 Alpha virt. eigenvalues --    0.24189   0.25403   0.27156   0.27838   0.28163
 Alpha virt. eigenvalues --    0.29800   0.30664   0.31642   0.31934   0.32038

 Mulliken charges:
               1
     1  C   -0.296622
     2  C   -0.305269
     3  C   -0.475006
     4  H    0.147795
     5  H    0.137676
     6  H    0.149736
     7  H    0.172482
     8  H    0.154858
     9  H    0.150610
    10  H    0.162297
    11  C   -0.301292
    12  C   -0.302073
    13  C   -0.474733
    14  H    0.151082
    15  H    0.156836
    16  H    0.150184
    17  H    0.145699
    18  H    0.156857
    19  H    0.156628
    20  H    0.156815
    21  C   -0.170786
    22  C   -0.218730
    23  C   -0.170172
    24  C    0.156591
    25  C   -0.175026
    26  C   -0.221039
    27  H    0.226426
    28  H    0.224048
    29  H    0.275972
    30  H    0.286282
    31  H    0.224972
    32  N    0.488310
    33  O   -0.462530
    34  O   -0.458878
 Sum of Mulliken charges =  -0.00000

 Dipole moment (field-independent basis, Debye):
    X=             -1.9667    Y=              4.0553    Z=              2.3097  Tot=              5.0644
 Quadrupole moment (field-independent basis, Debye-Ang):
   XX=            -83.1635   YY=           -101.5719   ZZ=            -94.3803
   XY=             -6.7463   XZ=             -3.1703   YZ=             -0.7927

 Normal termination of Gaussian 16 at Thu May  6 18:41:33 2021.
