 Gaussian 16, Revision A.03,
 Gaussian 16:  EM64L-G16RevA.03 25-Dec-2016

 -------------
 #p 6-31g* mp2
 -------------

 ------------------------------------------------------
 Input file generated by CHIRIPA (05-May-2021 14:55:24)
 ------------------------------------------------------
 Symbolic Z-matrix:
 Charge =  0 Multiplicity = 1

                         Standard orientation:
 ---------------------------------------------------------------------
 Center     Atomic      Atomic             Coordinates (Angstroms)
 Number     Number       Type             X           Y           Z
 ---------------------------------------------------------------------
      1          6           0        0.630719   -1.283494    0.445115
      2          6           0        1.221451   -1.374036   -0.819543
      3          6           0        2.520834   -0.903716   -1.031561
      4          6           0        3.203711   -0.346184    0.048313
      5          6           0        2.642403   -0.241894    1.320062
      6          6           0        1.341827   -0.718708    1.509005
      7          1           0       -0.379136   -1.651373    0.600853
      8          1           0        0.671565   -1.812178   -1.647615
      9          1           0        3.002204   -0.961386   -2.000258
     10          1           0        3.215522    0.199913    2.126138
     11          1           0        0.885578   -0.647090    2.492241
     12          7           0        4.579941    0.155160   -0.163927
     13          8           0        5.160480    0.642085    0.803810
     14          8           0        5.052032    0.051695   -1.293999
     15          6           0       -4.143487   -0.119254   -0.268164
     16          6           0       -5.573003   -0.228379    0.263399
     17          6           0       -6.225972   -1.570685   -0.067722
     18          1           0       -4.151715   -0.265960   -1.356904
     19          1           0       -3.539940   -0.935369    0.152647
     20          1           0       -6.173332    0.588513   -0.157206
     21          1           0       -5.561394   -0.081205    1.350974
     22          1           0       -5.651501   -2.395830    0.365544
     23          1           0       -6.266916   -1.722305   -1.151206
     24          1           0       -7.247298   -1.627190    0.321584
     25          6           0       -3.477357    1.217012    0.054935
     26          6           0       -2.047841    1.326137   -0.476627
     27          6           0       -1.394871    2.668443   -0.145506
     28          1           0       -4.080904    2.033127   -0.365875
     29          1           0       -3.469128    1.363718    1.143676
     30          1           0       -2.059450    1.178964   -1.564203
     31          1           0       -1.447512    0.509245   -0.056022
     32          1           0       -1.353927    2.820064    0.937977
     33          1           0       -1.969342    3.493587   -0.578773
     34          1           0       -0.373546    2.724948   -0.534814
 ---------------------------------------------------------------------

 SCF Done:  E(RHF) =  -669.534862306     A.U. after   15 cycles
 E2 =    -0.2092566644D+01 EUMP2 =    -0.67162742895057D+03

 The electronic state is 1-A.
 Alpha  occ. eigenvalues --  -20.60788 -20.60783 -15.85842 -11.31221 -11.27799
 Alpha  occ. eigenvalues --  -11.27792 -11.27543 -11.26821 -11.26802 -11.22252
 Alpha  occ. eigenvalues --  -11.22171 -11.22150 -11.22004 -11.21673 -11.21490
 Alpha  occ. eigenvalues --   -1.59863  -1.39416  -1.19407  -1.09103  -1.08801
 Alpha  occ. eigenvalues --   -1.04805  -1.04118  -0.96563  -0.95637  -0.87576
 Alpha  occ. eigenvalues --   -0.86204  -0.82466  -0.80196  -0.78935  -0.77497
 Alpha  occ. eigenvalues --   -0.72061  -0.71187  -0.70546  -0.65741  -0.65058
 Alpha  occ. eigenvalues --   -0.64803  -0.62149  -0.61534  -0.59934  -0.58181
 Alpha  occ. eigenvalues --   -0.55867  -0.55338  -0.53267  -0.53100  -0.52982
 Alpha  occ. eigenvalues --   -0.52897  -0.50510  -0.48821  -0.48814  -0.48501
 Alpha  occ. eigenvalues --   -0.47241  -0.46458  -0.46402  -0.44819  -0.44391
 Alpha  occ. eigenvalues --   -0.37298  -0.36409
 Alpha virt. eigenvalues --    0.04996   0.11226   0.16380   0.19933   0.22659
 Alpha virt. eigenvalues --    0.23838   0.24954   0.26344   0.27346   0.27355
 Alpha virt. eigenvalues --    0.29657   0.30824   0.31168   0.31452   0.31779

 Mulliken charges:
               1
     1  C   -0.170485
     2  C   -0.217666
     3  C   -0.171165
     4  C    0.158474
     5  C   -0.170476
     6  C   -0.219219
     7  H    0.227293
     8  H    0.224459
     9  H    0.275815
    10  H    0.275843
    11  H    0.223623
    12  N    0.488058
    13  O   -0.460303
    14  O   -0.460340
    15  C   -0.297149
    16  C   -0.299880
    17  C   -0.475891
    18  H    0.150794
    19  H    0.139686
    20  H    0.154735
    21  H    0.152355
    22  H    0.153252
    23  H    0.155983
    24  H    0.162638
    25  C   -0.298308
    26  C   -0.304481
    27  C   -0.475113
    28  H    0.152562
    29  H    0.148729
    30  H    0.151178
    31  H    0.149966
    32  H    0.153720
    33  H    0.156797
    34  H    0.164517
 Sum of Mulliken charges =  -0.00000

 Dipole moment (field-independent basis, Debye):
    X=             -4.8824    Y=             -1.7115    Z=              0.7199  Tot=              5.2236
 Quadrupole moment (field-independent basis, Debye-Ang):
   XX=           -126.4105   YY=            -94.5060   ZZ=            -89.3392
   XY=             -4.7463   XZ=              2.7338   YZ=              0.6542

 Normal termination of Gaussian 16 at Thu May  6 12:41:49 2021.
