 Gaussian 16, Revision A.03,
 Gaussian 16:  EM64L-G16RevA.03 25-Dec-2016

 -------------
 #p 6-31g* mp2
 -------------

 ------------------------------------------------------
 Input file generated by CHIRIPA (05-May-2021 14:57:22)
 ------------------------------------------------------
 Symbolic Z-matrix:
 Charge =  0 Multiplicity = 1

                         Standard orientation:
 ---------------------------------------------------------------------
 Center     Atomic      Atomic             Coordinates (Angstroms)
 Number     Number       Type             X           Y           Z
 ---------------------------------------------------------------------
      1          6           0        3.902443    2.475421    0.382940
      2          6           0        2.765541    1.768744   -0.022747
      3          6           0        2.833095    0.393375   -0.264293
      4          6           0        4.059225   -0.246431   -0.089529
      5          6           0        5.209542    0.429931    0.313701
      6          6           0        5.118671    1.804941    0.549575
      7          1           0        3.840909    3.543702    0.568376
      8          1           0        1.819673    2.286839   -0.152966
      9          1           0        1.968467   -0.178168   -0.579215
     10          1           0        6.138424   -0.114023    0.434991
     11          1           0        6.003231    2.351192    0.864548
     12          7           0        4.143084   -1.702283   -0.342241
     13          8           0        5.235131   -2.242743   -0.181081
     14          8           0        3.115177   -2.275353   -0.696691
     15          6           0       -1.531007    0.182017    0.161555
     16          6           0       -2.214691   -0.658974    1.045767
     17          6           0       -3.607742   -0.764083    0.991855
     18          6           0       -4.288487   -0.010480    0.036889
     19          6           0       -3.635834    0.836206   -0.857794
     20          6           0       -2.242507    0.925612   -0.785734
     21          1           0       -0.448744    0.257569    0.210484
     22          1           0       -1.664733   -1.237639    1.782476
     23          1           0       -4.162191   -1.407398    1.664276
     24          1           0       -4.211483    1.400631   -1.581307
     25          1           0       -1.714186    1.579549   -1.473694
     26          7           0       -5.763394   -0.113442   -0.029792
     27          8           0       -6.339976    0.560966   -0.880300
     28          8           0       -6.314917   -0.866601    0.769715
 ---------------------------------------------------------------------

 SCF Done:  E(RHF) =  -868.336738063     A.U. after   16 cycles
 E2 =    -0.2599884508D+01 EUMP2 =    -0.87093662257155D+03

 The electronic state is 1-A.
 Alpha  occ. eigenvalues --  -20.61546 -20.61529 -20.60947 -20.60940 -15.86599
 Alpha  occ. eigenvalues --  -15.86002 -11.32087 -11.31455 -11.28773 -11.28598
 Alpha  occ. eigenvalues --  -11.28375 -11.28043 -11.27988 -11.27901 -11.27779
 Alpha  occ. eigenvalues --  -11.27615 -11.27155 -11.27042  -1.60613  -1.60019
 Alpha  occ. eigenvalues --   -1.40164  -1.39570  -1.20261  -1.19641  -1.09616
 Alpha  occ. eigenvalues --   -1.09045  -1.05702  -1.05049  -0.96441  -0.95863
 Alpha  occ. eigenvalues --   -0.87077  -0.86458  -0.83289  -0.82683  -0.78330
 Alpha  occ. eigenvalues --   -0.77694  -0.72812  -0.72220  -0.71939  -0.71400
 Alpha  occ. eigenvalues --   -0.71341  -0.70789  -0.65915  -0.65702  -0.65306
 Alpha  occ. eigenvalues --   -0.65068  -0.63064  -0.62388  -0.56174  -0.55616
 Alpha  occ. eigenvalues --   -0.53986  -0.53792  -0.53373  -0.53152  -0.49580
 Alpha  occ. eigenvalues --   -0.49561  -0.48987  -0.48968  -0.45544  -0.44955
 Alpha  occ. eigenvalues --   -0.38206  -0.37656  -0.37303  -0.36635
 Alpha virt. eigenvalues --    0.04212   0.04820   0.10353   0.11006   0.15638
 Alpha virt. eigenvalues --    0.16245   0.17922   0.22042   0.24839   0.26374
 Alpha virt. eigenvalues --    0.27504   0.29591   0.30275   0.30753   0.32634

 Mulliken charges:
               1
     1  C   -0.170147
     2  C   -0.218388
     3  C   -0.178574
     4  C    0.161281
     5  C   -0.169663
     6  C   -0.217836
     7  H    0.228670
     8  H    0.218500
     9  H    0.271501
    10  H    0.278547
    11  H    0.227063
    12  N    0.488047
    13  O   -0.456805
    14  O   -0.461264
    15  C   -0.173493
    16  C   -0.218146
    17  C   -0.170129
    18  C    0.159238
    19  C   -0.170208
    20  C   -0.219104
    21  H    0.220698
    22  H    0.228044
    23  H    0.277547
    24  H    0.276311
    25  H    0.219209
    26  N    0.487932
    27  O   -0.459959
    28  O   -0.458872
 Sum of Mulliken charges =  -0.00000

 Dipole moment (field-independent basis, Debye):
    X=              5.0528    Y=              5.4491    Z=              1.2147  Tot=              7.5298
 Quadrupole moment (field-independent basis, Debye-Ang):
   XX=           -145.5080   YY=           -106.0417   ZZ=           -102.9489
   XY=             19.8972   XZ=              4.2863   YZ=             -3.5297

 Normal termination of Gaussian 16 at Fri May  7 06:21:57 2021.
