 Gaussian 16, Revision A.03,
 Gaussian 16:  EM64L-G16RevA.03 25-Dec-2016

 -------------
 #p 6-31g* mp2
 -------------

 ------------------------------------------------------
 Input file generated by CHIRIPA (05-May-2021 14:51:11)
 ------------------------------------------------------
 Symbolic Z-matrix:
 Charge =  0 Multiplicity = 1

                         Standard orientation:
 ---------------------------------------------------------------------
 Center     Atomic      Atomic             Coordinates (Angstroms)
 Number     Number       Type             X           Y           Z
 ---------------------------------------------------------------------
      1          6           0        2.091187    1.214983    0.454332
      2          6           0        1.876674    2.669904    0.035793
      3          6           0        1.098911    3.475906    1.076580
      4          1           0        1.114900    0.743149    0.630910
      5          1           0        2.627523    1.191815    1.413082
      6          1           0        1.342122    2.690303   -0.922567
      7          1           0        2.853579    3.138275   -0.139996
      8          1           0        1.631385    3.485330    2.033128
      9          1           0        0.111339    3.034812    1.246110
     10          1           0        0.956938    4.513034    0.757097
     11          6           0        2.867221    0.396359   -0.575889
     12          6           0        3.081734   -1.058562   -0.157350
     13          6           0        3.859497   -1.864564   -1.198137
     14          1           0        2.330885    0.419527   -1.534639
     15          1           0        3.843508    0.868193   -0.752467
     16          1           0        2.104829   -1.526933    0.018439
     17          1           0        3.616286   -1.078961    0.801010
     18          1           0        4.847069   -1.423471   -1.367668
     19          1           0        3.327024   -1.873988   -2.154685
     20          1           0        4.001470   -2.901692   -0.878654
     21          6           0       -2.903697   -0.184546    0.192847
     22          6           0       -3.573024    0.371071   -1.064641
     23          6           0       -4.418792    1.613594   -0.784269
     24          1           0       -3.676295   -0.425160    0.935909
     25          1           0       -2.272845    0.596411    0.639531
     26          1           0       -4.201344   -0.411139   -1.509588
     27          1           0       -2.798756    0.610211   -1.804868
     28          1           0       -3.801181    2.412677   -0.361629
     29          1           0       -5.211738    1.385523   -0.064672
     30          1           0       -4.888030    1.994141   -1.696881
     31          6           0       -2.054711   -1.426795   -0.071290
     32          6           0       -1.385384   -1.982413    1.186198
     33          6           0       -0.539617   -3.224936    0.905826
     34          1           0       -2.685564   -2.207753   -0.517973
     35          1           0       -1.282113   -1.186181   -0.814353
     36          1           0       -2.159652   -2.221553    1.926425
     37          1           0       -0.757064   -1.200203    1.631145
     38          1           0        0.253330   -2.996865    0.186229
     39          1           0       -1.157227   -4.024019    0.483187
     40          1           0       -0.070378   -3.605482    1.818438
 ---------------------------------------------------------------------

 SCF Done:  E(RHF) =  -470.733312269     A.U. after   11 cycles
 E2 =    -0.1583812835D+01 EUMP2 =    -0.47231712510329D+03

 The electronic state is 1-A.
 Alpha  occ. eigenvalues --  -11.21659 -11.21649 -11.21646 -11.21608 -11.21469
 Alpha  occ. eigenvalues --  -11.21461 -11.21410 -11.21398 -11.21132 -11.21102
 Alpha  occ. eigenvalues --  -11.21093 -11.21091  -1.08507  -1.08460  -1.03596
 Alpha  occ. eigenvalues --   -1.03552  -0.96037  -0.96010  -0.87060  -0.87018
 Alpha  occ. eigenvalues --   -0.79684  -0.79589  -0.78307  -0.78288  -0.65329
 Alpha  occ. eigenvalues --   -0.64921  -0.61145  -0.60822  -0.59395  -0.59382
 Alpha  occ. eigenvalues --   -0.57671  -0.57597  -0.55402  -0.55235  -0.52716
 Alpha  occ. eigenvalues --   -0.52707  -0.52455  -0.52441  -0.50109  -0.49851
 Alpha  occ. eigenvalues --   -0.48032  -0.47893  -0.46821  -0.46501  -0.46035
 Alpha  occ. eigenvalues --   -0.45791  -0.45740  -0.45543  -0.43832  -0.43826
 Alpha virt. eigenvalues --    0.18780   0.22208   0.23900   0.24430   0.25725
 Alpha virt. eigenvalues --    0.26774   0.27068   0.27389   0.28241   0.29692
 Alpha virt. eigenvalues --    0.31141   0.31559   0.31661   0.31801   0.32092

 Mulliken charges:
               1
     1  C   -0.302473
     2  C   -0.299526
     3  C   -0.476141
     4  H    0.152500
     5  H    0.149954
     6  H    0.151782
     7  H    0.152415
     8  H    0.155582
     9  H    0.154694
    10  H    0.160646
    11  C   -0.297597
    12  C   -0.308174
    13  C   -0.475563
    14  H    0.148983
    15  H    0.150026
    16  H    0.159719
    17  H    0.152229
    18  H    0.155409
    19  H    0.154851
    20  H    0.160727
    21  C   -0.299309
    22  C   -0.299588
    23  C   -0.475794
    24  H    0.150207
    25  H    0.149380
    26  H    0.152175
    27  H    0.151704
    28  H    0.155342
    29  H    0.155345
    30  H    0.160432
    31  C   -0.298477
    32  C   -0.303229
    33  C   -0.480120
    34  H    0.150061
    35  H    0.148935
    36  H    0.152529
    37  H    0.154727
    38  H    0.159331
    39  H    0.155496
    40  H    0.160812
 Sum of Mulliken charges =  -0.00000

 Dipole moment (field-independent basis, Debye):
    X=              0.0008    Y=             -0.0111    Z=              0.0115  Tot=              0.0159
 Quadrupole moment (field-independent basis, Debye-Ang):
   XX=            -83.9360   YY=            -85.6233   ZZ=            -84.9786
   XY=              1.7254   XZ=              0.6701   YZ=             -0.5042

 Normal termination of Gaussian 16 at Wed May  5 21:29:14 2021.
