 Gaussian 16, Revision A.03,
 Gaussian 16:  EM64L-G16RevA.03 25-Dec-2016

 -------------
 #p 6-31g* mp2
 -------------

 ------------------------------------------------------
 Input file generated by CHIRIPA (05-May-2021 14:53:17)
 ------------------------------------------------------
 Symbolic Z-matrix:
 Charge =  0 Multiplicity = 1

                         Standard orientation:
 ---------------------------------------------------------------------
 Center     Atomic      Atomic             Coordinates (Angstroms)
 Number     Number       Type             X           Y           Z
 ---------------------------------------------------------------------
      1          6           0        3.170873    0.462693   -0.672446
      2          6           0        3.337046    1.971672   -0.855079
      3          6           0        2.175454    2.605937   -1.620720
      4          1           0        3.077682   -0.011572   -1.659022
      5          1           0        2.229421    0.266185   -0.140988
      6          1           0        4.278581    2.165348   -1.384813
      7          1           0        3.430045    2.442378    0.132039
      8          1           0        1.230654    2.441996   -1.092442
      9          1           0        2.084011    2.163392   -2.617913
     10          1           0        2.314724    3.684948   -1.739876
     11          6           0        4.324191   -0.185763    0.091158
     12          6           0        4.158019   -1.694741    0.273792
     13          6           0        5.319611   -2.329006    1.039432
     14          1           0        5.265644    0.010746   -0.440299
     15          1           0        4.417383    0.288503    1.077734
     16          1           0        4.065020   -2.165447   -0.713327
     17          1           0        3.216484   -1.888418    0.803526
     18          1           0        5.411054   -1.886462    2.036625
     19          1           0        6.264411   -2.165066    0.511155
     20          1           0        5.180341   -3.408018    1.158589
     21          6           0       -1.545819    1.436611    1.665744
     22          6           0       -0.930203    0.391843    0.968608
     23          6           0       -1.686017   -0.470206    0.168505
     24          6           0       -3.061361   -0.257521    0.087979
     25          6           0       -3.703854    0.774373    0.770392
     26          6           0       -2.928243    1.624212    1.564589
     27          1           0       -0.950995    2.101529    2.284989
     28          1           0        0.143220    0.243767    1.045292
     29          1           0       -1.235141   -1.287002   -0.381925
     30          1           0       -4.775844    0.896863    0.674206
     31          1           0       -3.409033    2.434757    2.104869
     32          7           0       -3.871987   -1.163669   -0.755928
     33          8           0       -5.082021   -0.955085   -0.810203
     34          8           0       -3.281971   -2.065336   -1.347128
 ---------------------------------------------------------------------

 SCF Done:  E(RHF) =  -669.535568747     A.U. after   15 cycles
 E2 =    -0.2091519037D+01 EUMP2 =    -0.67162708778338D+03

 The electronic state is 1-A.
 Alpha  occ. eigenvalues --  -20.60761 -20.60755 -15.85815 -11.31192 -11.27772
 Alpha  occ. eigenvalues --  -11.27766 -11.27527 -11.26785 -11.26774 -11.22302
 Alpha  occ. eigenvalues --  -11.22223 -11.22211 -11.22047 -11.21645 -11.21546
 Alpha  occ. eigenvalues --   -1.59836  -1.39389  -1.19373  -1.09136  -1.08765
 Alpha  occ. eigenvalues --   -1.04778  -1.04149  -0.96595  -0.95596  -0.87605
 Alpha  occ. eigenvalues --   -0.86178  -0.82430  -0.80214  -0.78968  -0.77469
 Alpha  occ. eigenvalues --   -0.72033  -0.71159  -0.70480  -0.65834  -0.65025
 Alpha  occ. eigenvalues --   -0.64756  -0.62141  -0.61532  -0.59959  -0.58204
 Alpha  occ. eigenvalues --   -0.55897  -0.55280  -0.53256  -0.53112  -0.53042
 Alpha  occ. eigenvalues --   -0.52845  -0.50534  -0.48799  -0.48787  -0.48518
 Alpha  occ. eigenvalues --   -0.47258  -0.46477  -0.46421  -0.44792  -0.44431
 Alpha  occ. eigenvalues --   -0.37352  -0.36371
 Alpha virt. eigenvalues --    0.05065   0.11176   0.16505   0.19254   0.22775
 Alpha virt. eigenvalues --    0.23788   0.24736   0.26469   0.27306   0.28321
 Alpha virt. eigenvalues --    0.29198   0.30781   0.31242   0.31364   0.31582

 Mulliken charges:
               1
     1  C   -0.302572
     2  C   -0.300006
     3  C   -0.477638
     4  H    0.154925
     5  H    0.140446
     6  H    0.155686
     7  H    0.149349
     8  H    0.153305
     9  H    0.158944
    10  H    0.162007
    11  C   -0.298345
    12  C   -0.299484
    13  C   -0.476059
    14  H    0.153151
    15  H    0.148385
    16  H    0.155079
    17  H    0.146957
    18  H    0.154963
    19  H    0.156990
    20  H    0.162743
    21  C   -0.172550
    22  C   -0.224135
    23  C   -0.172680
    24  C    0.158514
    25  C   -0.170657
    26  C   -0.218490
    27  H    0.226124
    28  H    0.232112
    29  H    0.276232
    30  H    0.275756
    31  H    0.223518
    32  N    0.488148
    33  O   -0.460510
    34  O   -0.460205
 Sum of Mulliken charges =  -0.00000

 Dipole moment (field-independent basis, Debye):
    X=              2.9867    Y=              3.1839    Z=              2.8962  Tot=              5.2389
 Quadrupole moment (field-independent basis, Debye-Ang):
   XX=           -108.5885   YY=            -95.8428   ZZ=            -94.0217
   XY=            -12.7734   XZ=            -11.2192   YZ=              0.7161

 Normal termination of Gaussian 16 at Thu May  6 05:58:35 2021.
