 Gaussian 16, Revision A.03,
 Gaussian 16:  EM64L-G16RevA.03 25-Dec-2016

 -------------
 #p 6-31g* mp2
 -------------

 ------------------------------------------------------
 Input file generated by CHIRIPA (05-May-2021 14:53:11)
 ------------------------------------------------------
 Symbolic Z-matrix:
 Charge =  0 Multiplicity = 1

                         Standard orientation:
 ---------------------------------------------------------------------
 Center     Atomic      Atomic             Coordinates (Angstroms)
 Number     Number       Type             X           Y           Z
 ---------------------------------------------------------------------
      1          6           0       -1.596595    1.515743    0.360575
      2          6           0       -1.153334    2.829927   -0.283182
      3          6           0       -0.051725    3.534365    0.509295
      4          1           0       -1.948249    1.715479    1.382040
      5          1           0       -0.727586    0.849763    0.453795
      6          1           0       -2.023192    3.492701   -0.376424
      7          1           0       -0.802873    2.627067   -1.303300
      8          1           0        0.833108    2.894843    0.591044
      9          1           0       -0.394144    3.765396    1.523186
     10          1           0        0.250036    4.471562    0.031318
     11          6           0       -2.697383    0.799774   -0.420053
     12          6           0       -3.140644   -0.514411    0.223704
     13          6           0       -4.242253   -1.218849   -0.568773
     14          1           0       -3.566392    1.465754   -0.513273
     15          1           0       -2.345729    0.600038   -1.441518
     16          1           0       -3.491105   -0.311550    1.243822
     17          1           0       -2.270786   -1.177184    0.316946
     18          1           0       -3.899833   -1.449879   -1.582664
     19          1           0       -5.127086   -0.579327   -0.650522
     20          1           0       -4.544014   -2.156046   -0.090796
     21          6           0        0.029873   -2.734479    0.573656
     22          6           0        0.432229   -2.529787   -0.750253
     23          6           0        1.344520   -1.518825   -1.066839
     24          6           0        1.836605   -0.727583   -0.029979
     25          6           0        1.455034   -0.906788    1.298771
     26          6           0        0.541658   -1.923755    1.592146
     27          1           0       -0.679238   -3.522151    0.810572
     28          1           0        0.036418   -3.157880   -1.543272
     29          1           0        1.673045   -1.338535   -2.083198
     30          1           0        1.866963   -0.264591    2.067743
     31          1           0        0.230968   -2.080434    2.621208
     32          7           0        2.802982    0.345856   -0.352848
     33          8           0        3.221849    1.029364    0.578820
     34          8           0        3.123264    0.483385   -1.531467
 ---------------------------------------------------------------------

 SCF Done:  E(RHF) =  -669.534620943     A.U. after   15 cycles
 E2 =    -0.2096449581D+01 EUMP2 =    -0.67163107052408D+03

 The electronic state is 1-A.
 Alpha  occ. eigenvalues --  -20.61027 -20.61015 -15.86043 -11.31389 -11.27975
 Alpha  occ. eigenvalues --  -11.27940 -11.27688 -11.26975 -11.26941 -11.21727
 Alpha  occ. eigenvalues --  -11.21440 -11.21412 -11.21273 -11.21174 -11.20477
 Alpha  occ. eigenvalues --   -1.60078  -1.39632  -1.19593  -1.08987  -1.08375
 Alpha  occ. eigenvalues --   -1.04973  -1.03457  -0.95905  -0.95807  -0.86911
 Alpha  occ. eigenvalues --   -0.86367  -0.82635  -0.79546  -0.78186  -0.77682
 Alpha  occ. eigenvalues --   -0.72263  -0.71403  -0.70681  -0.65227  -0.65055
 Alpha  occ. eigenvalues --   -0.64953  -0.62306  -0.60873  -0.59327  -0.57505
 Alpha  occ. eigenvalues --   -0.55469  -0.55221  -0.53426  -0.53049  -0.52563
 Alpha  occ. eigenvalues --   -0.52316  -0.49875  -0.49031  -0.49020  -0.47866
 Alpha  occ. eigenvalues --   -0.46627  -0.45699  -0.45567  -0.44906  -0.43693
 Alpha  occ. eigenvalues --   -0.37439  -0.36536
 Alpha virt. eigenvalues --    0.04799   0.11014   0.16212   0.21056   0.22927
 Alpha virt. eigenvalues --    0.24149   0.26622   0.27017   0.27685   0.27946
 Alpha virt. eigenvalues --    0.28174   0.30698   0.31477   0.31739   0.32200

 Mulliken charges:
               1
     1  C   -0.305324
     2  C   -0.300720
     3  C   -0.480783
     4  H    0.146131
     5  H    0.155537
     6  H    0.150029
     7  H    0.152985
     8  H    0.165296
     9  H    0.150874
    10  H    0.162354
    11  C   -0.295556
    12  C   -0.308034
    13  C   -0.475066
    14  H    0.149449
    15  H    0.148078
    16  H    0.149010
    17  H    0.156446
    18  H    0.152816
    19  H    0.157653
    20  H    0.154998
    21  C   -0.174279
    22  C   -0.216310
    23  C   -0.171854
    24  C    0.160913
    25  C   -0.175304
    26  C   -0.212334
    27  H    0.228186
    28  H    0.225043
    29  H    0.276425
    30  H    0.277048
    31  H    0.225438
    32  N    0.487787
    33  O   -0.458671
    34  O   -0.458261
 Sum of Mulliken charges =  -0.00000

 Dipole moment (field-independent basis, Debye):
    X=             -3.1275    Y=             -3.8597    Z=              1.1379  Tot=              5.0964
 Quadrupole moment (field-independent basis, Debye-Ang):
   XX=           -108.6896   YY=            -89.6009   ZZ=            -90.0532
   XY=             -5.2251   XZ=              1.7302   YZ=              0.4857

 Normal termination of Gaussian 16 at Thu May  6 02:31:33 2021.
