 Gaussian 16, Revision A.03,
 Gaussian 16:  EM64L-G16RevA.03 25-Dec-2016

 -------------
 #p 6-31g* mp2
 -------------

 ------------------------------------------------------
 Input file generated by CHIRIPA (05-May-2021 14:55:23)
 ------------------------------------------------------
 Symbolic Z-matrix:
 Charge =  0 Multiplicity = 1

                         Standard orientation:
 ---------------------------------------------------------------------
 Center     Atomic      Atomic             Coordinates (Angstroms)
 Number     Number       Type             X           Y           Z
 ---------------------------------------------------------------------
      1          6           0       -0.539449    0.335304    0.936293
      2          6           0       -1.132467   -0.910599    1.165588
      3          6           0       -2.436860   -1.166569    0.732475
      4          6           0       -3.122361   -0.149295    0.070258
      5          6           0       -2.558879    1.102310   -0.173182
      6          6           0       -1.253289    1.336018    0.268817
      7          1           0        0.474300    0.525500    1.276197
      8          1           0       -0.580468   -1.689639    1.683699
      9          1           0       -2.920094   -2.122034    0.896762
     10          1           0       -3.134201    1.859172   -0.692396
     11          1           0       -0.795273    2.304553    0.089357
     12          7           0       -4.503898   -0.408494   -0.392963
     13          8           0       -5.086666    0.504377   -0.974068
     14          8           0       -4.977817   -1.519619   -0.166159
     15          6           0        4.112105   -0.448562    0.087374
     16          6           0        4.018479   -1.709603   -0.772273
     17          6           0        4.837902   -2.871143   -0.209099
     18          1           0        5.165419   -0.148390    0.173237
     19          1           0        3.769303   -0.680780    1.105194
     20          1           0        4.360051   -1.474730   -1.788531
     21          1           0        2.965247   -2.006700   -0.856258
     22          1           0        4.493391   -3.133793    0.796350
     23          1           0        5.896119   -2.598802   -0.141220
     24          1           0        4.756694   -3.762380   -0.839150
     25          6           0        3.298243    0.721396   -0.462676
     26          6           0        3.391870    1.982437    0.396970
     27          6           0        2.572447    3.143977   -0.166203
     28          1           0        3.641046    0.953614   -1.480496
     29          1           0        2.244930    0.421222   -0.548539
     30          1           0        4.445102    2.279533    0.480955
     31          1           0        3.050298    1.747564    1.413228
     32          1           0        1.514230    2.871635   -0.234082
     33          1           0        2.916959    3.406626   -1.171653
     34          1           0        2.653655    4.035212    0.463847
 ---------------------------------------------------------------------

 SCF Done:  E(RHF) =  -669.534990092     A.U. after   15 cycles
 E2 =    -0.2092749748D+01 EUMP2 =    -0.67162773983931D+03

 The electronic state is 1-A.
 Alpha  occ. eigenvalues --  -20.60776 -20.60771 -15.85830 -11.31211 -11.27779
 Alpha  occ. eigenvalues --  -11.27771 -11.27506 -11.26801 -11.26780 -11.22772
 Alpha  occ. eigenvalues --  -11.22393 -11.22351 -11.22299 -11.22276 -11.21713
 Alpha  occ. eigenvalues --   -1.59851  -1.39404  -1.19384  -1.09421  -1.08776
 Alpha  occ. eigenvalues --   -1.04789  -1.04489  -0.96934  -0.95611  -0.87953
 Alpha  occ. eigenvalues --   -0.86190  -0.82441  -0.80554  -0.79190  -0.77486
 Alpha  occ. eigenvalues --   -0.72048  -0.71174  -0.70540  -0.66092  -0.65036
 Alpha  occ. eigenvalues --   -0.64798  -0.62223  -0.61813  -0.60295  -0.58521
 Alpha  occ. eigenvalues --   -0.56285  -0.55257  -0.53612  -0.53371  -0.53117
 Alpha  occ. eigenvalues --   -0.52857  -0.50871  -0.48861  -0.48802  -0.48790
 Alpha  occ. eigenvalues --   -0.47605  -0.46717  -0.46662  -0.44806  -0.44728
 Alpha  occ. eigenvalues --   -0.37344  -0.36388
 Alpha virt. eigenvalues --    0.05012   0.11206   0.16382   0.18381   0.22463
 Alpha virt. eigenvalues --    0.23700   0.24867   0.25595   0.26802   0.28097
 Alpha virt. eigenvalues --    0.29256   0.30207   0.30771   0.31475   0.31945

 Mulliken charges:
               1
     1  C   -0.174436
     2  C   -0.220552
     3  C   -0.170734
     4  C    0.158901
     5  C   -0.170751
     6  C   -0.224639
     7  H    0.231806
     8  H    0.223597
     9  H    0.275704
    10  H    0.276131
    11  H    0.229370
    12  N    0.487908
    13  O   -0.460193
    14  O   -0.460324
    15  C   -0.298189
    16  C   -0.300412
    17  C   -0.476042
    18  H    0.153246
    19  H    0.144475
    20  H    0.155000
    21  H    0.151633
    22  H    0.153793
    23  H    0.156962
    24  H    0.163122
    25  C   -0.304964
    26  C   -0.302808
    27  C   -0.479514
    28  H    0.155017
    29  H    0.148758
    30  H    0.158645
    31  H    0.146127
    32  H    0.146693
    33  H    0.162053
    34  H    0.164619
 Sum of Mulliken charges =  -0.00000

 Dipole moment (field-independent basis, Debye):
    X=              5.0604    Y=              0.9169    Z=              1.5364  Tot=              5.3674
 Quadrupole moment (field-independent basis, Debye-Ang):
   XX=           -124.4764   YY=            -91.2473   ZZ=            -94.3469
   XY=             -2.9748   XZ=             -5.6038   YZ=             -2.1509

 Normal termination of Gaussian 16 at Wed May  5 17:34:54 2021.
