 Gaussian 16, Revision A.03,
 Gaussian 16:  EM64L-G16RevA.03 25-Dec-2016

 -------------
 #p 6-31g* mp2
 -------------

 ------------------------------------------------------
 Input file generated by CHIRIPA (05-May-2021 14:57:20)
 ------------------------------------------------------
 Symbolic Z-matrix:
 Charge =  0 Multiplicity = 1

                         Standard orientation:
 ---------------------------------------------------------------------
 Center     Atomic      Atomic             Coordinates (Angstroms)
 Number     Number       Type             X           Y           Z
 ---------------------------------------------------------------------
      1          6           0        4.608691    2.171886    0.020871
      2          6           0        3.332627    2.004383    0.568707
      3          6           0        2.735380    0.740818    0.604037
      4          6           0        3.445844   -0.338201    0.080349
      5          6           0        4.718610   -0.203452   -0.472101
      6          6           0        5.296397    1.069378   -0.496872
      7          1           0        5.065089    3.157052   -0.002473
      8          1           0        2.796207    2.858807    0.971519
      9          1           0        1.748722    0.582784    1.022307
     10          1           0        5.228698   -1.074127   -0.865994
     11          1           0        6.287534    1.196491   -0.922942
     12          7           0        2.823866   -1.680785    0.112162
     13          8           0        3.470590   -2.615409   -0.355666
     14          8           0        1.701413   -1.773056    0.604323
     15          6           0       -3.480209   -2.403800    0.009835
     16          6           0       -4.705157   -1.733499    0.091821
     17          6           0       -4.754866   -0.337090    0.045802
     18          6           0       -3.554941    0.360622   -0.083317
     19          6           0       -2.318881   -0.278420   -0.167393
     20          6           0       -2.293074   -1.675406   -0.119283
     21          1           0       -3.450879   -3.488788    0.046395
     22          1           0       -5.628688   -2.296590    0.192139
     23          1           0       -5.689400    0.207243    0.107164
     24          1           0       -1.414973    0.310190   -0.266930
     25          1           0       -1.340320   -2.193307   -0.183175
     26          7           0       -3.594913    1.839242   -0.133141
     27          8           0       -2.523667    2.430884   -0.247289
     28          8           0       -4.696733    2.378546   -0.057104
 ---------------------------------------------------------------------

 SCF Done:  E(RHF) =  -868.340707374     A.U. after   16 cycles
 E2 =    -0.2598335896D+01 EUMP2 =    -0.87093904326926D+03

 The electronic state is 1-A.
 Alpha  occ. eigenvalues --  -20.61487 -20.61423 -20.60551 -20.60529 -15.86483
 Alpha  occ. eigenvalues --  -15.85583 -11.31522 -11.30701 -11.28044 -11.28040
 Alpha  occ. eigenvalues --  -11.27700 -11.27237 -11.27167 -11.26993 -11.26935
 Alpha  occ. eigenvalues --  -11.26841 -11.26228 -11.25960  -1.60517  -1.59619
 Alpha  occ. eigenvalues --   -1.40083  -1.39182  -1.19654  -1.18816  -1.09106
 Alpha  occ. eigenvalues --   -1.08252  -1.05001  -1.04154  -0.95999  -0.95141
 Alpha  occ. eigenvalues --   -0.86417  -0.85566  -0.82844  -0.81964  -0.77931
 Alpha  occ. eigenvalues --   -0.77050  -0.72719  -0.71818  -0.71811  -0.70935
 Alpha  occ. eigenvalues --   -0.70756  -0.69925  -0.65307  -0.64991  -0.64452
 Alpha  occ. eigenvalues --   -0.64108  -0.62354  -0.61489  -0.55507  -0.54661
 Alpha  occ. eigenvalues --   -0.53352  -0.53083  -0.52528  -0.52205  -0.49485
 Alpha  occ. eigenvalues --   -0.49431  -0.48581  -0.48535  -0.45557  -0.44643
 Alpha  occ. eigenvalues --   -0.37609  -0.36786  -0.36587  -0.35753
 Alpha virt. eigenvalues --    0.04546   0.05431   0.11054   0.11891   0.16108
 Alpha virt. eigenvalues --    0.17010   0.20750   0.22229   0.25888   0.27548
 Alpha virt. eigenvalues --    0.28628   0.29255   0.31059   0.31612   0.31986

 Mulliken charges:
               1
     1  C   -0.169866
     2  C   -0.217693
     3  C   -0.172423
     4  C    0.157828
     5  C   -0.170812
     6  C   -0.218379
     7  H    0.228271
     8  H    0.229945
     9  H    0.274393
    10  H    0.275400
    11  H    0.224683
    12  N    0.490692
    13  O   -0.456859
    14  O   -0.472614
    15  C   -0.171945
    16  C   -0.218316
    17  C   -0.172998
    18  C    0.158646
    19  C   -0.173912
    20  C   -0.223839
    21  H    0.226973
    22  H    0.221496
    23  H    0.273010
    24  H    0.270634
    25  H    0.246632
    26  N    0.488480
    27  O   -0.466149
    28  O   -0.461276
 Sum of Mulliken charges =  -0.00000

 Dipole moment (field-independent basis, Debye):
    X=              2.6971    Y=             -0.5318    Z=              0.0559  Tot=              2.7496
 Quadrupole moment (field-independent basis, Debye-Ang):
   XX=            -82.5493   YY=           -111.7262   ZZ=           -105.4750
   XY=             33.6286   XZ=             -3.5158   YZ=              2.0357

 Normal termination of Gaussian 16 at Thu May  6 09:36:13 2021.
