 Gaussian 16, Revision A.03,
 Gaussian 16:  EM64L-G16RevA.03 25-Dec-2016

 -------------
 #p 6-31g* mp2
 -------------

 ------------------------------------------------------
 Input file generated by CHIRIPA (05-May-2021 14:53:18)
 ------------------------------------------------------
 Symbolic Z-matrix:
 Charge =  0 Multiplicity = 1

                         Standard orientation:
 ---------------------------------------------------------------------
 Center     Atomic      Atomic             Coordinates (Angstroms)
 Number     Number       Type             X           Y           Z
 ---------------------------------------------------------------------
      1          6           0        4.360170    0.856385   -0.450331
      2          6           0        3.129402    1.652789   -0.015665
      3          6           0        3.002711    2.990332   -0.745543
      4          1           0        5.260975    1.459575   -0.272403
      5          1           0        4.310676    0.680629   -1.533869
      6          1           0        3.180512    1.825797    1.066957
      7          1           0        2.231437    1.047558   -0.194471
      8          1           0        2.926575    2.833684   -1.826406
      9          1           0        3.881043    3.616344   -0.557811
     10          1           0        2.116150    3.543159   -0.419578
     11          6           0        4.500565   -0.483183    0.270485
     12          6           0        5.731334   -1.279586   -0.164181
     13          6           0        5.858024   -2.617130    0.565697
     14          1           0        4.550060   -0.307427    1.354023
     15          1           0        3.599761   -1.086372    0.092557
     16          1           0        6.629298   -0.674356    0.014625
     17          1           0        5.680223   -1.452594   -1.246803
     18          1           0        4.979693   -3.243142    0.377965
     19          1           0        5.934160   -2.460482    1.646560
     20          1           0        6.744585   -3.169956    0.239732
     21          6           0       -1.041172    0.453678    0.457437
     22          6           0       -1.370080   -0.693754   -0.271767
     23          6           0       -2.707602   -1.035628   -0.492462
     24          6           0       -3.695186   -0.203736    0.032821
     25          6           0       -3.399406    0.946053    0.763430
     26          6           0       -2.055097    1.268483    0.971802
     27          1           0        0.000484    0.711701    0.624093
     28          1           0       -0.584744   -1.328400   -0.672413
     29          1           0       -2.990397   -1.918131   -1.053384
     30          1           0       -4.204307    1.559128    1.150331
     31          1           0       -1.802614    2.160202    1.538489
     32          7           0       -5.114754   -0.555370   -0.194297
     33          8           0       -5.966211    0.194051    0.279017
     34          8           0       -5.349074   -1.573745   -0.841325
 ---------------------------------------------------------------------

 SCF Done:  E(RHF) =  -669.535553025     A.U. after   15 cycles
 E2 =    -0.2090987020D+01 EUMP2 =    -0.67162654004452D+03

 The electronic state is 1-A.
 Alpha  occ. eigenvalues --  -20.60731 -20.60726 -15.85786 -11.31143 -11.27719
 Alpha  occ. eigenvalues --  -11.27714 -11.27413 -11.26727 -11.26714 -11.22822
 Alpha  occ. eigenvalues --  -11.22332 -11.22300 -11.22231 -11.22053 -11.21669
 Alpha  occ. eigenvalues --   -1.59808  -1.39361  -1.19316  -1.09348  -1.08708
 Alpha  occ. eigenvalues --   -1.04721  -1.04415  -0.96826  -0.95545  -0.87842
 Alpha  occ. eigenvalues --   -0.86117  -0.82384  -0.80514  -0.79156  -0.77431
 Alpha  occ. eigenvalues --   -0.72003  -0.71131  -0.70431  -0.65977  -0.64967
 Alpha  occ. eigenvalues --   -0.64728  -0.62072  -0.61810  -0.60226  -0.58455
 Alpha  occ. eigenvalues --   -0.56102  -0.55216  -0.53523  -0.53244  -0.53048
 Alpha  occ. eigenvalues --   -0.52813  -0.50761  -0.48822  -0.48759  -0.48740
 Alpha  occ. eigenvalues --   -0.47544  -0.46688  -0.46595  -0.44768  -0.44665
 Alpha  occ. eigenvalues --   -0.37287  -0.36330
 Alpha virt. eigenvalues --    0.05102   0.11323   0.16568   0.19635   0.22404
 Alpha virt. eigenvalues --    0.23611   0.25178   0.26085   0.26697   0.27752
 Alpha virt. eigenvalues --    0.28977   0.30379   0.30678   0.31049   0.32259

 Mulliken charges:
               1
     1  C   -0.297993
     2  C   -0.305605
     3  C   -0.475457
     4  H    0.153707
     5  H    0.151845
     6  H    0.152920
     7  H    0.143348
     8  H    0.158751
     9  H    0.159730
    10  H    0.158521
    11  C   -0.297965
    12  C   -0.300370
    13  C   -0.476085
    14  H    0.150734
    15  H    0.144491
    16  H    0.154012
    17  H    0.153082
    18  H    0.154670
    19  H    0.156148
    20  H    0.162801
    21  C   -0.177404
    22  C   -0.220979
    23  C   -0.170826
    24  C    0.158219
    25  C   -0.170675
    26  C   -0.220326
    27  H    0.237008
    28  H    0.222351
    29  H    0.275394
    30  H    0.275395
    31  H    0.223660
    32  N    0.488048
    33  O   -0.460538
    34  O   -0.460613
 Sum of Mulliken charges =  -0.00000

 Dipole moment (field-independent basis, Debye):
    X=              5.2704    Y=              1.2847    Z=              0.7752  Tot=              5.4798
 Quadrupole moment (field-independent basis, Debye-Ang):
   XX=           -130.5658   YY=            -92.7562   ZZ=            -93.6473
   XY=             -6.3408   XZ=             -3.4560   YZ=              3.0335

 Normal termination of Gaussian 16 at Thu May  6 15:40:02 2021.
