 Gaussian 16, Revision A.03,
 Gaussian 16:  EM64L-G16RevA.03 25-Dec-2016

 -------------
 #p 6-31g* mp2
 -------------

 ------------------------------------------------------
 Input file generated by CHIRIPA (05-May-2021 14:55:24)
 ------------------------------------------------------
 Symbolic Z-matrix:
 Charge =  0 Multiplicity = 1

                         Standard orientation:
 ---------------------------------------------------------------------
 Center     Atomic      Atomic             Coordinates (Angstroms)
 Number     Number       Type             X           Y           Z
 ---------------------------------------------------------------------
      1          6           0        0.756189    2.503670    0.541353
      2          6           0        1.347488    1.749026    1.559881
      3          6           0        2.206044    0.689603    1.251576
      4          6           0        2.452309    0.411219   -0.091981
      5          6           0        1.878405    1.144652   -1.129285
      6          6           0        1.023064    2.199610   -0.797619
      7          1           0        0.090491    3.324921    0.789926
      8          1           0        1.142044    1.982892    2.600624
      9          1           0        2.677239    0.089115    2.020216
     10          1           0        2.102331    0.887590   -2.157485
     11          1           0        0.565261    2.783971   -1.590704
     12          7           0        3.359522   -0.707982   -0.430736
     13          8           0        3.560332   -0.933033   -1.622233
     14          8           0        3.852608   -1.338968    0.501659
     15          6           0       -2.184452   -0.767283    0.078807
     16          6           0       -1.601119   -2.136494    0.429477
     17          6           0       -0.073376   -2.130080    0.490780
     18          1           0       -1.778640   -0.439637   -0.888100
     19          1           0       -1.849534   -0.032123    0.823632
     20          1           0       -1.938162   -2.869132   -0.315008
     21          1           0       -2.008514   -2.461005    1.395572
     22          1           0        0.278868   -1.420640    1.246569
     23          1           0        0.349620   -1.831086   -0.473729
     24          1           0        0.322447   -3.118812    0.742960
     25          6           0       -3.710689   -0.757648    0.013738
     26          6           0       -4.294023    0.611562   -0.336933
     27          6           0       -5.821765    0.605149   -0.398235
     28          1           0       -4.045606   -1.492809   -0.731088
     29          1           0       -4.116500   -1.085295    0.980645
     30          1           0       -3.886628    0.936074   -1.303028
     31          1           0       -3.956979    1.344201    0.407552
     32          1           0       -6.244761    0.306154    0.566274
     33          1           0       -6.174009   -0.104291   -1.154025
     34          1           0       -6.217588    1.593881   -0.650416
 ---------------------------------------------------------------------

 SCF Done:  E(RHF) =  -669.534457596     A.U. after   15 cycles
 E2 =    -0.2094520014D+01 EUMP2 =    -0.67162897761057D+03

 The electronic state is 1-A.
 Alpha  occ. eigenvalues --  -20.60770 -20.60751 -15.85802 -11.31144 -11.27760
 Alpha  occ. eigenvalues --  -11.27734 -11.27527 -11.26803 -11.26790 -11.21965
 Alpha  occ. eigenvalues --  -11.21601 -11.21583 -11.21481 -11.21383 -11.20860
 Alpha  occ. eigenvalues --   -1.59828  -1.39384  -1.19370  -1.08759  -1.08596
 Alpha  occ. eigenvalues --   -1.04788  -1.03664  -0.96105  -0.95590  -0.87128
 Alpha  occ. eigenvalues --   -0.86176  -0.82429  -0.79763  -0.78412  -0.77469
 Alpha  occ. eigenvalues --   -0.72031  -0.71143  -0.70485  -0.65237  -0.65026
 Alpha  occ. eigenvalues --   -0.64788  -0.62135  -0.61072  -0.59479  -0.57749
 Alpha  occ. eigenvalues --   -0.55407  -0.55282  -0.53353  -0.52877  -0.52768
 Alpha  occ. eigenvalues --   -0.52349  -0.50063  -0.48789  -0.48786  -0.48013
 Alpha  occ. eigenvalues --   -0.46813  -0.45906  -0.45874  -0.44776  -0.43904
 Alpha  occ. eigenvalues --   -0.37274  -0.36327
 Alpha virt. eigenvalues --    0.05036   0.11177   0.16517   0.21305   0.22709
 Alpha virt. eigenvalues --    0.24154   0.26308   0.27167   0.27193   0.27703
 Alpha virt. eigenvalues --    0.28453   0.30793   0.31227   0.31641   0.32017

 Mulliken charges:
               1
     1  C   -0.169624
     2  C   -0.218688
     3  C   -0.174289
     4  C    0.166192
     5  C   -0.173166
     6  C   -0.216698
     7  H    0.225841
     8  H    0.223360
     9  H    0.275869
    10  H    0.275378
    11  H    0.223606
    12  N    0.490013
    13  O   -0.461389
    14  O   -0.459889
    15  C   -0.297553
    16  C   -0.300196
    17  C   -0.479433
    18  H    0.148320
    19  H    0.146588
    20  H    0.153122
    21  H    0.150629
    22  H    0.154023
    23  H    0.154176
    24  H    0.166400
    25  C   -0.298367
    26  C   -0.298471
    27  C   -0.475566
    28  H    0.150999
    29  H    0.149646
    30  H    0.149939
    31  H    0.147448
    32  H    0.155824
    33  H    0.156758
    34  H    0.159201
 Sum of Mulliken charges =  -0.00000

 Dipole moment (field-independent basis, Debye):
    X=             -3.1161    Y=              3.9107    Z=              1.1919  Tot=              5.1405
 Quadrupole moment (field-independent basis, Debye-Ang):
   XX=           -112.5032   YY=            -91.8547   ZZ=            -89.3205
   XY=              8.4525   XZ=              3.9500   YZ=             -0.6494

 Normal termination of Gaussian 16 at Thu May  6 06:21:13 2021.
