 Gaussian 16, Revision A.03,
 Gaussian 16:  EM64L-G16RevA.03 25-Dec-2016

 -------------
 #p 6-31g* mp2
 -------------

 ------------------------------------------------------
 Input file generated by CHIRIPA (05-May-2021 14:55:24)
 ------------------------------------------------------
 Symbolic Z-matrix:
 Charge =  0 Multiplicity = 1

                         Standard orientation:
 ---------------------------------------------------------------------
 Center     Atomic      Atomic             Coordinates (Angstroms)
 Number     Number       Type             X           Y           Z
 ---------------------------------------------------------------------
      1          6           0        3.815973   -2.229973   -0.174567
      2          6           0        4.296858   -1.253110    0.703504
      3          6           0        3.805678    0.054666    0.648628
      4          6           0        2.829475    0.352103   -0.301030
      5          6           0        2.330300   -0.599039   -1.189536
      6          6           0        2.835957   -1.900401   -1.116624
      7          1           0        4.203157   -3.243394   -0.124932
      8          1           0        5.057932   -1.506200    1.436141
      9          1           0        4.160264    0.830448    1.316347
     10          1           0        1.571417   -0.316609   -1.909083
     11          1           0        2.460640   -2.656999   -1.799809
     12          7           0        2.301822    1.733192   -0.368672
     13          8           0        1.441961    1.969790   -1.214424
     14          8           0        2.758099    2.552940    0.425344
     15          6           0       -3.087907    0.216227    0.532864
     16          6           0       -2.023350   -0.662550    1.190479
     17          6           0       -0.738528    0.103029    1.508150
     18          1           0       -2.678626    0.647769   -0.390827
     19          1           0       -3.317907    1.060681    1.197237
     20          1           0       -1.796431   -1.505852    0.525675
     21          1           0       -2.435278   -1.092204    2.112612
     22          1           0       -0.944091    0.934374    2.190214
     23          1           0       -0.301614    0.518375    0.594260
     24          1           0        0.008790   -0.544194    1.977700
     25          6           0       -4.378177   -0.534902    0.209232
     26          6           0       -5.442734    0.343873   -0.448382
     27          6           0       -6.727555   -0.421705   -0.766053
     28          1           0       -4.148178   -1.379357   -0.455140
     29          1           0       -4.787457   -0.966445    1.132924
     30          1           0       -5.030806    0.773527   -1.370515
     31          1           0       -5.669653    1.187175    0.216422
     32          1           0       -7.164469   -0.837050    0.147837
     33          1           0       -6.521993   -1.253050   -1.448117
     34          1           0       -7.474874    0.225518   -1.235603
 ---------------------------------------------------------------------

 SCF Done:  E(RHF) =  -669.535971973     A.U. after   15 cycles
 E2 =    -0.2092129844D+01 EUMP2 =    -0.67162810181674D+03

 The electronic state is 1-A.
 Alpha  occ. eigenvalues --  -20.60886 -20.60868 -15.85890 -11.31211 -11.27783
 Alpha  occ. eigenvalues --  -11.27777 -11.27523 -11.26798 -11.26787 -11.21348
 Alpha  occ. eigenvalues --  -11.21345 -11.21138 -11.20998 -11.20884 -11.20650
 Alpha  occ. eigenvalues --   -1.59929  -1.39489  -1.19386  -1.08792  -1.08143
 Alpha  occ. eigenvalues --   -1.04787  -1.03253  -0.95697  -0.95633  -0.86717
 Alpha  occ. eigenvalues --   -0.86188  -0.82472  -0.79326  -0.77947  -0.77524
 Alpha  occ. eigenvalues --   -0.72126  -0.71249  -0.70502  -0.65047  -0.64802
 Alpha  occ. eigenvalues --   -0.64769  -0.62140  -0.60654  -0.59070  -0.57301
 Alpha  occ. eigenvalues --   -0.55298  -0.54987  -0.53135  -0.52883  -0.52374
 Alpha  occ. eigenvalues --   -0.52108  -0.49642  -0.48886  -0.48880  -0.47637
 Alpha  occ. eigenvalues --   -0.46383  -0.45504  -0.45435  -0.44785  -0.43509
 Alpha  occ. eigenvalues --   -0.37345  -0.36381
 Alpha virt. eigenvalues --    0.04994   0.11219   0.16483   0.21347   0.23131
 Alpha virt. eigenvalues --    0.24527   0.26829   0.27346   0.27704   0.28080
 Alpha virt. eigenvalues --    0.28434   0.30713   0.31661   0.31996   0.32092

 Mulliken charges:
               1
     1  C   -0.170766
     2  C   -0.218741
     3  C   -0.170892
     4  C    0.160674
     5  C   -0.171668
     6  C   -0.218455
     7  H    0.225670
     8  H    0.223540
     9  H    0.275730
    10  H    0.274912
    11  H    0.223427
    12  N    0.489404
    13  O   -0.460164
    14  O   -0.457605
    15  C   -0.299303
    16  C   -0.298426
    17  C   -0.483932
    18  H    0.155108
    19  H    0.151402
    20  H    0.146269
    21  H    0.150139
    22  H    0.159125
    23  H    0.162371
    24  H    0.155511
    25  C   -0.297874
    26  C   -0.299689
    27  C   -0.475487
    28  H    0.146699
    29  H    0.148348
    30  H    0.153293
    31  H    0.152884
    32  H    0.154449
    33  H    0.153823
    34  H    0.160224
 Sum of Mulliken charges =  -0.00000

 Dipole moment (field-independent basis, Debye):
    X=              1.9620    Y=             -4.7522    Z=              0.2202  Tot=              5.1460
 Quadrupole moment (field-independent basis, Debye-Ang):
   XX=            -83.8616   YY=            -98.5307   ZZ=            -91.7638
   XY=            -13.1214   XZ=              2.2178   YZ=              2.9548

 Normal termination of Gaussian 16 at Thu May  6 06:21:14 2021.
