 Gaussian 16, Revision A.03,
 Gaussian 16:  EM64L-G16RevA.03 25-Dec-2016

 -------------
 #p 6-31g* mp2
 -------------

 ------------------------------------------------------
 Input file generated by CHIRIPA (05-May-2021 14:55:21)
 ------------------------------------------------------
 Symbolic Z-matrix:
 Charge =  0 Multiplicity = 1

                         Standard orientation:
 ---------------------------------------------------------------------
 Center     Atomic      Atomic             Coordinates (Angstroms)
 Number     Number       Type             X           Y           Z
 ---------------------------------------------------------------------
      1          6           0        5.087840    0.690303   -0.512065
      2          6           0        4.722420   -0.657285   -0.595697
      3          6           0        3.434469   -1.067185   -0.238328
      4          6           0        2.533147   -0.098477    0.200435
      5          6           0        2.867162    1.251651    0.294664
      6          6           0        4.160679    1.638798   -0.067935
      7          1           0        6.090513    0.999886   -0.791709
      8          1           0        5.440391   -1.396091   -0.940268
      9          1           0        3.125048   -2.103832   -0.293450
     10          1           0        2.129593    1.965032    0.641790
     11          1           0        4.441689    2.686046   -0.001977
     12          7           0        1.166704   -0.520376    0.581533
     13          8           0        0.391094    0.352557    0.965010
     14          8           0        0.897171   -1.716004    0.489546
     15          6           0       -3.089844   -0.582716   -0.246724
     16          6           0       -3.857843   -1.894847   -0.084022
     17          6           0       -2.962284   -3.125736   -0.227836
     18          1           0       -2.602333   -0.570230   -1.231164
     19          1           0       -2.285616   -0.541544    0.500884
     20          1           0       -4.661254   -1.932910   -0.830814
     21          1           0       -4.343739   -1.904127    0.900069
     22          1           0       -2.168706   -3.114994    0.526298
     23          1           0       -2.488024   -3.143940   -1.214419
     24          1           0       -3.531681   -4.052709   -0.107970
     25          6           0       -3.971539    0.656809   -0.105596
     26          6           0       -3.203540    1.968941   -0.268298
     27          6           0       -4.099099    3.199829   -0.124485
     28          1           0       -4.775768    0.615638   -0.853204
     29          1           0       -4.459051    0.644325    0.878844
     30          1           0       -2.717644    1.978221   -1.252390
     31          1           0       -2.400129    2.007003    0.478493
     32          1           0       -4.573359    3.218034    0.862099
     33          1           0       -4.892678    3.189087   -0.878619
     34          1           0       -3.529702    4.126803   -0.244350
 ---------------------------------------------------------------------

 SCF Done:  E(RHF) =  -669.536840898     A.U. after   15 cycles
 E2 =    -0.2092119533D+01 EUMP2 =    -0.67162896043093D+03

 The electronic state is 1-A.
 Alpha  occ. eigenvalues --  -20.61110 -20.61103 -15.86102 -11.31375 -11.27926
 Alpha  occ. eigenvalues --  -11.27922 -11.27655 -11.26921 -11.26911 -11.20349
 Alpha  occ. eigenvalues --  -11.20167 -11.20126 -11.20038 -11.19538 -11.19497
 Alpha  occ. eigenvalues --   -1.60139  -1.39698  -1.19533  -1.08949  -1.06973
 Alpha  occ. eigenvalues --   -1.04920  -1.02186  -0.95798  -0.94632  -0.86323
 Alpha  occ. eigenvalues --   -0.85649  -0.82636  -0.78257  -0.77694  -0.76726
 Alpha  occ. eigenvalues --   -0.72317  -0.71437  -0.70642  -0.65190  -0.64924
 Alpha  occ. eigenvalues --   -0.63609  -0.62267  -0.59594  -0.58033  -0.56235
 Alpha  occ. eigenvalues --   -0.55429  -0.53920  -0.53255  -0.53011  -0.51396
 Alpha  occ. eigenvalues --   -0.51048  -0.49173  -0.49088  -0.48522  -0.46566
 Alpha  occ. eigenvalues --   -0.45296  -0.45126  -0.44327  -0.43977  -0.42400
 Alpha  occ. eigenvalues --   -0.37508  -0.36518
 Alpha virt. eigenvalues --    0.04825   0.11138   0.16329   0.21261   0.24254
 Alpha virt. eigenvalues --    0.25573   0.27198   0.27900   0.28202   0.29144
 Alpha virt. eigenvalues --    0.29297   0.30919   0.32310   0.32695   0.32862

 Mulliken charges:
               1
     1  C   -0.170390
     2  C   -0.218630
     3  C   -0.170646
     4  C    0.158391
     5  C   -0.170453
     6  C   -0.218597
     7  H    0.226297
     8  H    0.224129
     9  H    0.276155
    10  H    0.275971
    11  H    0.224138
    12  N    0.490465
    13  O   -0.460220
    14  O   -0.458867
    15  C   -0.307857
    16  C   -0.298540
    17  C   -0.476702
    18  H    0.142220
    19  H    0.180895
    20  H    0.144089
    21  H    0.147688
    22  H    0.170707
    23  H    0.151147
    24  H    0.151145
    25  C   -0.296910
    26  C   -0.301328
    27  C   -0.474678
    28  H    0.142722
    29  H    0.146286
    30  H    0.146740
    31  H    0.164552
    32  H    0.153454
    33  H    0.151835
    34  H    0.154795
 Sum of Mulliken charges =  -0.00000

 Dipole moment (field-independent basis, Debye):
    X=              5.3363    Y=              1.4439    Z=             -1.1711  Tot=              5.6509
 Quadrupole moment (field-independent basis, Debye-Ang):
   XX=            -72.7178   YY=            -92.3898   ZZ=            -95.0405
   XY=              2.6308   XZ=             -3.1947   YZ=              1.5107

 Normal termination of Gaussian 16 at Thu May  6 20:44:47 2021.
