 Gaussian 16, Revision A.03,
 Gaussian 16:  EM64L-G16RevA.03 25-Dec-2016

 -------------
 #p 6-31g* mp2
 -------------

 ------------------------------------------------------
 Input file generated by CHIRIPA (05-May-2021 14:57:23)
 ------------------------------------------------------
 Symbolic Z-matrix:
 Charge =  0 Multiplicity = 1

                         Standard orientation:
 ---------------------------------------------------------------------
 Center     Atomic      Atomic             Coordinates (Angstroms)
 Number     Number       Type             X           Y           Z
 ---------------------------------------------------------------------
      1          6           0       -2.210125    2.496565    0.274993
      2          6           0       -3.053491    1.651246    1.003477
      3          6           0       -3.197638    0.308504    0.641793
      4          6           0       -2.480228   -0.157654   -0.458802
      5          6           0       -1.632208    0.659651   -1.204566
      6          6           0       -1.503420    1.998947   -0.824765
      7          1           0       -2.104114    3.538300    0.562994
      8          1           0       -3.603557    2.034962    1.858014
      9          1           0       -3.843703   -0.367890    1.188152
     10          1           0       -1.096839    0.248267   -2.051656
     11          1           0       -0.847734    2.653129   -1.392361
     12          7           0       -2.624700   -1.577330   -0.851291
     13          8           0       -1.981714   -1.963637   -1.824931
     14          8           0       -3.378186   -2.276884   -0.177852
     15          6           0        0.808489   -0.573902    2.238749
     16          6           0        1.825163   -1.487921    1.943003
     17          6           0        2.743799   -1.222646    0.923060
     18          6           0        2.615733   -0.028221    0.215782
     19          6           0        1.613762    0.902335    0.486724
     20          6           0        0.706214    0.616210    1.510948
     21          1           0        0.099177   -0.788072    3.032728
     22          1           0        1.907011   -2.412981    2.506572
     23          1           0        3.540552   -1.912690    0.673175
     24          1           0        1.557673    1.816016   -0.092464
     25          1           0       -0.082335    1.327889    1.738435
     26          7           0        3.582383    0.263650   -0.866251
     27          8           0        3.448027    1.323084   -1.474678
     28          8           0        4.456097   -0.572544   -1.085436
 ---------------------------------------------------------------------

 SCF Done:  E(RHF) =  -868.335741328     A.U. after   16 cycles
 E2 =    -0.2605249017D+01 EUMP2 =    -0.87094099034566D+03

 The electronic state is 1-A.
 Alpha  occ. eigenvalues --  -20.61356 -20.61328 -20.60914 -20.60875 -15.86403
 Alpha  occ. eigenvalues --  -15.85944 -11.31954 -11.31231 -11.28609 -11.28476
 Alpha  occ. eigenvalues --  -11.28331 -11.27795 -11.27698 -11.27664 -11.27522
 Alpha  occ. eigenvalues --  -11.27429 -11.26730 -11.26657  -1.60415  -1.59970
 Alpha  occ. eigenvalues --   -1.39963  -1.39529  -1.20194  -1.19361  -1.09554
 Alpha  occ. eigenvalues --   -1.08773  -1.05612  -1.04739  -0.96332  -0.95635
 Alpha  occ. eigenvalues --   -0.86978  -0.86163  -0.83146  -0.82471  -0.78154
 Alpha  occ. eigenvalues --   -0.77548  -0.72617  -0.72165  -0.71740  -0.71294
 Alpha  occ. eigenvalues --   -0.71256  -0.70495  -0.65811  -0.65590  -0.65015
 Alpha  occ. eigenvalues --   -0.64780  -0.62910  -0.62178  -0.56085  -0.55305
 Alpha  occ. eigenvalues --   -0.54294  -0.53655  -0.52986  -0.52462  -0.49394
 Alpha  occ. eigenvalues --   -0.49359  -0.48934  -0.48902  -0.45327  -0.44952
 Alpha  occ. eigenvalues --   -0.38233  -0.37634  -0.37291  -0.35858
 Alpha virt. eigenvalues --    0.04203   0.05126   0.10318   0.11238   0.15712
 Alpha virt. eigenvalues --    0.16592   0.20147   0.21857   0.25521   0.27488
 Alpha virt. eigenvalues --    0.27981   0.28565   0.30180   0.31359   0.31775

 Mulliken charges:
               1
     1  C   -0.184054
     2  C   -0.222447
     3  C   -0.173956
     4  C    0.162703
     5  C   -0.163397
     6  C   -0.224971
     7  H    0.228679
     8  H    0.225457
     9  H    0.276869
    10  H    0.282483
    11  H    0.230561
    12  N    0.487814
    13  O   -0.455273
    14  O   -0.461149
    15  C   -0.175126
    16  C   -0.216125
    17  C   -0.170664
    18  C    0.159338
    19  C   -0.175504
    20  C   -0.214738
    21  H    0.224956
    22  H    0.225455
    23  H    0.276530
    24  H    0.265073
    25  H    0.226208
    26  N    0.488548
    27  O   -0.465852
    28  O   -0.457417
 Sum of Mulliken charges =  -0.00000

 Dipole moment (field-independent basis, Debye):
    X=             -3.0402    Y=              3.7669    Z=              5.0433  Tot=              6.9905
 Quadrupole moment (field-independent basis, Debye-Ang):
   XX=           -123.0783   YY=           -103.2845   ZZ=           -102.3417
   XY=            -17.2298   XZ=              3.5450   YZ=             -4.5087

 Normal termination of Gaussian 16 at Thu May  6 16:17:14 2021.
