 Gaussian 16, Revision A.03,
 Gaussian 16:  EM64L-G16RevA.03 25-Dec-2016

 -------------
 #p 6-31g* mp2
 -------------

 ------------------------------------------------------
 Input file generated by CHIRIPA (05-May-2021 14:55:24)
 ------------------------------------------------------
 Symbolic Z-matrix:
 Charge =  0 Multiplicity = 1

                         Standard orientation:
 ---------------------------------------------------------------------
 Center     Atomic      Atomic             Coordinates (Angstroms)
 Number     Number       Type             X           Y           Z
 ---------------------------------------------------------------------
      1          6           0       -3.959612    1.467783   -0.240211
      2          6           0       -3.528589    0.726916   -1.345587
      3          6           0       -2.575379   -0.284562   -1.194421
      4          6           0       -2.072053   -0.529570    0.082264
      5          6           0       -2.481469    0.191255    1.203014
      6          6           0       -3.435600    1.198064    1.028325
      7          1           0       -4.700447    2.251710   -0.366777
      8          1           0       -3.933808    0.934190   -2.331934
      9          1           0       -2.224026   -0.873400   -2.033015
     10          1           0       -2.059242   -0.038483    2.173768
     11          1           0       -3.768487    1.771829    1.888572
     12          7           0       -1.062444   -1.597905    0.254748
     13          8           0       -0.634450   -1.794240    1.390050
     14          8           0       -0.718224   -2.218701   -0.748627
     15          6           0        2.531268   -0.233374   -0.029875
     16          6           0        3.510490   -1.395209   -0.200897
     17          6           0        2.827422   -2.760759   -0.120386
     18          1           0        2.019769   -0.332634    0.937318
     19          1           0        1.753609   -0.301556   -0.803175
     20          1           0        4.286852   -1.324071    0.571643
     21          1           0        4.019857   -1.293066   -1.167711
     22          1           0        2.065495   -2.856978   -0.900648
     23          1           0        2.334007   -2.888159    0.848589
     24          1           0        3.545802   -3.576976   -0.245208
     25          6           0        3.199161    1.138323   -0.107947
     26          6           0        2.219939    2.300156    0.063076
     27          6           0        2.903007    3.665708   -0.017436
     28          1           0        3.976819    1.206504    0.665353
     29          1           0        3.710660    1.237582   -1.075139
     30          1           0        1.710572    2.198014    1.029890
     31          1           0        1.443577    2.229019   -0.709465
     32          1           0        3.396423    3.793107   -0.986410
     33          1           0        3.664935    3.761926    0.762827
     34          1           0        2.184627    4.481924    0.107386
 ---------------------------------------------------------------------

 SCF Done:  E(RHF) =  -669.536538890     A.U. after   15 cycles
 E2 =    -0.2093358672D+01 EUMP2 =    -0.67162989756175D+03

 The electronic state is 1-A.
 Alpha  occ. eigenvalues --  -20.61039 -20.61029 -15.86021 -11.31317 -11.27875
 Alpha  occ. eigenvalues --  -11.27869 -11.27603 -11.26873 -11.26863 -11.21210
 Alpha  occ. eigenvalues --  -11.20810 -11.20680 -11.20326 -11.20249 -11.19097
 Alpha  occ. eigenvalues --   -1.60056  -1.39622  -1.19477  -1.08888  -1.07566
 Alpha  occ. eigenvalues --   -1.04870  -1.02570  -0.95739  -0.94984  -0.86273
 Alpha  occ. eigenvalues --   -0.85998  -0.82580  -0.78728  -0.77635  -0.77299
 Alpha  occ. eigenvalues --   -0.72264  -0.71330  -0.70590  -0.65139  -0.64875
 Alpha  occ. eigenvalues --   -0.64210  -0.62220  -0.59975  -0.58493  -0.56586
 Alpha  occ. eigenvalues --   -0.55375  -0.54261  -0.53197  -0.52964  -0.51723
 Alpha  occ. eigenvalues --   -0.51403  -0.49139  -0.49044  -0.48805  -0.46918
 Alpha  occ. eigenvalues --   -0.45795  -0.45376  -0.44740  -0.44299  -0.42838
 Alpha  occ. eigenvalues --   -0.37448  -0.36467
 Alpha virt. eigenvalues --    0.04857   0.11181   0.16320   0.21301   0.23616
 Alpha virt. eigenvalues --    0.25452   0.27198   0.27497   0.27855   0.28441
 Alpha virt. eigenvalues --    0.29211   0.30946   0.32184   0.32392   0.32631

 Mulliken charges:
               1
     1  C   -0.170387
     2  C   -0.218521
     3  C   -0.171119
     4  C    0.159255
     5  C   -0.170179
     6  C   -0.218414
     7  H    0.226110
     8  H    0.223860
     9  H    0.275515
    10  H    0.275572
    11  H    0.223913
    12  N    0.490723
    13  O   -0.458553
    14  O   -0.458516
    15  C   -0.304188
    16  C   -0.298868
    17  C   -0.482058
    18  H    0.158333
    19  H    0.148105
    20  H    0.146142
    21  H    0.145379
    22  H    0.173091
    23  H    0.167367
    24  H    0.148509
    25  C   -0.297011
    26  C   -0.298522
    27  C   -0.474774
    28  H    0.148053
    29  H    0.147211
    30  H    0.149610
    31  H    0.148298
    32  H    0.154674
    33  H    0.155226
    34  H    0.156165
 Sum of Mulliken charges =  -0.00000

 Dipole moment (field-independent basis, Debye):
    X=             -3.8853    Y=              3.5882    Z=             -0.5544  Tot=              5.3177
 Quadrupole moment (field-independent basis, Debye-Ang):
   XX=            -81.8176   YY=           -100.6948   ZZ=            -88.9878
   XY=             -6.4983   XZ=              1.5447   YZ=              1.7332

 Normal termination of Gaussian 16 at Wed May  5 19:10:53 2021.
