 Gaussian 16, Revision A.03,
 Gaussian 16:  EM64L-G16RevA.03 25-Dec-2016

 -------------
 #p 6-31g* mp2
 -------------

 ------------------------------------------------------
 Input file generated by CHIRIPA (05-May-2021 14:57:27)
 ------------------------------------------------------
 Symbolic Z-matrix:
 Charge =  0 Multiplicity = 1

                         Standard orientation:
 ---------------------------------------------------------------------
 Center     Atomic      Atomic             Coordinates (Angstroms)
 Number     Number       Type             X           Y           Z
 ---------------------------------------------------------------------
      1          6           0        4.269002   -1.963506    0.709278
      2          6           0        4.962995   -0.789877    1.021514
      3          6           0        4.493137    0.451199    0.581615
      4          6           0        3.320717    0.482018   -0.171890
      5          6           0        2.606846   -0.669711   -0.499302
      6          6           0        3.095211   -1.899789   -0.048797
      7          1           0        4.641187   -2.923332    1.055122
      8          1           0        5.874848   -0.836340    1.610080
      9          1           0        5.010613    1.375300    0.808936
     10          1           0        1.700734   -0.591562   -1.087751
     11          1           0        2.554173   -2.809617   -0.292793
     12          7           0        2.813503    1.790069   -0.643206
     13          8           0        1.778177    1.790345   -1.305578
     14          8           0        3.460878    2.790274   -0.341326
     15          6           0       -5.438809    1.138535    0.597006
     16          6           0       -5.466341    0.218515   -0.456239
     17          6           0       -4.344922   -0.565213   -0.743884
     18          6           0       -3.207625   -0.402263    0.045603
     19          6           0       -3.149230    0.505749    1.101726
     20          6           0       -4.282380    1.278968    1.371261
     21          1           0       -6.314510    1.743272    0.813422
     22          1           0       -6.363062    0.107322   -1.059208
     23          1           0       -4.338914   -1.285074   -1.553317
     24          1           0       -2.240831    0.594145    1.685177
     25          1           0       -4.258135    1.992670    2.189850
     26          7           0       -2.014219   -1.226398   -0.249328
     27          8           0       -1.024502   -1.063888    0.461086
     28          8           0       -2.091142   -2.019260   -1.185324
 ---------------------------------------------------------------------

 SCF Done:  E(RHF) =  -868.340160908     A.U. after   16 cycles
 E2 =    -0.2598409004D+01 EUMP2 =    -0.87093856991129D+03

 The electronic state is 1-A.
 Alpha  occ. eigenvalues --  -20.61063 -20.61053 -20.59968 -20.59951 -15.86079
 Alpha  occ. eigenvalues --  -15.85006 -11.31184 -11.30125 -11.27744 -11.27713
 Alpha  occ. eigenvalues --  -11.27449 -11.26789 -11.26710 -11.26682 -11.26532
 Alpha  occ. eigenvalues --  -11.26470 -11.25778 -11.25552  -1.60124  -1.59043
 Alpha  occ. eigenvalues --   -1.39681  -1.38600  -1.19339  -1.18305  -1.08790
 Alpha  occ. eigenvalues --   -1.07767  -1.04708  -1.03650  -0.95667  -0.94627
 Alpha  occ. eigenvalues --   -0.86121  -0.85081  -0.82509  -0.81453  -0.77579
 Alpha  occ. eigenvalues --   -0.76510  -0.72322  -0.71412  -0.71236  -0.70460
 Alpha  occ. eigenvalues --   -0.70359  -0.69433  -0.65003  -0.64720  -0.63961
 Alpha  occ. eigenvalues --   -0.63663  -0.62061  -0.60982  -0.55237  -0.54233
 Alpha  occ. eigenvalues --   -0.53044  -0.52805  -0.52028  -0.51741  -0.49084
 Alpha  occ. eigenvalues --   -0.49068  -0.47996  -0.47973  -0.45136  -0.44058
 Alpha  occ. eigenvalues --   -0.37308  -0.36330  -0.36293  -0.35225
 Alpha virt. eigenvalues --    0.04927   0.05994   0.11365   0.12404   0.16473
 Alpha virt. eigenvalues --    0.17506   0.21489   0.22508   0.27415   0.28318
 Alpha virt. eigenvalues --    0.28525   0.29384   0.31061   0.32005   0.32592

 Mulliken charges:
               1
     1  C   -0.171582
     2  C   -0.219957
     3  C   -0.172710
     4  C    0.154325
     5  C   -0.161908
     6  C   -0.218802
     7  H    0.222272
     8  H    0.218749
     9  H    0.271175
    10  H    0.285442
    11  H    0.229547
    12  N    0.488116
    13  O   -0.460880
    14  O   -0.465895
    15  C   -0.169741
    16  C   -0.218597
    17  C   -0.170142
    18  C    0.159016
    19  C   -0.167956
    20  C   -0.218304
    21  H    0.226208
    22  H    0.223551
    23  H    0.274886
    24  H    0.276765
    25  H    0.224701
    26  N    0.489796
    27  O   -0.465231
    28  O   -0.462845
 Sum of Mulliken charges =  -0.00000

 Dipole moment (field-independent basis, Debye):
    X=             -2.8233    Y=             -1.7971    Z=              2.6591  Tot=              4.2745
 Quadrupole moment (field-independent basis, Debye-Ang):
   XX=            -63.6434   YY=           -110.9418   ZZ=           -102.5484
   XY=            -19.7801   XZ=              5.4873   YZ=              4.6010

 Normal termination of Gaussian 16 at Thu May  6 06:51:38 2021.
