 Gaussian 16, Revision A.03,
 Gaussian 16:  EM64L-G16RevA.03 25-Dec-2016

 -------------
 #p 6-31g* mp2
 -------------

 ------------------------------------------------------
 Input file generated by CHIRIPA (05-May-2021 14:53:17)
 ------------------------------------------------------
 Symbolic Z-matrix:
 Charge =  0 Multiplicity = 1

                         Standard orientation:
 ---------------------------------------------------------------------
 Center     Atomic      Atomic             Coordinates (Angstroms)
 Number     Number       Type             X           Y           Z
 ---------------------------------------------------------------------
      1          6           0       -2.290882    1.065389   -0.222406
      2          6           0       -2.307704    2.159433    0.845662
      3          6           0       -1.290157    3.267578    0.572886
      4          1           0       -1.282476    0.633207   -0.279678
      5          1           0       -2.493500    1.517168   -1.203343
      6          1           0       -2.106485    1.705518    1.824481
      7          1           0       -3.316237    2.588930    0.900531
      8          1           0       -1.491773    3.747120   -0.390438
      9          1           0       -0.275147    2.858689    0.538762
     10          1           0       -1.319199    4.039122    1.348603
     11          6           0       -3.302687   -0.049511    0.036392
     12          6           0       -3.285865   -1.143556   -1.031676
     13          6           0       -4.303412   -2.251701   -0.758900
     14          1           0       -3.100070   -0.501290    1.017329
     15          1           0       -4.311093    0.382671    0.093664
     16          1           0       -2.277332   -1.573052   -1.086545
     17          1           0       -3.487084   -0.689641   -2.010496
     18          1           0       -5.318422   -1.842811   -0.724776
     19          1           0       -4.101797   -2.731242    0.204424
     20          1           0       -4.274370   -3.023244   -1.534617
     21          6           0        1.510121   -2.516587    1.263081
     22          6           0        1.245646   -1.272415    1.844982
     23          6           0        1.615104   -0.091387    1.194427
     24          6           0        2.250231   -0.191897   -0.042423
     25          6           0        2.527474   -1.416525   -0.647990
     26          6           0        2.149065   -2.584552    0.020642
     27          1           0        1.219641   -3.428988    1.775468
     28          1           0        0.749570   -1.216599    2.809781
     29          1           0        1.422480    0.885020    1.622147
     30          1           0        3.023419   -1.440204   -1.610745
     31          1           0        2.355730   -3.549407   -0.433657
     32          7           0        2.646099    1.051523   -0.740705
     33          8           0        3.204440    0.935989   -1.829532
     34          8           0        2.390542    2.118105   -0.185969
 ---------------------------------------------------------------------

 SCF Done:  E(RHF) =  -669.536165606     A.U. after   15 cycles
 E2 =    -0.2092896510D+01 EUMP2 =    -0.67162906211631D+03

 The electronic state is 1-A.
 Alpha  occ. eigenvalues --  -20.60964 -20.60958 -15.85989 -11.31347 -11.27915
 Alpha  occ. eigenvalues --  -11.27893 -11.27636 -11.26919 -11.26904 -11.21694
 Alpha  occ. eigenvalues --  -11.21443 -11.21434 -11.21254 -11.21249 -11.20480
 Alpha  occ. eigenvalues --   -1.60019  -1.39576  -1.19513  -1.08906  -1.08392
 Alpha  occ. eigenvalues --   -1.04910  -1.03446  -0.95870  -0.95741  -0.86874
 Alpha  occ. eigenvalues --   -0.86307  -0.82576  -0.79512  -0.78198  -0.77626
 Alpha  occ. eigenvalues --   -0.72213  -0.71331  -0.70612  -0.65166  -0.65056
 Alpha  occ. eigenvalues --   -0.64891  -0.62266  -0.60842  -0.59267  -0.57476
 Alpha  occ. eigenvalues --   -0.55408  -0.55158  -0.53243  -0.52995  -0.52554
 Alpha  occ. eigenvalues --   -0.52265  -0.49824  -0.48967  -0.48959  -0.47809
 Alpha  occ. eigenvalues --   -0.46572  -0.45748  -0.45690  -0.44865  -0.43704
 Alpha  occ. eigenvalues --   -0.37479  -0.36493
 Alpha virt. eigenvalues --    0.04857   0.11068   0.16341   0.20744   0.22837
 Alpha virt. eigenvalues --    0.24023   0.26337   0.27172   0.27377   0.27740
 Alpha virt. eigenvalues --    0.28762   0.30514   0.31464   0.31819   0.31935

 Mulliken charges:
               1
     1  C   -0.300080
     2  C   -0.299460
     3  C   -0.486332
     4  H    0.149068
     5  H    0.152308
     6  H    0.142609
     7  H    0.151322
     8  H    0.157782
     9  H    0.172392
    10  H    0.157530
    11  C   -0.296595
    12  C   -0.299923
    13  C   -0.475258
    14  H    0.144282
    15  H    0.150122
    16  H    0.151210
    17  H    0.153859
    18  H    0.156218
    19  H    0.151933
    20  H    0.159641
    21  C   -0.170691
    22  C   -0.219092
    23  C   -0.171768
    24  C    0.158232
    25  C   -0.170718
    26  C   -0.218458
    27  H    0.226385
    28  H    0.224431
    29  H    0.278312
    30  H    0.276175
    31  H    0.224227
    32  N    0.489085
    33  O   -0.458409
    34  O   -0.460339
 Sum of Mulliken charges =  -0.00000

 Dipole moment (field-independent basis, Debye):
    X=             -1.2049    Y=             -4.3651    Z=              2.3583  Tot=              5.1057
 Quadrupole moment (field-independent basis, Debye-Ang):
   XX=           -101.2136   YY=            -92.3967   ZZ=            -92.1934
   XY=            -11.8128   XZ=              4.6176   YZ=              1.5698

 Normal termination of Gaussian 16 at Thu May  6 20:32:42 2021.
