 Gaussian 16, Revision A.03,
 Gaussian 16:  EM64L-G16RevA.03 25-Dec-2016

 -------------
 #p 6-31g* mp2
 -------------

 ------------------------------------------------------
 Input file generated by CHIRIPA (05-May-2021 14:53:12)
 ------------------------------------------------------
 Symbolic Z-matrix:
 Charge =  0 Multiplicity = 1

                         Standard orientation:
 ---------------------------------------------------------------------
 Center     Atomic      Atomic             Coordinates (Angstroms)
 Number     Number       Type             X           Y           Z
 ---------------------------------------------------------------------
      1          6           0       -3.516370    0.468769    0.376764
      2          6           0       -4.774541    0.262729   -0.467356
      3          6           0       -5.541221    1.562648   -0.712724
      4          1           0       -3.797714    0.917470    1.339291
      5          1           0       -2.860543    1.193048   -0.125937
      6          1           0       -5.427169   -0.461991    0.036105
      7          1           0       -4.490190   -0.185711   -1.427910
      8          1           0       -4.910849    2.288751   -1.236179
      9          1           0       -5.853151    2.010901    0.236154
     10          1           0       -6.436941    1.392294   -1.318138
     11          6           0       -2.739153   -0.821655    0.630666
     12          6           0       -1.480982   -0.615615    1.474786
     13          6           0       -0.714301   -1.915534    1.720153
     14          1           0       -3.394979   -1.545934    1.133366
     15          1           0       -2.457809   -1.270356   -0.331861
     16          1           0       -1.765332   -0.167175    2.435339
     17          1           0       -0.828353    0.109105    0.971324
     18          1           0       -0.402371   -2.363787    0.771275
     19          1           0       -1.344673   -2.641637    2.243609
     20          1           0        0.181419   -1.745180    2.325567
     21          6           0        3.616808    2.089515    0.692940
     22          6           0        4.151108    0.801598    0.803911
     23          6           0        3.509551   -0.287189    0.206003
     24          6           0        2.330139   -0.050835   -0.498563
     25          6           0        1.772904    1.220500   -0.626970
     26          6           0        2.431500    2.294494   -0.020889
     27          1           0        4.121803    2.929564    1.160584
     28          1           0        5.071491    0.639436    1.357666
     29          1           0        3.901218   -1.294707    0.276169
     30          1           0        0.853920    1.350838   -1.185450
     31          1           0        2.014253    3.293611   -0.108720
     32          7           0        1.641931   -1.195654   -1.135868
     33          8           0        0.604133   -0.960988   -1.751129
     34          8           0        2.153342   -2.305951   -1.008060
 ---------------------------------------------------------------------

 SCF Done:  E(RHF) =  -669.536390259     A.U. after   15 cycles
 E2 =    -0.2093215156D+01 EUMP2 =    -0.67162960541432D+03

 The electronic state is 1-A.
 Alpha  occ. eigenvalues --  -20.60973 -20.60963 -15.85984 -11.31305 -11.27867
 Alpha  occ. eigenvalues --  -11.27853 -11.27591 -11.26867 -11.26857 -11.21180
 Alpha  occ. eigenvalues --  -11.21043 -11.20949 -11.20789 -11.20655 -11.20348
 Alpha  occ. eigenvalues --   -1.60024  -1.39579  -1.19468  -1.08871  -1.07893
 Alpha  occ. eigenvalues --   -1.04863  -1.03027  -0.95716  -0.95472  -0.86486
 Alpha  occ. eigenvalues --   -0.86262  -0.82552  -0.79103  -0.77708  -0.77603
 Alpha  occ. eigenvalues --   -0.72211  -0.71373  -0.70575  -0.65126  -0.64866
 Alpha  occ. eigenvalues --   -0.64494  -0.62212  -0.60401  -0.58856  -0.57093
 Alpha  occ. eigenvalues --   -0.55367  -0.54734  -0.53191  -0.52953  -0.52187
 Alpha  occ. eigenvalues --   -0.51887  -0.49423  -0.48974  -0.48950  -0.47417
 Alpha  occ. eigenvalues --   -0.46140  -0.45307  -0.45122  -0.44923  -0.43270
 Alpha  occ. eigenvalues --   -0.37426  -0.36445
 Alpha virt. eigenvalues --    0.04863   0.11098   0.16362   0.21090   0.23189
 Alpha virt. eigenvalues --    0.24652   0.26243   0.27443   0.28007   0.28273
 Alpha virt. eigenvalues --    0.28857   0.30969   0.31724   0.32137   0.32321

 Mulliken charges:
               1
     1  C   -0.296269
     2  C   -0.300039
     3  C   -0.475167
     4  H    0.146107
     5  H    0.144397
     6  H    0.151586
     7  H    0.155896
     8  H    0.153023
     9  H    0.153381
    10  H    0.159829
    11  C   -0.301760
    12  C   -0.297985
    13  C   -0.486716
    14  H    0.147099
    15  H    0.165773
    16  H    0.146569
    17  H    0.146000
    18  H    0.173945
    19  H    0.154442
    20  H    0.153702
    21  C   -0.170433
    22  C   -0.218459
    23  C   -0.170902
    24  C    0.160821
    25  C   -0.171114
    26  C   -0.218797
    27  H    0.226150
    28  H    0.223959
    29  H    0.276127
    30  H    0.275576
    31  H    0.224166
    32  N    0.489183
    33  O   -0.461540
    34  O   -0.458550
 Sum of Mulliken charges =  -0.00000

 Dipole moment (field-independent basis, Debye):
    X=              2.5878    Y=              3.9107    Z=              2.0895  Tot=              5.1338
 Quadrupole moment (field-independent basis, Debye-Ang):
   XX=            -81.5040   YY=            -94.1700   ZZ=            -96.8592
   XY=              7.9636   XZ=              5.1937   YZ=             -3.0719

 Normal termination of Gaussian 16 at Thu May  6 10:25:09 2021.
