 Gaussian 16, Revision A.03,
 Gaussian 16:  EM64L-G16RevA.03 25-Dec-2016

 -------------
 #p 6-31g* mp2
 -------------

 ------------------------------------------------------
 Input file generated by CHIRIPA (05-May-2021 14:57:22)
 ------------------------------------------------------
 Symbolic Z-matrix:
 Charge =  0 Multiplicity = 1

                         Standard orientation:
 ---------------------------------------------------------------------
 Center     Atomic      Atomic             Coordinates (Angstroms)
 Number     Number       Type             X           Y           Z
 ---------------------------------------------------------------------
      1          6           0       -1.525912    0.018547    1.406794
      2          6           0       -2.664062    0.652606    1.915817
      3          6           0       -3.884611    0.571432    1.238898
      4          6           0       -3.931304   -0.155415    0.050285
      5          6           0       -2.814854   -0.798142   -0.482381
      6          6           0       -1.604801   -0.703530    0.211427
      7          1           0       -0.581837    0.086825    1.939200
      8          1           0       -2.605747    1.214067    2.843936
      9          1           0       -4.781186    1.052594    1.610455
     10          1           0       -2.904081   -1.350599   -1.409876
     11          1           0       -0.722519   -1.196965   -0.186247
     12          7           0       -5.217888   -0.248463   -0.675279
     13          8           0       -5.232771   -0.894925   -1.720507
     14          8           0       -6.187069    0.326829   -0.185008
     15          6           0        5.073616   -1.945963    0.254474
     16          6           0        3.676539   -2.010852    0.232383
     17          6           0        2.915990   -0.861384   -0.001790
     18          6           0        3.588324    0.341750   -0.210890
     19          6           0        4.978881    0.438647   -0.194960
     20          6           0        5.719190   -0.723576    0.041110
     21          1           0        5.656567   -2.843852    0.437123
     22          1           0        3.172484   -2.958808    0.397764
     23          1           0        1.833198   -0.883165   -0.024258
     24          1           0        5.452956    1.398002   -0.363212
     25          1           0        6.804049   -0.670201    0.057703
     26          7           0        2.793880    1.565392   -0.459802
     27          8           0        3.410178    2.613211   -0.641155
     28          8           0        1.569937    1.453494   -0.468834
 ---------------------------------------------------------------------

 SCF Done:  E(RHF) =  -868.337344831     A.U. after   16 cycles
 E2 =    -0.2600011870D+01 EUMP2 =    -0.87093735670067D+03

 The electronic state is 1-A.
 Alpha  occ. eigenvalues --  -20.61624 -20.61587 -20.60389 -20.60384 -15.86652
 Alpha  occ. eigenvalues --  -15.85444 -11.32044 -11.30733 -11.28714 -11.28531
 Alpha  occ. eigenvalues --  -11.28271 -11.27631 -11.27541 -11.27343 -11.27309
 Alpha  occ. eigenvalues --  -11.27042 -11.26398 -11.26280  -1.60676  -1.59466
 Alpha  occ. eigenvalues --   -1.40234  -1.39022  -1.20195  -1.18910  -1.09570
 Alpha  occ. eigenvalues --   -1.08312  -1.05608  -1.04325  -0.96414  -0.95158
 Alpha  occ. eigenvalues --   -0.87001  -0.85734  -0.83248  -0.82009  -0.78321
 Alpha  occ. eigenvalues --   -0.77072  -0.72867  -0.72000  -0.71667  -0.71301
 Alpha  occ. eigenvalues --   -0.70786  -0.70013  -0.65844  -0.65619  -0.64577
 Alpha  occ. eigenvalues --   -0.64384  -0.62965  -0.61687  -0.56066  -0.54815
 Alpha  occ. eigenvalues --   -0.53918  -0.53707  -0.52614  -0.52437  -0.49638
 Alpha  occ. eigenvalues --   -0.49614  -0.48422  -0.48419  -0.45632  -0.44446
 Alpha  occ. eigenvalues --   -0.38142  -0.37207  -0.36833  -0.35910
 Alpha virt. eigenvalues --    0.04215   0.05502   0.10433   0.11726   0.15738
 Alpha virt. eigenvalues --    0.17022   0.18579   0.21952   0.25032   0.27036
 Alpha virt. eigenvalues --    0.28392   0.28943   0.30648   0.30962   0.32074

 Mulliken charges:
               1
     1  C   -0.161885
     2  C   -0.218876
     3  C   -0.170488
     4  C    0.158334
     5  C   -0.171017
     6  C   -0.211966
     7  H    0.224408
     8  H    0.223002
     9  H    0.274661
    10  H    0.274058
    11  H    0.214355
    12  N    0.488152
    13  O   -0.461811
    14  O   -0.461274
    15  C   -0.170148
    16  C   -0.220172
    17  C   -0.177225
    18  C    0.158258
    19  C   -0.169381
    20  C   -0.218086
    21  H    0.228644
    22  H    0.224279
    23  H    0.272889
    24  H    0.278096
    25  H    0.226663
    26  N    0.487341
    27  O   -0.455414
    28  O   -0.465399
 Sum of Mulliken charges =  -0.00000

 Dipole moment (field-independent basis, Debye):
    X=              7.6698    Y=             -3.8608    Z=              3.4508  Tot=              9.2541
 Quadrupole moment (field-independent basis, Debye-Ang):
   XX=           -115.3618   YY=           -105.7480   ZZ=           -103.6832
   XY=            -15.7740   XZ=             -9.5299   YZ=              2.8676

 Normal termination of Gaussian 16 at Thu May  6 12:55:07 2021.
