 Gaussian 16, Revision A.03,
 Gaussian 16:  EM64L-G16RevA.03 25-Dec-2016

 -------------
 #p 6-31g* mp2
 -------------

 ------------------------------------------------------
 Input file generated by CHIRIPA (05-May-2021 14:55:25)
 ------------------------------------------------------
 Symbolic Z-matrix:
 Charge =  0 Multiplicity = 1

                         Standard orientation:
 ---------------------------------------------------------------------
 Center     Atomic      Atomic             Coordinates (Angstroms)
 Number     Number       Type             X           Y           Z
 ---------------------------------------------------------------------
      1          6           0        4.208691    2.361152    0.146686
      2          6           0        5.041424    1.275934    0.438884
      3          6           0        4.589701   -0.034649    0.257597
      4          6           0        3.293744   -0.224373   -0.219677
      5          6           0        2.440215    0.836149   -0.519793
      6          6           0        2.913028    2.138189   -0.330878
      7          1           0        4.567792    3.375926    0.290477
      8          1           0        6.048120    1.446092    0.809902
      9          1           0        5.213325   -0.893059    0.475872
     10          1           0        1.441619    0.634933   -0.888215
     11          1           0        2.264111    2.979068   -0.558635
     12          7           0        2.804362   -1.607307   -0.415635
     13          8           0        1.658462   -1.747779   -0.837318
     14          8           0        3.575951   -2.524592   -0.143833
     15          6           0       -5.071051   -0.109623    0.324461
     16          6           0       -5.911391    0.698490   -0.664867
     17          6           0       -7.413387    0.477681   -0.483077
     18          1           0       -5.303104   -1.176962    0.206637
     19          1           0       -5.361211    0.162106    1.348846
     20          1           0       -5.618766    0.426327   -1.687077
     21          1           0       -5.677169    1.764014   -0.544806
     22          1           0       -7.726070    0.767308    0.525360
     23          1           0       -7.667334   -0.577980   -0.623401
     24          1           0       -7.995205    1.064837   -1.200430
     25          6           0       -3.567414    0.100533    0.155233
     26          6           0       -2.727074   -0.707580    1.144560
     27          6           0       -1.225079   -0.486771    0.962771
     28          1           0       -3.277254   -0.171196   -0.869153
     29          1           0       -3.335360    1.167871    0.273056
     30          1           0       -2.961296   -1.773104    1.024500
     31          1           0       -3.019699   -0.435418    2.166771
     32          1           0       -0.971130    0.568890    1.103095
     33          1           0       -0.912395   -0.776397   -0.045666
     34          1           0       -0.643259   -1.073927    1.680124
 ---------------------------------------------------------------------

 SCF Done:  E(RHF) =  -669.535890703     A.U. after   15 cycles
 E2 =    -0.2091372883D+01 EUMP2 =    -0.67162726358538D+03

 The electronic state is 1-A.
 Alpha  occ. eigenvalues --  -20.60812 -20.60802 -15.85847 -11.31173 -11.27751
 Alpha  occ. eigenvalues --  -11.27724 -11.27494 -11.26762 -11.26747 -11.21449
 Alpha  occ. eigenvalues --  -11.21194 -11.21165 -11.21096 -11.20936 -11.20486
 Alpha  occ. eigenvalues --   -1.59874  -1.39430  -1.19349  -1.08754  -1.08166
 Alpha  occ. eigenvalues --   -1.04748  -1.03227  -0.95695  -0.95573  -0.86695
 Alpha  occ. eigenvalues --   -0.86146  -0.82431  -0.79309  -0.77996  -0.77465
 Alpha  occ. eigenvalues --   -0.72079  -0.71187  -0.70462  -0.65011  -0.64792
 Alpha  occ. eigenvalues --   -0.64753  -0.62099  -0.60613  -0.59049  -0.57289
 Alpha  occ. eigenvalues --   -0.55259  -0.54952  -0.53079  -0.52860  -0.52346
 Alpha  occ. eigenvalues --   -0.52093  -0.49641  -0.48828  -0.48806  -0.47608
 Alpha  occ. eigenvalues --   -0.46334  -0.45535  -0.45454  -0.44788  -0.43474
 Alpha  occ. eigenvalues --   -0.37333  -0.36345
 Alpha virt. eigenvalues --    0.05032   0.11280   0.16525   0.21201   0.23137
 Alpha virt. eigenvalues --    0.24481   0.26370   0.26895   0.27709   0.27859
 Alpha virt. eigenvalues --    0.29252   0.30590   0.31677   0.31815   0.32353

 Mulliken charges:
               1
     1  C   -0.170519
     2  C   -0.218760
     3  C   -0.170864
     4  C    0.157282
     5  C   -0.169847
     6  C   -0.219762
     7  H    0.225503
     8  H    0.223325
     9  H    0.275425
    10  H    0.279109
    11  H    0.223573
    12  N    0.489919
    13  O   -0.461939
    14  O   -0.460206
    15  C   -0.298023
    16  C   -0.299405
    17  C   -0.475572
    18  H    0.151096
    19  H    0.148706
    20  H    0.152159
    21  H    0.150026
    22  H    0.154705
    23  H    0.155868
    24  H    0.159413
    25  C   -0.298354
    26  C   -0.299887
    27  C   -0.482137
    28  H    0.150597
    29  H    0.145028
    30  H    0.155494
    31  H    0.148944
    32  H    0.141972
    33  H    0.173751
    34  H    0.163380
 Sum of Mulliken charges =  -0.00000

 Dipole moment (field-independent basis, Debye):
    X=              1.8163    Y=              4.7481    Z=              0.6397  Tot=              5.1237
 Quadrupole moment (field-independent basis, Debye-Ang):
   XX=            -81.2674   YY=            -96.1996   ZZ=            -95.0511
   XY=             14.2744   XZ=              3.6700   YZ=             -1.4041

 Normal termination of Gaussian 16 at Thu May  6 03:14:36 2021.
