 Gaussian 16, Revision A.03,
 Gaussian 16:  EM64L-G16RevA.03 25-Dec-2016

 -------------
 #p 6-31g* mp2
 -------------

 ------------------------------------------------------
 Input file generated by CHIRIPA (05-May-2021 14:57:26)
 ------------------------------------------------------
 Symbolic Z-matrix:
 Charge =  0 Multiplicity = 1

                         Standard orientation:
 ---------------------------------------------------------------------
 Center     Atomic      Atomic             Coordinates (Angstroms)
 Number     Number       Type             X           Y           Z
 ---------------------------------------------------------------------
      1          6           0        3.910422    2.010705    0.107342
      2          6           0        2.999176    1.607051    1.088777
      3          6           0        2.417911    0.336560    1.038461
      4          6           0        2.772174   -0.508505   -0.012087
      5          6           0        3.676845   -0.135391   -1.004885
      6          6           0        4.245757    1.139731   -0.934520
      7          1           0        4.357165    2.999451    0.154216
      8          1           0        2.736886    2.281361    1.899058
      9          1           0        1.709607   -0.001573    1.785047
     10          1           0        3.918660   -0.829706   -1.800416
     11          1           0        4.953144    1.450526   -1.698100
     12          7           0        2.163354   -1.855968   -0.075966
     13          8           0        2.492049   -2.581788   -1.011799
     14          8           0        1.368993   -2.160775    0.811007
     15          6           0       -2.338493    2.745722   -0.179020
     16          6           0       -3.515447    2.241773   -0.742347
     17          6           0       -3.821535    0.880881   -0.648369
     18          6           0       -2.924143    0.048672    0.019017
     19          6           0       -1.743556    0.520637    0.590640
     20          6           0       -1.457857    1.885064    0.484505
     21          1           0       -2.108635    3.804269   -0.256746
     22          1           0       -4.201209    2.907833   -1.258232
     23          1           0       -4.725670    0.464154   -1.075330
     24          1           0       -1.079438   -0.167968    1.098762
     25          1           0       -0.543084    2.273650    0.922952
     26          7           0       -3.237392   -1.393915    0.124942
     27          8           0       -2.430339   -2.106288    0.718091
     28          8           0       -4.284038   -1.784925   -0.387191
 ---------------------------------------------------------------------

 SCF Done:  E(RHF) =  -868.335995622     A.U. after   16 cycles
 E2 =    -0.2601762344D+01 EUMP2 =    -0.87093775796640D+03

 The electronic state is 1-A.
 Alpha  occ. eigenvalues --  -20.60958 -20.60931 -20.60185 -20.60107 -15.85987
 Alpha  occ. eigenvalues --  -15.85208 -11.31657 -11.30874 -11.28342 -11.28202
 Alpha  occ. eigenvalues --  -11.28024 -11.27497 -11.27454 -11.27398 -11.27340
 Alpha  occ. eigenvalues --  -11.27269 -11.26624 -11.26578  -1.59999  -1.59228
 Alpha  occ. eigenvalues --   -1.39549  -1.38765  -1.19854  -1.19092  -1.09181
 Alpha  occ. eigenvalues --   -1.08440  -1.05312  -1.04546  -0.95968  -0.95216
 Alpha  occ. eigenvalues --   -0.86687  -0.85928  -0.82802  -0.82047  -0.77824
 Alpha  occ. eigenvalues --   -0.77020  -0.72187  -0.71431  -0.71313  -0.70952
 Alpha  occ. eigenvalues --   -0.70563  -0.70201  -0.65502  -0.65313  -0.64742
 Alpha  occ. eigenvalues --   -0.64564  -0.62689  -0.61852  -0.55772  -0.55060
 Alpha  occ. eigenvalues --   -0.53611  -0.53403  -0.52853  -0.52639  -0.48966
 Alpha  occ. eigenvalues --   -0.48944  -0.48220  -0.48149  -0.44874  -0.44097
 Alpha  occ. eigenvalues --   -0.37826  -0.37108  -0.36942  -0.36137
 Alpha virt. eigenvalues --    0.04667   0.05518   0.10660   0.11494   0.16052
 Alpha virt. eigenvalues --    0.16934   0.19709   0.22018   0.25314   0.26846
 Alpha virt. eigenvalues --    0.27996   0.29062   0.30057   0.31505   0.31744

 Mulliken charges:
               1
     1  C   -0.171229
     2  C   -0.222078
     3  C   -0.176761
     4  C    0.161307
     5  C   -0.169714
     6  C   -0.217732
     7  H    0.226213
     8  H    0.221156
     9  H    0.273232
    10  H    0.278521
    11  H    0.225482
    12  N    0.487862
    13  O   -0.456268
    14  O   -0.454671
    15  C   -0.171478
    16  C   -0.218869
    17  C   -0.170481
    18  C    0.158201
    19  C   -0.177982
    20  C   -0.218397
    21  H    0.222098
    22  H    0.222090
    23  H    0.275744
    24  H    0.285559
    25  H    0.214298
    26  N    0.486371
    27  O   -0.448414
    28  O   -0.464062
 Sum of Mulliken charges =  -0.00000

 Dipole moment (field-independent basis, Debye):
    X=              3.4323    Y=              9.4562    Z=             -0.2444  Tot=             10.0628
 Quadrupole moment (field-independent basis, Debye-Ang):
   XX=            -94.9157   YY=           -110.1114   ZZ=           -100.9831
   XY=             -3.8632   XZ=              1.3169   YZ=              0.1797

 Normal termination of Gaussian 16 at Fri May  7 11:13:30 2021.
