 Gaussian 16, Revision A.03,
 Gaussian 16:  EM64L-G16RevA.03 25-Dec-2016

 -------------
 #p 6-31g* mp2
 -------------

 ------------------------------------------------------
 Input file generated by CHIRIPA (05-May-2021 14:57:26)
 ------------------------------------------------------
 Symbolic Z-matrix:
 Charge =  0 Multiplicity = 1

                         Standard orientation:
 ---------------------------------------------------------------------
 Center     Atomic      Atomic             Coordinates (Angstroms)
 Number     Number       Type             X           Y           Z
 ---------------------------------------------------------------------
      1          6           0       -1.816492    2.431315   -0.332439
      2          6           0       -1.204902    1.174224   -0.379361
      3          6           0       -1.967470    0.008695   -0.258617
      4          6           0       -3.345390    0.137709   -0.091339
      5          6           0       -3.984002    1.375810   -0.040646
      6          6           0       -3.201648    2.527925   -0.163529
      7          1           0       -1.216426    3.331516   -0.427066
      8          1           0       -0.129371    1.096166   -0.510445
      9          1           0       -1.519825   -0.977182   -0.291464
     10          1           0       -5.058236    1.421697    0.091010
     11          1           0       -3.679324    3.502870   -0.126724
     12          7           0       -4.163160   -1.089085    0.037619
     13          8           0       -5.375344   -0.948470    0.184159
     14          8           0       -3.576459   -2.168031   -0.010286
     15          6           0        1.671256   -2.337400    0.191954
     16          6           0        1.328197   -1.161978    0.868130
     17          6           0        2.173500   -0.049036    0.831076
     18          6           0        3.359431   -0.146787    0.104920
     19          6           0        3.729035   -1.303824   -0.579149
     20          6           0        2.868470   -2.404453   -0.528258
     21          1           0        1.008676   -3.197177    0.226112
     22          1           0        0.399061   -1.107041    1.428249
     23          1           0        1.932449    0.873349    1.345390
     24          1           0        4.661951   -1.328429   -1.129132
     25          1           0        3.137466   -3.316001   -1.054344
     26          7           0        4.262394    1.024916    0.058370
     27          8           0        5.301539    0.913335   -0.588441
     28          8           0        3.913894    2.032692    0.669575
 ---------------------------------------------------------------------

 SCF Done:  E(RHF) =  -868.337630049     A.U. after   16 cycles
 E2 =    -0.2602202554D+01 EUMP2 =    -0.87093983260203D+03

 The electronic state is 1-A.
 Alpha  occ. eigenvalues --  -20.61491 -20.61467 -20.61315 -20.61282 -15.86538
 Alpha  occ. eigenvalues --  -15.86351 -11.31979 -11.31652 -11.28563 -11.28472
 Alpha  occ. eigenvalues --  -11.28217 -11.28175 -11.28163 -11.27832 -11.27518
 Alpha  occ. eigenvalues --  -11.27456 -11.27145 -11.27087  -1.60558  -1.60375
 Alpha  occ. eigenvalues --   -1.40109  -1.39933  -1.20145  -1.19793  -1.09495
 Alpha  occ. eigenvalues --   -1.09183  -1.05595  -1.05147  -0.96324  -0.96040
 Alpha  occ. eigenvalues --   -0.86939  -0.86563  -0.83194  -0.82839  -0.78286
 Alpha  occ. eigenvalues --   -0.77884  -0.72748  -0.72569  -0.71889  -0.71697
 Alpha  occ. eigenvalues --   -0.71172  -0.70877  -0.65805  -0.65637  -0.65383
 Alpha  occ. eigenvalues --   -0.65060  -0.63059  -0.62356  -0.55945  -0.55643
 Alpha  occ. eigenvalues --   -0.53925  -0.53711  -0.53423  -0.53123  -0.49513
 Alpha  occ. eigenvalues --   -0.49500  -0.49336  -0.49308  -0.45499  -0.45353
 Alpha  occ. eigenvalues --   -0.38090  -0.37751  -0.37260  -0.36666
 Alpha virt. eigenvalues --    0.04249   0.04571   0.10261   0.10853   0.15629
 Alpha virt. eigenvalues --    0.16145   0.20198   0.21878   0.26055   0.26765
 Alpha virt. eigenvalues --    0.27950   0.28907   0.30438   0.30778   0.31396

 Mulliken charges:
               1
     1  C   -0.171889
     2  C   -0.226408
     3  C   -0.180304
     4  C    0.160271
     5  C   -0.170935
     6  C   -0.217898
     7  H    0.231442
     8  H    0.232299
     9  H    0.268912
    10  H    0.276718
    11  H    0.225999
    12  N    0.488615
    13  O   -0.457512
    14  O   -0.465371
    15  C   -0.173858
    16  C   -0.227429
    17  C   -0.183686
    18  C    0.159569
    19  C   -0.170207
    20  C   -0.217289
    21  H    0.235462
    22  H    0.231563
    23  H    0.276054
    24  H    0.278326
    25  H    0.228320
    26  N    0.488188
    27  O   -0.456908
    28  O   -0.462042
 Sum of Mulliken charges =  -0.00000

 Dipole moment (field-independent basis, Debye):
    X=             -0.1476    Y=              0.1652    Z=             -0.3389  Tot=              0.4049
 Quadrupole moment (field-independent basis, Debye-Ang):
   XX=           -139.7036   YY=            -99.5760   ZZ=           -104.3565
   XY=            -32.9698   XZ=             -1.1403   YZ=              1.0157

 Normal termination of Gaussian 16 at Thu May  6 06:49:01 2021.
