 Gaussian 16, Revision A.03,
 Gaussian 16:  EM64L-G16RevA.03 25-Dec-2016

 -------------
 #p 6-31g* mp2
 -------------

 ------------------------------------------------------
 Input file generated by CHIRIPA (05-May-2021 14:55:23)
 ------------------------------------------------------
 Symbolic Z-matrix:
 Charge =  0 Multiplicity = 1

                         Standard orientation:
 ---------------------------------------------------------------------
 Center     Atomic      Atomic             Coordinates (Angstroms)
 Number     Number       Type             X           Y           Z
 ---------------------------------------------------------------------
      1          6           0        1.457683   -0.696315    0.907752
      2          6           0        1.742621    0.555449    0.352400
      3          6           0        3.016829    0.835963   -0.149849
      4          6           0        3.986627   -0.163011   -0.080337
      5          6           0        3.733538   -1.419868    0.466972
      6          6           0        2.452298   -1.678248    0.963168
      7          1           0        0.465116   -0.905628    1.295561
      8          1           0        0.972147    1.319941    0.308040
      9          1           0        3.264597    1.796485   -0.585082
     10          1           0        4.522208   -2.161826    0.497255
     11          1           0        2.233861   -2.651281    1.393908
     12          7           0        5.339296    0.122240   -0.608842
     13          8           0        6.176278   -0.774849   -0.535836
     14          8           0        5.536924    1.237507   -1.086083
     15          6           0       -5.527576    0.271993   -0.290170
     16          6           0       -6.148587   -1.122063   -0.384717
     17          6           0       -7.569172   -1.099311   -0.949708
     18          1           0       -6.164186    0.908067    0.339975
     19          1           0       -5.518707    0.730325   -1.288793
     20          1           0       -6.155019   -1.578176    0.613549
     21          1           0       -5.510325   -1.754948   -1.014555
     22          1           0       -7.576629   -0.668446   -1.956138
     23          1           0       -8.224986   -0.490670   -0.318784
     24          1           0       -7.993979   -2.106253   -1.008593
     25          6           0       -4.107472    0.265669    0.272847
     26          6           0       -3.486460    1.659725    0.367395
     27          6           0       -2.065875    1.636973    0.932385
     28          1           0       -4.116341   -0.192663    1.271470
     29          1           0       -3.470862   -0.370405   -0.357299
     30          1           0       -4.124722    2.292610    0.997232
     31          1           0       -3.480029    2.115838   -0.630872
     32          1           0       -1.410062    1.028332    0.301460
     33          1           0       -2.058418    1.206108    1.938814
     34          1           0       -1.641069    2.643915    0.991271
 ---------------------------------------------------------------------

 SCF Done:  E(RHF) =  -669.535532650     A.U. after   15 cycles
 E2 =    -0.2091197254D+01 EUMP2 =    -0.67162672990461D+03

 The electronic state is 1-A.
 Alpha  occ. eigenvalues --  -20.60700 -20.60695 -15.85752 -11.31099 -11.27669
 Alpha  occ. eigenvalues --  -11.27650 -11.27377 -11.26679 -11.26603 -11.22588
 Alpha  occ. eigenvalues --  -11.22432 -11.22243 -11.22174 -11.22034 -11.21535
 Alpha  occ. eigenvalues --   -1.59776  -1.39330  -1.19264  -1.09223  -1.08661
 Alpha  occ. eigenvalues --   -1.04666  -1.04355  -0.96840  -0.95500  -0.87874
 Alpha  occ. eigenvalues --   -0.86058  -0.82332  -0.80442  -0.78998  -0.77385
 Alpha  occ. eigenvalues --   -0.71971  -0.71099  -0.70370  -0.65857  -0.64915
 Alpha  occ. eigenvalues --   -0.64688  -0.62085  -0.61684  -0.60221  -0.58414
 Alpha  occ. eigenvalues --   -0.56134  -0.55154  -0.53565  -0.53281  -0.52994
 Alpha  occ. eigenvalues --   -0.52704  -0.50757  -0.48769  -0.48727  -0.48697
 Alpha  occ. eigenvalues --   -0.47438  -0.46550  -0.46440  -0.44740  -0.44591
 Alpha  occ. eigenvalues --   -0.37243  -0.36268
 Alpha virt. eigenvalues --    0.05143   0.11332   0.16644   0.20223   0.22296
 Alpha virt. eigenvalues --    0.23753   0.25605   0.26008   0.26646   0.27774
 Alpha virt. eigenvalues --    0.29402   0.30040   0.30600   0.31533   0.31550

 Mulliken charges:
               1
     1  C   -0.173637
     2  C   -0.224128
     3  C   -0.171694
     4  C    0.158690
     5  C   -0.171358
     6  C   -0.218586
     7  H    0.227192
     8  H    0.231620
     9  H    0.275370
    10  H    0.275207
    11  H    0.222973
    12  N    0.488011
    13  O   -0.460713
    14  O   -0.460649
    15  C   -0.298916
    16  C   -0.300205
    17  C   -0.476142
    18  H    0.151319
    19  H    0.151357
    20  H    0.151942
    21  H    0.152191
    22  H    0.156275
    23  H    0.156051
    24  H    0.161684
    25  C   -0.299607
    26  C   -0.299236
    27  C   -0.484563
    28  H    0.149047
    29  H    0.148889
    30  H    0.156269
    31  H    0.155470
    32  H    0.149895
    33  H    0.156799
    34  H    0.163183
 Sum of Mulliken charges =  -0.00000

 Dipole moment (field-independent basis, Debye):
    X=             -5.0536    Y=             -0.9598    Z=              1.8564  Tot=              5.4687
 Quadrupole moment (field-independent basis, Debye-Ang):
   XX=           -133.0054   YY=            -90.1530   ZZ=            -94.7883
   XY=             -5.1482   XZ=              7.5713   YZ=             -1.5418

 Normal termination of Gaussian 16 at Wed May  5 16:01:17 2021.
