 Gaussian 16, Revision A.03,
 Gaussian 16:  EM64L-G16RevA.03 25-Dec-2016

 -------------
 #p 6-31g* mp2
 -------------

 ------------------------------------------------------
 Input file generated by CHIRIPA (05-May-2021 14:53:11)
 ------------------------------------------------------
 Symbolic Z-matrix:
 Charge =  0 Multiplicity = 1

                         Standard orientation:
 ---------------------------------------------------------------------
 Center     Atomic      Atomic             Coordinates (Angstroms)
 Number     Number       Type             X           Y           Z
 ---------------------------------------------------------------------
      1          6           0        3.507721    1.230771    0.305608
      2          6           0        2.464952    1.919904   -0.575138
      3          6           0        2.040166    3.284194   -0.031018
      4          1           0        3.101544    1.112460    1.319495
      5          1           0        4.388814    1.881108    0.395786
      6          1           0        1.586646    1.267859   -0.664759
      7          1           0        2.873586    2.036416   -1.587096
      8          1           0        2.902168    3.955171    0.042087
      9          1           0        1.607915    3.182247    0.969665
     10          1           0        1.294298    3.759122   -0.675987
     11          6           0        3.942387   -0.134142   -0.225245
     12          6           0        4.985156   -0.823275    0.655500
     13          6           0        5.409941   -2.187564    0.111381
     14          1           0        3.061294   -0.784479   -0.315424
     15          1           0        4.348564   -0.015831   -1.239133
     16          1           0        4.576522   -0.939787    1.667458
     17          1           0        5.863462   -0.171230    0.745121
     18          1           0        5.842192   -2.085618   -0.889302
     19          1           0        4.547940   -2.858542    0.038275
     20          1           0        6.155809   -2.662493    0.756349
     21          6           0       -1.222596   -2.274240   -0.364089
     22          6           0       -0.830193   -0.937029   -0.484137
     23          6           0       -1.756741    0.093914   -0.301898
     24          6           0       -3.073349   -0.249918    0.000772
     25          6           0       -3.495015   -1.572625    0.127012
     26          6           0       -2.551411   -2.587218   -0.059435
     27          1           0       -0.496207   -3.068751   -0.507291
     28          1           0        0.201105   -0.691007   -0.720656
     29          1           0       -1.480048    1.137598   -0.388983
     30          1           0       -4.530201   -1.786681    0.363627
     31          1           0       -2.858996   -3.624825    0.034409
     32          7           0       -4.063272    0.832840    0.195928
     33          8           0       -5.217181    0.503588    0.461870
     34          8           0       -3.666521    1.990256    0.079253
 ---------------------------------------------------------------------

 SCF Done:  E(RHF) =  -669.535382141     A.U. after   15 cycles
 E2 =    -0.2091672689D+01 EUMP2 =    -0.67162705483014D+03

 The electronic state is 1-A.
 Alpha  occ. eigenvalues --  -20.60743 -20.60738 -15.85796 -11.31162 -11.27733
 Alpha  occ. eigenvalues --  -11.27721 -11.27476 -11.26750 -11.26717 -11.22468
 Alpha  occ. eigenvalues --  -11.22300 -11.22235 -11.22108 -11.21732 -11.21601
 Alpha  occ. eigenvalues --   -1.59819  -1.39372  -1.19335  -1.09205  -1.08730
 Alpha  occ. eigenvalues --   -1.04741  -1.04239  -0.96661  -0.95565  -0.87672
 Alpha  occ. eigenvalues --   -0.86139  -0.82404  -0.80314  -0.79040  -0.77442
 Alpha  occ. eigenvalues --   -0.72015  -0.71142  -0.70446  -0.65888  -0.64987
 Alpha  occ. eigenvalues --   -0.64725  -0.62161  -0.61569  -0.60025  -0.58280
 Alpha  occ. eigenvalues --   -0.55946  -0.55243  -0.53336  -0.53081  -0.53068
 Alpha  occ. eigenvalues --   -0.52843  -0.50599  -0.48781  -0.48769  -0.48612
 Alpha  occ. eigenvalues --   -0.47358  -0.46554  -0.46478  -0.44777  -0.44501
 Alpha  occ. eigenvalues --   -0.37318  -0.36341
 Alpha virt. eigenvalues --    0.05089   0.11302   0.16565   0.18661   0.22773
 Alpha virt. eigenvalues --    0.23263   0.24455   0.26306   0.26540   0.28229
 Alpha virt. eigenvalues --    0.29366   0.30564   0.31122   0.31401   0.32145

 Mulliken charges:
               1
     1  C   -0.299025
     2  C   -0.304028
     3  C   -0.477543
     4  H    0.151942
     5  H    0.153945
     6  H    0.141915
     7  H    0.155473
     8  H    0.158751
     9  H    0.158407
    10  H    0.164305
    11  C   -0.298977
    12  C   -0.300339
    13  C   -0.475530
    14  H    0.140324
    15  H    0.152117
    16  H    0.153420
    17  H    0.155164
    18  H    0.156528
    19  H    0.151651
    20  H    0.162983
    21  C   -0.171583
    22  C   -0.227036
    23  C   -0.173807
    24  C    0.158885
    25  C   -0.171071
    26  C   -0.218536
    27  H    0.225655
    28  H    0.233660
    29  H    0.276376
    30  H    0.275526
    31  H    0.223308
    32  N    0.488102
    33  O   -0.460636
    34  O   -0.460324
 Sum of Mulliken charges =  -0.00000

 Dipole moment (field-independent basis, Debye):
    X=              3.6939    Y=             -3.6911    Z=             -0.6403  Tot=              5.2611
 Quadrupole moment (field-independent basis, Debye-Ang):
   XX=           -112.6781   YY=            -91.1561   ZZ=            -95.2355
   XY=             14.7823   XZ=              1.2319   YZ=             -1.0191

 Normal termination of Gaussian 16 at Wed May  5 18:29:25 2021.
