 Gaussian 16, Revision A.03,
 Gaussian 16:  EM64L-G16RevA.03 25-Dec-2016

 -------------
 #p 6-31g* mp2
 -------------

 ------------------------------------------------------
 Input file generated by CHIRIPA (05-May-2021 14:53:15)
 ------------------------------------------------------
 Symbolic Z-matrix:
 Charge =  0 Multiplicity = 1

                         Standard orientation:
 ---------------------------------------------------------------------
 Center     Atomic      Atomic             Coordinates (Angstroms)
 Number     Number       Type             X           Y           Z
 ---------------------------------------------------------------------
      1          6           0       -3.331298   -0.283145   -0.021097
      2          6           0       -4.543844   -0.900516    0.676449
      3          6           0       -4.626155   -2.415637    0.488220
      4          1           0       -3.373545   -0.519112   -1.093235
      5          1           0       -2.416126   -0.751946    0.366306
      6          1           0       -5.456380   -0.429714    0.288841
      7          1           0       -4.498806   -0.662890    1.747019
      8          1           0       -3.732757   -2.903067    0.891771
      9          1           0       -4.695772   -2.668567   -0.574692
     10          1           0       -5.500295   -2.836246    0.995001
     11          6           0       -3.235255    1.230938    0.157947
     12          6           0       -2.022709    1.848309   -0.539598
     13          6           0       -1.940398    3.363429   -0.351370
     14          1           0       -4.150427    1.699738   -0.229456
     15          1           0       -3.193008    1.466905    1.230085
     16          1           0       -2.067747    1.610682   -1.610169
     17          1           0       -1.110173    1.377506   -0.151991
     18          1           0       -1.870781    3.616359    0.711542
     19          1           0       -2.833796    3.850860   -0.754921
     20          1           0       -1.066258    3.784038   -0.858151
     21          6           0        3.383802    1.941541    0.539243
     22          6           0        4.104597    0.816312    0.952564
     23          6           0        3.660337   -0.469402    0.629882
     24          6           0        2.485907   -0.593726   -0.110757
     25          6           0        1.745659    0.507895   -0.537084
     26          6           0        2.208704    1.784020   -0.202953
     27          1           0        3.736209    2.936589    0.794358
     28          1           0        5.017529    0.935627    1.529072
     29          1           0        4.198851   -1.357700    0.937043
     30          1           0        0.839161    0.357165   -1.110636
     31          1           0        1.646881    2.656086   -0.525286
     32          7           0        2.005646   -1.949777   -0.458427
     33          8           0        0.967965   -2.032466   -1.111894
     34          8           0        2.675990   -2.904282   -0.070879
 ---------------------------------------------------------------------

 SCF Done:  E(RHF) =  -669.535413087     A.U. after   15 cycles
 E2 =    -0.2092238774D+01 EUMP2 =    -0.67162765186132D+03

 The electronic state is 1-A.
 Alpha  occ. eigenvalues --  -20.60776 -20.60771 -15.85826 -11.31179 -11.27763
 Alpha  occ. eigenvalues --  -11.27704 -11.27498 -11.26778 -11.26752 -11.22076
 Alpha  occ. eigenvalues --  -11.21719 -11.21533 -11.21380 -11.21175 -11.20679
 Alpha  occ. eigenvalues --   -1.59850  -1.39403  -1.19361  -1.08756  -1.08500
 Alpha  occ. eigenvalues --   -1.04764  -1.03637  -0.96067  -0.95591  -0.87087
 Alpha  occ. eigenvalues --   -0.86155  -0.82425  -0.79771  -0.78241  -0.77452
 Alpha  occ. eigenvalues --   -0.72043  -0.71174  -0.70470  -0.65156  -0.64997
 Alpha  occ. eigenvalues --   -0.64757  -0.62165  -0.60999  -0.59498  -0.57661
 Alpha  occ. eigenvalues --   -0.55341  -0.55249  -0.53101  -0.52911  -0.52807
 Alpha  occ. eigenvalues --   -0.52431  -0.49991  -0.48803  -0.48801  -0.48032
 Alpha  occ. eigenvalues --   -0.46779  -0.45775  -0.45655  -0.44802  -0.43864
 Alpha  occ. eigenvalues --   -0.37344  -0.36340
 Alpha virt. eigenvalues --    0.05012   0.11256   0.16452   0.19937   0.23043
 Alpha virt. eigenvalues --    0.23880   0.26002   0.26327   0.26714   0.28454
 Alpha virt. eigenvalues --    0.29410   0.30451   0.31335   0.31739   0.33184

 Mulliken charges:
               1
     1  C   -0.300418
     2  C   -0.300091
     3  C   -0.476049
     4  H    0.152562
     5  H    0.156474
     6  H    0.150209
     7  H    0.150485
     8  H    0.160065
     9  H    0.156954
    10  H    0.158640
    11  C   -0.297589
    12  C   -0.308056
    13  C   -0.475887
    14  H    0.150097
    15  H    0.149633
    16  H    0.153925
    17  H    0.150579
    18  H    0.156941
    19  H    0.159856
    20  H    0.150816
    21  C   -0.171154
    22  C   -0.218482
    23  C   -0.171055
    24  C    0.157627
    25  C   -0.174399
    26  C   -0.221370
    27  H    0.225839
    28  H    0.223435
    29  H    0.275521
    30  H    0.280588
    31  H    0.227130
    32  N    0.487908
    33  O   -0.460257
    34  O   -0.460477
 Sum of Mulliken charges =  -0.00000

 Dipole moment (field-independent basis, Debye):
    X=              1.6176    Y=              4.6707    Z=              1.2341  Tot=              5.0946
 Quadrupole moment (field-independent basis, Debye-Ang):
   XX=            -83.0273   YY=           -101.4630   ZZ=            -93.8760
   XY=              9.0688   XZ=              5.6699   YZ=             -2.4249

 Normal termination of Gaussian 16 at Wed May  5 20:17:39 2021.
