 Gaussian 16, Revision A.03,
 Gaussian 16:  EM64L-G16RevA.03 25-Dec-2016

 -------------
 #p 6-31g* mp2
 -------------

 ------------------------------------------------------
 Input file generated by CHIRIPA (05-May-2021 14:55:24)
 ------------------------------------------------------
 Symbolic Z-matrix:
 Charge =  0 Multiplicity = 1

                         Standard orientation:
 ---------------------------------------------------------------------
 Center     Atomic      Atomic             Coordinates (Angstroms)
 Number     Number       Type             X           Y           Z
 ---------------------------------------------------------------------
      1          6           0       -1.233315    1.520976   -0.099106
      2          6           0       -2.424874    2.112142    0.333595
      3          6           0       -3.627166    1.399943    0.290977
      4          6           0       -3.601337    0.092670   -0.192408
      5          6           0       -2.430437   -0.523937   -0.630676
      6          6           0       -1.239888    0.207139   -0.579014
      7          1           0       -0.303907    2.081561   -0.062487
      8          1           0       -2.422765    3.132324    0.706783
      9          1           0       -4.563996    1.833239    0.619644
     10          1           0       -2.464094   -1.542595   -0.997581
     11          1           0       -0.316013   -0.254522   -0.915718
     12          7           0       -4.867933   -0.671295   -0.242313
     13          8           0       -4.818539   -1.821577   -0.672487
     14          8           0       -5.886103   -0.105344    0.149691
     15          6           0        3.830728   -0.773293    0.514966
     16          6           0        2.491952   -0.124074    0.867355
     17          6           0        1.478522   -1.124135    1.424696
     18          1           0        3.661233   -1.573208   -0.218758
     19          1           0        4.244349   -1.254500    1.412046
     20          1           0        2.081642    0.356952   -0.029793
     21          1           0        2.664679    0.674517    1.600182
     22          1           0        1.863324   -1.595983    2.334580
     23          1           0        1.276975   -1.915352    0.695343
     24          1           0        0.528698   -0.638768    1.669881
     25          6           0        4.854293    0.213726   -0.043458
     26          6           0        6.193070   -0.435493   -0.395847
     27          6           0        7.206500    0.564569   -0.953188
     28          1           0        4.440672    0.694933   -0.940538
     29          1           0        5.023789    1.013641    0.690266
     30          1           0        6.020343   -1.234084   -1.128674
     31          1           0        6.603379   -0.916518    0.501301
     32          1           0        7.408046    1.355786   -0.223835
     33          1           0        6.821697    1.036416   -1.863072
     34          1           0        8.156323    0.079202   -1.198373
 ---------------------------------------------------------------------

 SCF Done:  E(RHF) =  -669.534898296     A.U. after   15 cycles
 E2 =    -0.2092493955D+01 EUMP2 =    -0.67162739225037D+03

 The electronic state is 1-A.
 Alpha  occ. eigenvalues --  -20.60745 -20.60740 -15.85798 -11.31168 -11.27724
 Alpha  occ. eigenvalues --  -11.27710 -11.27450 -11.26753 -11.26705 -11.22686
 Alpha  occ. eigenvalues --  -11.22204 -11.22175 -11.22077 -11.21874 -11.21565
 Alpha  occ. eigenvalues --   -1.59820  -1.39373  -1.19338  -1.09220  -1.08730
 Alpha  occ. eigenvalues --   -1.04750  -1.04287  -0.96711  -0.95563  -0.87726
 Alpha  occ. eigenvalues --   -0.86131  -0.82394  -0.80381  -0.79013  -0.77446
 Alpha  occ. eigenvalues --   -0.72017  -0.71143  -0.70436  -0.65908  -0.64986
 Alpha  occ. eigenvalues --   -0.64752  -0.62211  -0.61568  -0.60071  -0.58321
 Alpha  occ. eigenvalues --   -0.56003  -0.55222  -0.53533  -0.53219  -0.52865
 Alpha  occ. eigenvalues --   -0.52743  -0.50652  -0.48773  -0.48771  -0.48678
 Alpha  occ. eigenvalues --   -0.47446  -0.46547  -0.46468  -0.44778  -0.44532
 Alpha  occ. eigenvalues --   -0.37295  -0.36309
 Alpha virt. eigenvalues --    0.05078   0.11249   0.16556   0.19502   0.22543
 Alpha virt. eigenvalues --    0.23941   0.25498   0.25931   0.26969   0.27969
 Alpha virt. eigenvalues --    0.28711   0.29872   0.30894   0.31488   0.32099

 Mulliken charges:
               1
     1  C   -0.174186
     2  C   -0.218439
     3  C   -0.171361
     4  C    0.158712
     5  C   -0.172722
     6  C   -0.217556
     7  H    0.227475
     8  H    0.223397
     9  H    0.275473
    10  H    0.275519
    11  H    0.229012
    12  N    0.488035
    13  O   -0.460353
    14  O   -0.460477
    15  C   -0.297818
    16  C   -0.303700
    17  C   -0.482418
    18  H    0.150368
    19  H    0.153604
    20  H    0.140105
    21  H    0.154423
    22  H    0.160899
    23  H    0.151653
    24  H    0.167813
    25  C   -0.298663
    26  C   -0.300223
    27  C   -0.476105
    28  H    0.147653
    29  H    0.150303
    30  H    0.152895
    31  H    0.153566
    32  H    0.155663
    33  H    0.155158
    34  H    0.162293
 Sum of Mulliken charges =  -0.00000

 Dipole moment (field-independent basis, Debye):
    X=              4.6151    Y=              2.6512    Z=              0.2470  Tot=              5.3282
 Quadrupole moment (field-independent basis, Debye-Ang):
   XX=           -126.1395   YY=            -91.7235   ZZ=            -93.9897
   XY=            -12.1293   XZ=             -1.7478   YZ=              1.6108

 Normal termination of Gaussian 16 at Thu May  6 19:20:48 2021.
