 Gaussian 16, Revision A.03,
 Gaussian 16:  EM64L-G16RevA.03 25-Dec-2016

 -------------
 #p 6-31g* mp2
 -------------

 ------------------------------------------------------
 Input file generated by CHIRIPA (05-May-2021 14:57:23)
 ------------------------------------------------------
 Symbolic Z-matrix:
 Charge =  0 Multiplicity = 1

                         Standard orientation:
 ---------------------------------------------------------------------
 Center     Atomic      Atomic             Coordinates (Angstroms)
 Number     Number       Type             X           Y           Z
 ---------------------------------------------------------------------
      1          6           0       -2.284710    0.352744    0.967504
      2          6           0       -3.029472    1.438905    0.496224
      3          6           0       -4.309715    1.246441   -0.031490
      4          6           0       -4.816595   -0.051499   -0.072896
      5          6           0       -4.099166   -1.153965    0.388790
      6          6           0       -2.820988   -0.937949    0.912381
      7          1           0       -1.290988    0.511402    1.375844
      8          1           0       -2.615527    2.442383    0.537784
      9          1           0       -4.907988    2.069401   -0.403277
     10          1           0       -4.538537   -2.142595    0.334190
     11          1           0       -2.244871   -1.783353    1.277656
     12          7           0       -6.170838   -0.267718   -0.629380
     13          8           0       -6.594832   -1.421071   -0.654739
     14          8           0       -6.782657    0.720256   -1.029658
     15          6           0        2.259659    0.576672    0.759044
     16          6           0        3.111340    1.592063    0.311673
     17          6           0        4.406453    1.292931   -0.121624
     18          6           0        4.819017   -0.038353   -0.094020
     19          6           0        3.993986   -1.072239    0.346088
     20          6           0        2.702919   -0.749900    0.774797
     21          1           0        1.255155    0.818059    1.093858
     22          1           0        2.769786    2.623184    0.298338
     23          1           0        5.086550    2.059402   -0.472922
     24          1           0        4.362793   -2.090766    0.347775
     25          1           0        2.043669   -1.540522    1.121711
     26          7           0        6.187954   -0.367316   -0.550303
     27          8           0        6.527506   -1.548069   -0.516185
     28          8           0        6.895455    0.561826   -0.933417
 ---------------------------------------------------------------------

 SCF Done:  E(RHF) =  -868.336013114     A.U. after   16 cycles
 E2 =    -0.2599694827D+01 EUMP2 =    -0.87093570794045D+03

 The electronic state is 1-A.
 Alpha  occ. eigenvalues --  -20.61325 -20.61320 -20.61299 -20.61294 -15.86384
 Alpha  occ. eigenvalues --  -15.86358 -11.31916 -11.31879 -11.28490 -11.28486
 Alpha  occ. eigenvalues --  -11.28463 -11.28447 -11.28436 -11.28392 -11.27616
 Alpha  occ. eigenvalues --  -11.27603 -11.27589 -11.27550  -1.60397  -1.60371
 Alpha  occ. eigenvalues --   -1.39945  -1.39920  -1.20118  -1.20081  -1.09519
 Alpha  occ. eigenvalues --   -1.09475  -1.05538  -1.05502  -0.96332  -0.96269
 Alpha  occ. eigenvalues --   -0.86948  -0.86911  -0.83158  -0.83082  -0.78124
 Alpha  occ. eigenvalues --   -0.78094  -0.72601  -0.72575  -0.71720  -0.71694
 Alpha  occ. eigenvalues --   -0.71538  -0.71076  -0.65786  -0.65749  -0.65577
 Alpha  occ. eigenvalues --   -0.65514  -0.62876  -0.62840  -0.56471  -0.55814
 Alpha  occ. eigenvalues --   -0.53863  -0.53823  -0.53648  -0.53612  -0.49375
 Alpha  occ. eigenvalues --   -0.49347  -0.49344  -0.49318  -0.45313  -0.45290
 Alpha  occ. eigenvalues --   -0.38165  -0.38094  -0.37123  -0.37088
 Alpha virt. eigenvalues --    0.04374   0.04457   0.10515   0.10556   0.15721
 Alpha virt. eigenvalues --    0.15916   0.17349   0.21970   0.24497   0.25972
 Alpha virt. eigenvalues --    0.26979   0.29392   0.29490   0.31541   0.32220

 Mulliken charges:
               1
     1  C   -0.173147
     2  C   -0.218881
     3  C   -0.169748
     4  C    0.159609
     5  C   -0.169639
     6  C   -0.218749
     7  H    0.218981
     8  H    0.222762
     9  H    0.277972
    10  H    0.278007
    11  H    0.222136
    12  N    0.487849
    13  O   -0.458386
    14  O   -0.458450
    15  C   -0.171888
    16  C   -0.218965
    17  C   -0.169646
    18  C    0.159394
    19  C   -0.169731
    20  C   -0.218666
    21  H    0.218654
    22  H    0.224114
    23  H    0.277922
    24  H    0.277729
    25  H    0.220001
    26  N    0.487867
    27  O   -0.458645
    28  O   -0.458456
 Sum of Mulliken charges =  -0.00000

 Dipole moment (field-independent basis, Debye):
    X=             -0.0662    Y=              1.8913    Z=              3.4440  Tot=              3.9297
 Quadrupole moment (field-independent basis, Debye-Ang):
   XX=           -196.1177   YY=            -95.2753   ZZ=           -106.8766
   XY=              2.3636   XZ=             -1.6954   YZ=             -2.4711

 Normal termination of Gaussian 16 at Thu May  6 21:09:42 2021.
