 Gaussian 16, Revision A.03,
 Gaussian 16:  EM64L-G16RevA.03 25-Dec-2016

 -------------
 #p 6-31g* mp2
 -------------

 ------------------------------------------------------
 Input file generated by CHIRIPA (05-May-2021 14:55:20)
 ------------------------------------------------------
 Symbolic Z-matrix:
 Charge =  0 Multiplicity = 1

                         Standard orientation:
 ---------------------------------------------------------------------
 Center     Atomic      Atomic             Coordinates (Angstroms)
 Number     Number       Type             X           Y           Z
 ---------------------------------------------------------------------
      1          6           0       -3.739045    1.346175    0.471230
      2          6           0       -2.706895    1.081226    1.377314
      3          6           0       -1.865924   -0.020343    1.193296
      4          6           0       -2.086593   -0.839761    0.087336
      5          6           0       -3.106316   -0.602157   -0.832990
      6          6           0       -3.935116    0.505121   -0.629090
      7          1           0       -4.387604    2.204117    0.621902
      8          1           0       -2.552282    1.732684    2.232734
      9          1           0       -1.059249   -0.248727    1.879251
     10          1           0       -3.235766   -1.269636   -1.676277
     11          1           0       -4.735899    0.708445   -1.334393
     12          7           0       -1.202738   -2.008965   -0.118000
     13          8           0       -1.417980   -2.715615   -1.100320
     14          8           0       -0.311465   -2.196597    0.707267
     15          6           0        2.479415    1.323219   -0.597411
     16          6           0        1.224644    1.892991    0.065082
     17          6           0        0.479492    2.881672   -0.832164
     18          1           0        3.149635    2.149758   -0.870508
     19          1           0        2.196764    0.826813   -1.536073
     20          1           0        1.509397    2.386972    1.002905
     21          1           0        0.557418    1.064986    0.336806
     22          1           0        0.167247    2.397325   -1.763030
     23          1           0        1.124636    3.726822   -1.093147
     24          1           0       -0.414130    3.276654   -0.338920
     25          6           0        3.235180    0.333261    0.287197
     26          6           0        4.489951   -0.236510   -0.375296
     27          6           0        5.235102   -1.225193    0.521949
     28          1           0        3.517830    0.829667    1.225858
     29          1           0        2.564959   -0.493277    0.560293
     30          1           0        5.157177    0.591494   -0.647020
     31          1           0        4.205197   -0.730492   -1.313120
     32          1           0        4.589959   -2.070343    0.782932
     33          1           0        5.547347   -0.740845    1.452816
     34          1           0        6.128725   -1.620174    0.028705
 ---------------------------------------------------------------------

 SCF Done:  E(RHF) =  -669.535557383     A.U. after   15 cycles
 E2 =    -0.2093564053D+01 EUMP2 =    -0.67162912143597D+03

 The electronic state is 1-A.
 Alpha  occ. eigenvalues --  -20.60956 -20.60949 -15.85985 -11.31289 -11.27864
 Alpha  occ. eigenvalues --  -11.27856 -11.27604 -11.26863 -11.26848 -11.21460
 Alpha  occ. eigenvalues --  -11.21085 -11.21043 -11.21032 -11.20773 -11.20461
 Alpha  occ. eigenvalues --   -1.60014  -1.39570  -1.19475  -1.08873  -1.08035
 Alpha  occ. eigenvalues --   -1.04872  -1.03184  -0.95720  -0.95623  -0.86654
 Alpha  occ. eigenvalues --   -0.86268  -0.82548  -0.79292  -0.77847  -0.77575
 Alpha  occ. eigenvalues --   -0.72204  -0.71333  -0.70586  -0.65127  -0.64888
 Alpha  occ. eigenvalues --   -0.64640  -0.62223  -0.60592  -0.59046  -0.57251
 Alpha  occ. eigenvalues --   -0.55371  -0.54919  -0.53168  -0.52960  -0.52345
 Alpha  occ. eigenvalues --   -0.52051  -0.49563  -0.48969  -0.48958  -0.47596
 Alpha  occ. eigenvalues --   -0.46330  -0.45440  -0.45322  -0.44809  -0.43416
 Alpha  occ. eigenvalues --   -0.37424  -0.36393
 Alpha virt. eigenvalues --    0.04897   0.11088   0.16372   0.21183   0.23217
 Alpha virt. eigenvalues --    0.24621   0.26417   0.27160   0.27607   0.28298
 Alpha virt. eigenvalues --    0.28852   0.30968   0.31668   0.31910   0.32138

 Mulliken charges:
               1
     1  C   -0.170459
     2  C   -0.217215
     3  C   -0.173011
     4  C    0.160578
     5  C   -0.170808
     6  C   -0.218128
     7  H    0.226268
     8  H    0.224506
     9  H    0.277000
    10  H    0.275807
    11  H    0.223917
    12  N    0.488646
    13  O   -0.459045
    14  O   -0.461800
    15  C   -0.296925
    16  C   -0.305696
    17  C   -0.473849
    18  H    0.147374
    19  H    0.151281
    20  H    0.147336
    21  H    0.155051
    22  H    0.155756
    23  H    0.154752
    24  H    0.154005
    25  C   -0.305050
    26  C   -0.299022
    27  C   -0.476808
    28  H    0.144866
    29  H    0.165586
    30  H    0.148339
    31  H    0.154257
    32  H    0.161795
    33  H    0.152237
    34  H    0.158460
 Sum of Mulliken charges =  -0.00000

 Dipole moment (field-independent basis, Debye):
    X=             -3.2557    Y=              3.9461    Z=              0.7204  Tot=              5.1663
 Quadrupole moment (field-independent basis, Debye-Ang):
   XX=            -81.2642   YY=           -102.3479   ZZ=            -91.5741
   XY=             -4.9487   XZ=              0.4487   YZ=              1.6316

 Normal termination of Gaussian 16 at Thu May  6 04:33:47 2021.
