 Gaussian 16, Revision A.03,
 Gaussian 16:  EM64L-G16RevA.03 25-Dec-2016

 -------------
 #p 6-31g* mp2
 -------------

 ------------------------------------------------------
 Input file generated by CHIRIPA (05-May-2021 14:55:22)
 ------------------------------------------------------
 Symbolic Z-matrix:
 Charge =  0 Multiplicity = 1

                         Standard orientation:
 ---------------------------------------------------------------------
 Center     Atomic      Atomic             Coordinates (Angstroms)
 Number     Number       Type             X           Y           Z
 ---------------------------------------------------------------------
      1          6           0       -2.151755    2.101531   -0.828374
      2          6           0       -3.497949    1.968994   -0.472401
      3          6           0       -4.009862    0.728544   -0.080256
      4          6           0       -3.143479   -0.363267   -0.055364
      5          6           0       -1.797542   -0.263209   -0.404266
      6          6           0       -1.307337    0.986972   -0.793232
      7          1           0       -1.762521    3.068922   -1.131767
      8          1           0       -4.156054    2.832850   -0.498757
      9          1           0       -5.047901    0.597708    0.200410
     10          1           0       -1.165940   -1.142522   -0.368130
     11          1           0       -0.261431    1.086943   -1.069152
     12          7           0       -3.673927   -1.681627    0.358099
     13          8           0       -2.890017   -2.628166    0.371702
     14          8           0       -4.863558   -1.743454    0.660741
     15          6           0        3.942506   -0.534687   -0.090614
     16          6           0        5.354861   -1.120433   -0.078854
     17          6           0        5.400103   -2.564550   -0.579127
     18          1           0        3.287742   -1.160361    0.531288
     19          1           0        3.541793   -0.582380   -1.112646
     20          1           0        5.753319   -1.070382    0.942587
     21          1           0        6.006382   -0.493184   -0.700702
     22          1           0        5.027659   -2.628131   -1.606670
     23          1           0        4.773158   -3.208609    0.045956
     24          1           0        6.419129   -2.963504   -0.562330
     25          6           0        3.880993    0.908410    0.406795
     26          6           0        2.468637    1.494155    0.395035
     27          6           0        2.423396    2.938272    0.895308
     28          1           0        4.281706    0.956103    1.428827
     29          1           0        4.535757    1.534084   -0.215107
     30          1           0        1.817116    0.866906    1.016883
     31          1           0        2.070181    1.444104   -0.626406
     32          1           0        3.050341    3.582331    0.270224
     33          1           0        2.795839    3.001853    1.922851
     34          1           0        1.404370    3.337226    0.878510
 ---------------------------------------------------------------------

 SCF Done:  E(RHF) =  -669.535559867     A.U. after   15 cycles
 E2 =    -0.2091398091D+01 EUMP2 =    -0.67162695795858D+03

 The electronic state is 1-A.
 Alpha  occ. eigenvalues --  -20.60726 -20.60721 -15.85778 -11.31133 -11.27699
 Alpha  occ. eigenvalues --  -11.27679 -11.27432 -11.26719 -11.26645 -11.22575
 Alpha  occ. eigenvalues --  -11.22062 -11.22004 -11.21927 -11.21920 -11.21347
 Alpha  occ. eigenvalues --   -1.59802  -1.39356  -1.19299  -1.09076  -1.08697
 Alpha  occ. eigenvalues --   -1.04698  -1.04158  -0.96576  -0.95535  -0.87596
 Alpha  occ. eigenvalues --   -0.86098  -0.82370  -0.80271  -0.78877  -0.77405
 Alpha  occ. eigenvalues --   -0.71997  -0.71125  -0.70411  -0.65711  -0.64948
 Alpha  occ. eigenvalues --   -0.64707  -0.62080  -0.61533  -0.59965  -0.58191
 Alpha  occ. eigenvalues --   -0.55843  -0.55204  -0.53297  -0.53036  -0.52999
 Alpha  occ. eigenvalues --   -0.52783  -0.50512  -0.48778  -0.48753  -0.48516
 Alpha  occ. eigenvalues --   -0.47292  -0.46395  -0.46307  -0.44764  -0.44405
 Alpha  occ. eigenvalues --   -0.37283  -0.36292
 Alpha virt. eigenvalues --    0.05106   0.11307   0.16578   0.20074   0.22587
 Alpha virt. eigenvalues --    0.23894   0.25194   0.26141   0.26943   0.28503
 Alpha virt. eigenvalues --    0.28828   0.29922   0.31067   0.31381   0.32308

 Mulliken charges:
               1
     1  C   -0.173693
     2  C   -0.218378
     3  C   -0.171381
     4  C    0.158858
     5  C   -0.174176
     6  C   -0.222656
     7  H    0.225523
     8  H    0.223113
     9  H    0.275326
    10  H    0.275894
    11  H    0.233734
    12  N    0.488071
    13  O   -0.460577
    14  O   -0.460669
    15  C   -0.299565
    16  C   -0.300114
    17  C   -0.476404
    18  H    0.151465
    19  H    0.147090
    20  H    0.153543
    21  H    0.152310
    22  H    0.155293
    23  H    0.157367
    24  H    0.161886
    25  C   -0.297503
    26  C   -0.305374
    27  C   -0.475826
    28  H    0.153226
    29  H    0.151086
    30  H    0.155791
    31  H    0.142887
    32  H    0.156775
    33  H    0.160623
    34  H    0.156456
 Sum of Mulliken charges =  -0.00000

 Dipole moment (field-independent basis, Debye):
    X=              2.0727    Y=              4.6263    Z=             -1.3749  Tot=              5.2525
 Quadrupole moment (field-independent basis, Debye-Ang):
   XX=           -101.8595   YY=            -98.7350   ZZ=            -94.4998
   XY=            -17.3431   XZ=              3.9917   YZ=             -0.0134

 Normal termination of Gaussian 16 at Thu May  6 10:56:39 2021.
