 Gaussian 16, Revision A.03,
 Gaussian 16:  EM64L-G16RevA.03 25-Dec-2016

 -------------
 #p 6-31g* mp2
 -------------

 ------------------------------------------------------
 Input file generated by CHIRIPA (05-May-2021 14:55:19)
 ------------------------------------------------------
 Symbolic Z-matrix:
 Charge =  0 Multiplicity = 1

                         Standard orientation:
 ---------------------------------------------------------------------
 Center     Atomic      Atomic             Coordinates (Angstroms)
 Number     Number       Type             X           Y           Z
 ---------------------------------------------------------------------
      1          6           0        3.848355    1.200930   -1.469654
      2          6           0        2.480366    1.050997   -1.719949
      3          6           0        1.663609    0.367407   -0.814322
      4          6           0        2.250687   -0.155862    0.336686
      5          6           0        3.610327   -0.023046    0.614227
      6          6           0        4.407983    0.664375   -0.305418
      7          1           0        4.475412    1.733447   -2.178611
      8          1           0        2.043022    1.466646   -2.623283
      9          1           0        0.601627    0.236718   -0.983240
     10          1           0        4.017537   -0.448411    1.523437
     11          1           0        5.470074    0.779283   -0.108430
     12          7           0        1.396134   -0.881577    1.302852
     13          8           0        1.937629   -1.333269    2.309527
     14          8           0        0.201023   -0.984958    1.035164
     15          6           0       -3.307279    0.527210    0.312942
     16          6           0       -3.168673    1.999244   -0.076792
     17          6           0       -3.665247    2.948810    1.013866
     18          1           0       -4.360924    0.311475    0.537068
     19          1           0       -2.747002    0.346443    1.240739
     20          1           0       -3.727906    2.176875   -1.004327
     21          1           0       -2.115265    2.211454   -0.300203
     22          1           0       -3.100595    2.800603    1.940043
     23          1           0       -4.722400    2.765828    1.231918
     24          1           0       -3.556923    3.995910    0.714353
     25          6           0       -2.815033   -0.434396   -0.767213
     26          6           0       -2.953637   -1.906429   -0.377480
     27          6           0       -2.457065   -2.855995   -1.468137
     28          1           0       -3.375309   -0.253628   -1.695011
     29          1           0       -1.761387   -0.218660   -0.991340
     30          1           0       -4.007047   -2.118639   -0.154069
     31          1           0       -2.394406   -2.084060    0.550056
     32          1           0       -1.399912   -2.673013   -1.686189
     33          1           0       -3.021716   -2.707788   -2.394314
     34          1           0       -2.565389   -3.903094   -1.168624
 ---------------------------------------------------------------------

 SCF Done:  E(RHF) =  -669.535877194     A.U. after   15 cycles
 E2 =    -0.2093243397D+01 EUMP2 =    -0.67162912059074D+03

 The electronic state is 1-A.
 Alpha  occ. eigenvalues --  -20.61044 -20.61023 -15.86065 -11.31336 -11.27891
 Alpha  occ. eigenvalues --  -11.27882 -11.27619 -11.26890 -11.26877 -11.21192
 Alpha  occ. eigenvalues --  -11.20688 -11.20680 -11.20577 -11.20481 -11.20288
 Alpha  occ. eigenvalues --   -1.60096  -1.39656  -1.19500  -1.08914  -1.07686
 Alpha  occ. eigenvalues --   -1.04889  -1.02828  -0.95768  -0.95308  -0.86340
 Alpha  occ. eigenvalues --   -0.86292  -0.82605  -0.78912  -0.77706  -0.77479
 Alpha  occ. eigenvalues --   -0.72328  -0.71403  -0.70614  -0.65187  -0.64916
 Alpha  occ. eigenvalues --   -0.64214  -0.62235  -0.60182  -0.58700  -0.56926
 Alpha  occ. eigenvalues --   -0.55399  -0.54591  -0.53222  -0.52990  -0.52039
 Alpha  occ. eigenvalues --   -0.51748  -0.49297  -0.49072  -0.49004  -0.47246
 Alpha  occ. eigenvalues --   -0.45918  -0.45078  -0.45053  -0.44837  -0.43081
 Alpha  occ. eigenvalues --   -0.37475  -0.36486
 Alpha virt. eigenvalues --    0.04840   0.11153   0.16347   0.20145   0.23225
 Alpha virt. eigenvalues --    0.24764   0.25542   0.27533   0.28103   0.28632
 Alpha virt. eigenvalues --    0.29550   0.31264   0.31742   0.32451   0.32497

 Mulliken charges:
               1
     1  C   -0.169878
     2  C   -0.223723
     3  C   -0.175411
     4  C    0.152689
     5  C   -0.168974
     6  C   -0.219237
     7  H    0.226327
     8  H    0.225288
     9  H    0.291393
    10  H    0.275975
    11  H    0.223987
    12  N    0.493397
    13  O   -0.458023
    14  O   -0.469835
    15  C   -0.301332
    16  C   -0.297942
    17  C   -0.475463
    18  H    0.147089
    19  H    0.164870
    20  H    0.148411
    21  H    0.144174
    22  H    0.157652
    23  H    0.155203
    24  H    0.156593
    25  C   -0.299211
    26  C   -0.303728
    27  C   -0.474842
    28  H    0.142024
    29  H    0.148395
    30  H    0.146143
    31  H    0.177404
    32  H    0.152463
    33  H    0.148581
    34  H    0.159542
 Sum of Mulliken charges =  -0.00000

 Dipole moment (field-independent basis, Debye):
    X=              3.2285    Y=              2.4573    Z=             -3.1423  Tot=              5.1318
 Quadrupole moment (field-independent basis, Debye-Ang):
   XX=            -77.8430   YY=            -97.2451   ZZ=            -96.2894
   XY=              5.1973   XZ=             -4.2293   YZ=             -0.1157

 Normal termination of Gaussian 16 at Thu May  6 20:37:37 2021.
