 Gaussian 16, Revision A.03,
 Gaussian 16:  EM64L-G16RevA.03 25-Dec-2016

 -------------
 #p 6-31g* mp2
 -------------

 ------------------------------------------------------
 Input file generated by CHIRIPA (05-May-2021 14:51:09)
 ------------------------------------------------------
 Symbolic Z-matrix:
 Charge =  0 Multiplicity = 1

                         Standard orientation:
 ---------------------------------------------------------------------
 Center     Atomic      Atomic             Coordinates (Angstroms)
 Number     Number       Type             X           Y           Z
 ---------------------------------------------------------------------
      1          6           0       -3.048596    0.860292   -0.688690
      2          6           0       -2.669866    1.970118    0.292550
      3          6           0       -2.613409    3.348399   -0.366957
      4          1           0       -2.322222    0.844562   -1.512752
      5          1           0       -4.024443    1.093719   -1.136607
      6          1           0       -1.695661    1.733972    0.739514
      7          1           0       -3.397117    1.983083    1.114471
      8          1           0       -3.585519    3.609538   -0.797550
      9          1           0       -1.874396    3.359011   -1.174638
     10          1           0       -2.340888    4.126853    0.352488
     11          6           0       -3.109174   -0.523457   -0.044254
     12          6           0       -3.487905   -1.633283   -1.025494
     13          6           0       -3.544361   -3.011564   -0.365987
     14          1           0       -2.133327   -0.756884    0.403663
     15          1           0       -3.835549   -0.507727    0.779808
     16          1           0       -2.760654   -1.646248   -1.847415
     17          1           0       -4.462109   -1.397137   -1.472458
     18          1           0       -4.283375   -3.022176    0.441694
     19          1           0       -2.572252   -3.272703    0.064606
     20          1           0       -3.816883   -3.790018   -1.085432
     21          6           0        2.554076   -0.583451    0.734921
     22          6           0        1.487604    0.264849    1.428469
     23          6           0        0.444776   -0.579742    2.161250
     24          1           0        2.066591   -1.264638    0.024087
     25          1           0        3.052664   -1.216074    1.482312
     26          1           0        0.992121    0.896690    0.680212
     27          1           0        1.977702    0.944230    2.137597
     28          1           0        0.920648   -1.199118    2.928402
     29          1           0       -0.070533   -1.246928    1.462736
     30          1           0       -0.307944    0.046788    2.649852
     31          6           0        3.603694    0.246616   -0.001978
     32          6           0        4.670166   -0.601683   -0.695526
     33          6           0        5.712994    0.242907   -1.428306
     34          1           0        3.105106    0.879239   -0.749368
     35          1           0        4.091179    0.927804    0.708858
     36          1           0        4.180069   -1.281065   -1.404653
     37          1           0        5.165650   -1.233525    0.052732
     38          1           0        6.228303    0.910093   -0.729792
     39          1           0        5.237123    0.862282   -2.195457
     40          1           0        6.465715   -0.383622   -1.916909
 ---------------------------------------------------------------------

 SCF Done:  E(RHF) =  -470.732974231     A.U. after   11 cycles
 E2 =    -0.1583603694D+01 EUMP2 =    -0.47231657792534D+03

 The electronic state is 1-A.
 Alpha  occ. eigenvalues --  -11.21684 -11.21640 -11.21581 -11.21580 -11.21465
 Alpha  occ. eigenvalues --  -11.21403 -11.21367 -11.21279 -11.21129 -11.21101
 Alpha  occ. eigenvalues --  -11.21066 -11.21066  -1.08496  -1.08400  -1.03592
 Alpha  occ. eigenvalues --   -1.03514  -0.96047  -0.95954  -0.87063  -0.86972
 Alpha  occ. eigenvalues --   -0.79675  -0.79559  -0.78303  -0.78216  -0.65248
 Alpha  occ. eigenvalues --   -0.64943  -0.60995  -0.60922  -0.59430  -0.59303
 Alpha  occ. eigenvalues --   -0.57655  -0.57565  -0.55442  -0.55160  -0.52751
 Alpha  occ. eigenvalues --   -0.52642  -0.52494  -0.52357  -0.50110  -0.49814
 Alpha  occ. eigenvalues --   -0.47995  -0.47884  -0.46835  -0.46482  -0.45913
 Alpha  occ. eigenvalues --   -0.45751  -0.45739  -0.45497  -0.43836  -0.43757
 Alpha virt. eigenvalues --    0.20159   0.23259   0.23362   0.24210   0.26100
 Alpha virt. eigenvalues --    0.26870   0.27176   0.27280   0.27913   0.29328
 Alpha virt. eigenvalues --    0.30250   0.31438   0.31680   0.32025   0.32336

 Mulliken charges:
               1
     1  C   -0.297275
     2  C   -0.305955
     3  C   -0.475389
     4  H    0.148559
     5  H    0.149441
     6  H    0.158116
     7  H    0.151841
     8  H    0.155249
     9  H    0.154706
    10  H    0.160237
    11  C   -0.307169
    12  C   -0.299244
    13  C   -0.475720
    14  H    0.159612
    15  H    0.149330
    16  H    0.151110
    17  H    0.151858
    18  H    0.155480
    19  H    0.154595
    20  H    0.160192
    21  C   -0.298280
    22  C   -0.303202
    23  C   -0.480154
    24  H    0.149423
    25  H    0.149974
    26  H    0.153516
    27  H    0.152753
    28  H    0.156029
    29  H    0.157421
    30  H    0.162509
    31  C   -0.298361
    32  C   -0.299711
    33  C   -0.475745
    34  H    0.149453
    35  H    0.149894
    36  H    0.151938
    37  H    0.152067
    38  H    0.155283
    39  H    0.155217
    40  H    0.160402
 Sum of Mulliken charges =  -0.00000

 Dipole moment (field-independent basis, Debye):
    X=              0.0344    Y=             -0.0035    Z=              0.0365  Tot=              0.0503
 Quadrupole moment (field-independent basis, Debye-Ang):
   XX=            -84.1765   YY=            -86.1742   ZZ=            -84.4268
   XY=             -0.5970   XZ=              0.7295   YZ=              0.6780

 Normal termination of Gaussian 16 at Wed May  5 18:08:50 2021.
