 Gaussian 16, Revision A.03,
 Gaussian 16:  EM64L-G16RevA.03 25-Dec-2016

 -------------
 #p 6-31g* mp2
 -------------

 ------------------------------------------------------
 Input file generated by CHIRIPA (05-May-2021 14:57:22)
 ------------------------------------------------------
 Symbolic Z-matrix:
 Charge =  0 Multiplicity = 1

                         Standard orientation:
 ---------------------------------------------------------------------
 Center     Atomic      Atomic             Coordinates (Angstroms)
 Number     Number       Type             X           Y           Z
 ---------------------------------------------------------------------
      1          6           0        5.854306    0.749687   -1.241802
      2          6           0        5.775921    1.026941    0.126959
      3          6           0        4.662785    0.623630    0.870476
      4          6           0        3.641686   -0.058013    0.210168
      5          6           0        3.690512   -0.349088   -1.152249
      6          6           0        4.813187    0.063767   -1.875920
      7          1           0        6.722722    1.066696   -1.811676
      8          1           0        6.582970    1.559474    0.622061
      9          1           0        4.576274    0.825177    1.931284
     10          1           0        2.870225   -0.881655   -1.617996
     11          1           0        4.871355   -0.152925   -2.938796
     12          7           0        2.458209   -0.490032    0.986791
     13          8           0        1.571942   -1.089117    0.381592
     14          8           0        2.439277   -0.221385    2.186002
     15          6           0       -5.243274    2.079839   -0.164707
     16          6           0       -5.786673    0.855015   -0.566014
     17          6           0       -5.016583   -0.311082   -0.524485
     18          6           0       -3.700758   -0.215535   -0.074192
     19          6           0       -3.130826    0.989955    0.332331
     20          6           0       -3.919419    2.143288    0.282397
     21          1           0       -5.848685    2.980733   -0.200233
     22          1           0       -6.814504    0.802750   -0.913688
     23          1           0       -5.412091   -1.272387   -0.829258
     24          1           0       -2.103149    1.010545    0.674201
     25          1           0       -3.494769    3.093129    0.594675
     26          7           0       -2.875704   -1.443273   -0.025777
     27          8           0       -1.719064   -1.332493    0.374908
     28          8           0       -3.401289   -2.493108   -0.389432
 ---------------------------------------------------------------------

 SCF Done:  E(RHF) =  -868.335318326     A.U. after   16 cycles
 E2 =    -0.2600152561D+01 EUMP2 =    -0.87093547088702D+03

 The electronic state is 1-A.
 Alpha  occ. eigenvalues --  -20.60077 -20.59973 -20.59720 -20.59595 -15.85078
 Alpha  occ. eigenvalues --  -15.84702 -11.30732 -11.30412 -11.27353 -11.27309
 Alpha  occ. eigenvalues --  -11.27137 -11.27055 -11.26980 -11.26859 -11.26425
 Alpha  occ. eigenvalues --  -11.26400 -11.26142 -11.26109  -1.59109  -1.58747
 Alpha  occ. eigenvalues --   -1.38650  -1.38281  -1.18935  -1.18628  -1.08279
 Alpha  occ. eigenvalues --   -1.07967  -1.04377  -1.04077  -0.95062  -0.94733
 Alpha  occ. eigenvalues --   -0.85761  -0.85459  -0.81891  -0.81545  -0.76891
 Alpha  occ. eigenvalues --   -0.76541  -0.71342  -0.70812  -0.70457  -0.70097
 Alpha  occ. eigenvalues --   -0.70036  -0.69731  -0.64576  -0.64382  -0.64260
 Alpha  occ. eigenvalues --   -0.64087  -0.61717  -0.61412  -0.54872  -0.54584
 Alpha  occ. eigenvalues --   -0.52699  -0.52470  -0.52397  -0.52172  -0.48089
 Alpha  occ. eigenvalues --   -0.48034  -0.47676  -0.47653  -0.44002  -0.43598
 Alpha  occ. eigenvalues --   -0.36939  -0.36641  -0.35997  -0.35699
 Alpha virt. eigenvalues --    0.05633   0.05989   0.11653   0.11950   0.17072
 Alpha virt. eigenvalues --    0.17413   0.21767   0.22043   0.27661   0.27933
 Alpha virt. eigenvalues --    0.28689   0.28990   0.31299   0.31570   0.32958

 Mulliken charges:
               1
     1  C   -0.171834
     2  C   -0.218687
     3  C   -0.172013
     4  C    0.157987
     5  C   -0.172046
     6  C   -0.218771
     7  H    0.223775
     8  H    0.221559
     9  H    0.274395
    10  H    0.278585
    11  H    0.222432
    12  N    0.485812
    13  O   -0.445077
    14  O   -0.465718
    15  C   -0.172014
    16  C   -0.218858
    17  C   -0.171889
    18  C    0.157990
    19  C   -0.172160
    20  C   -0.219070
    21  H    0.222563
    22  H    0.220625
    23  H    0.274089
    24  H    0.281814
    25  H    0.221327
    26  N    0.486604
    27  O   -0.443516
    28  O   -0.467901
 Sum of Mulliken charges =  -0.00000

 Dipole moment (field-independent basis, Debye):
    X=              1.3746    Y=              5.6843    Z=             -2.8672  Tot=              6.5132
 Quadrupole moment (field-independent basis, Debye-Ang):
   XX=            -52.6619   YY=           -106.1205   ZZ=           -103.1120
   XY=             -7.0222   XZ=             -5.2030   YZ=              3.1313

 Normal termination of Gaussian 16 at Thu May  6 08:06:55 2021.
