 Gaussian 16, Revision A.03,
 Gaussian 16:  EM64L-G16RevA.03 25-Dec-2016

 -------------
 #p 6-31g* mp2
 -------------

 ------------------------------------------------------
 Input file generated by CHIRIPA (05-May-2021 14:57:23)
 ------------------------------------------------------
 Symbolic Z-matrix:
 Charge =  0 Multiplicity = 1

                         Standard orientation:
 ---------------------------------------------------------------------
 Center     Atomic      Atomic             Coordinates (Angstroms)
 Number     Number       Type             X           Y           Z
 ---------------------------------------------------------------------
      1          6           0       -4.156464   -2.466050    0.258476
      2          6           0       -3.291847   -1.865603    1.179574
      3          6           0       -2.940980   -0.518488    1.050266
      4          6           0       -3.475587    0.201696   -0.016890
      5          6           0       -4.339436   -0.368126   -0.950891
      6          6           0       -4.676582   -1.716717   -0.801947
      7          1           0       -4.423696   -3.513095    0.366552
      8          1           0       -2.886400   -2.445104    2.004095
      9          1           0       -2.273749   -0.028566    1.748977
     10          1           0       -4.727623    0.235274   -1.762455
     11          1           0       -5.348278   -2.180404   -1.518791
     12          7           0       -3.111403    1.628607   -0.164176
     13          8           0       -3.595886    2.241371   -1.113088
     14          8           0       -2.348367    2.107238    0.672081
     15          6           0        2.062886    2.038314    0.414082
     16          6           0        3.432234    2.211015    0.186970
     17          6           0        4.257768    1.107388   -0.047649
     18          6           0        3.677987   -0.160343   -0.048131
     19          6           0        2.317212   -0.364900    0.174895
     20          6           0        1.510718    0.753173    0.407331
     21          1           0        1.428986    2.901249    0.595493
     22          1           0        3.863796    3.207899    0.191636
     23          1           0        5.320997    1.212419   -0.226341
     24          1           0        1.915901   -1.371008    0.164158
     25          1           0        0.447592    0.616046    0.583408
     26          7           0        4.541864   -1.336351   -0.295357
     27          8           0        4.006684   -2.442786   -0.290641
     28          8           0        5.737793   -1.129404   -0.489167
 ---------------------------------------------------------------------

 SCF Done:  E(RHF) =  -868.339852172     A.U. after   16 cycles
 E2 =    -0.2598965428D+01 EUMP2 =    -0.87093881760063D+03

 The electronic state is 1-A.
 Alpha  occ. eigenvalues --  -20.61841 -20.61766 -20.60524 -20.60513 -15.86824
 Alpha  occ. eigenvalues --  -15.85570 -11.31992 -11.30786 -11.28565 -11.28472
 Alpha  occ. eigenvalues --  -11.28163 -11.27484 -11.27439 -11.27357 -11.27341
 Alpha  occ. eigenvalues --  -11.26907 -11.26276 -11.26225  -1.60860  -1.59600
 Alpha  occ. eigenvalues --   -1.40424  -1.39159  -1.20125  -1.18928  -1.09546
 Alpha  occ. eigenvalues --   -1.08316  -1.05494  -1.04319  -0.96421  -0.95184
 Alpha  occ. eigenvalues --   -0.86898  -0.85697  -0.83260  -0.82037  -0.78349
 Alpha  occ. eigenvalues --   -0.77132  -0.73049  -0.72167  -0.71789  -0.71211
 Alpha  occ. eigenvalues --   -0.70922  -0.69957  -0.65774  -0.65481  -0.64563
 Alpha  occ. eigenvalues --   -0.64289  -0.62848  -0.61673  -0.55967  -0.54702
 Alpha  occ. eigenvalues --   -0.53830  -0.53574  -0.52648  -0.52393  -0.49819
 Alpha  occ. eigenvalues --   -0.49778  -0.48557  -0.48531  -0.45858  -0.44599
 Alpha  occ. eigenvalues --   -0.38068  -0.37090  -0.36849  -0.35941
 Alpha virt. eigenvalues --    0.04129   0.05407   0.10472   0.11729   0.15695
 Alpha virt. eigenvalues --    0.16956   0.20342   0.22012   0.25724   0.27138
 Alpha virt. eigenvalues --    0.28434   0.28919   0.30185   0.31070   0.32427

 Mulliken charges:
               1
     1  C   -0.169673
     2  C   -0.217990
     3  C   -0.177318
     4  C    0.158943
     5  C   -0.170213
     6  C   -0.217618
     7  H    0.229606
     8  H    0.226683
     9  H    0.272265
    10  H    0.277460
    11  H    0.226931
    12  N    0.489052
    13  O   -0.453898
    14  O   -0.470027
    15  C   -0.171841
    16  C   -0.219232
    17  C   -0.171681
    18  C    0.158152
    19  C   -0.172790
    20  C   -0.223580
    21  H    0.237609
    22  H    0.223287
    23  H    0.274053
    24  H    0.270643
    25  H    0.227707
    26  N    0.488321
    27  O   -0.463640
    28  O   -0.461214
 Sum of Mulliken charges =  -0.00000

 Dipole moment (field-independent basis, Debye):
    X=             -4.7507    Y=             -0.8421    Z=              1.3106  Tot=              4.9996
 Quadrupole moment (field-independent basis, Debye-Ang):
   XX=           -113.6781   YY=           -106.7517   ZZ=           -102.5962
   XY=             36.6211   XZ=              4.2585   YZ=             -0.8691

 Normal termination of Gaussian 16 at Thu May  6 11:16:20 2021.
