 Gaussian 16, Revision A.03,
 Gaussian 16:  EM64L-G16RevA.03 25-Dec-2016

 -------------
 #p 6-31g* mp2
 -------------

 ------------------------------------------------------
 Input file generated by CHIRIPA (05-May-2021 14:51:13)
 ------------------------------------------------------
 Symbolic Z-matrix:
 Charge =  0 Multiplicity = 1

                         Standard orientation:
 ---------------------------------------------------------------------
 Center     Atomic      Atomic             Coordinates (Angstroms)
 Number     Number       Type             X           Y           Z
 ---------------------------------------------------------------------
      1          6           0        2.324086   -0.595229    0.749840
      2          6           0        1.662734   -1.973171    0.793125
      3          6           0        1.732212   -2.619014    2.177269
      4          1           0        3.373848   -0.689490    1.059772
      5          1           0        1.838456    0.060149    1.486072
      6          1           0        2.148551   -2.625345    0.056058
      7          1           0        0.614475   -1.875649    0.482870
      8          1           0        1.230490   -1.991365    2.920863
      9          1           0        2.773282   -2.745320    2.491626
     10          1           0        1.253536   -3.603220    2.185540
     11          6           0        2.262722    0.063210   -0.627266
     12          6           0        2.924073    1.441152   -0.670552
     13          6           0        2.854596    2.086995   -2.054695
     14          1           0        2.748352   -0.592168   -1.363499
     15          1           0        1.212959    0.157471   -0.937198
     16          1           0        3.972332    1.343630   -0.360296
     17          1           0        2.438256    2.093326    0.066516
     18          1           0        1.813525    2.213301   -2.369053
     19          1           0        3.356317    1.459346   -2.798289
     20          1           0        3.333271    3.071201   -2.062966
     21          6           0       -2.340805   -0.034917   -0.761735
     22          6           0       -2.495085   -1.556159   -0.758968
     23          6           0       -2.588593   -2.143422   -2.167575
     24          1           0       -3.192914    0.412715   -1.291339
     25          1           0       -1.441453    0.234403   -1.332724
     26          1           0       -3.393115   -1.822604   -0.186986
     27          1           0       -1.642607   -2.000212   -0.229144
     28          1           0       -1.688643   -1.906494   -2.744252
     29          1           0       -3.449097   -1.727878   -2.701855
     30          1           0       -2.698436   -3.232068   -2.142189
     31          6           0       -2.246002    0.566937    0.639162
     32          6           0       -2.091723    2.088178    0.636394
     33          6           0       -1.998215    2.675441    2.045001
     34          1           0       -3.145354    0.297616    1.210150
     35          1           0       -1.393893    0.119303    1.168765
     36          1           0       -2.944201    2.532231    0.106570
     37          1           0       -1.193693    2.354623    0.064412
     38          1           0       -1.137711    2.259897    2.579281
     39          1           0       -2.898164    2.438514    2.621679
     40          1           0       -1.888372    3.764088    2.019614
 ---------------------------------------------------------------------

 SCF Done:  E(RHF) =  -470.733206319     A.U. after   11 cycles
 E2 =    -0.1584699691D+01 EUMP2 =    -0.47231790600967D+03

 The electronic state is 1-A.
 Alpha  occ. eigenvalues --  -11.21675 -11.21660 -11.21651 -11.21629 -11.21478
 Alpha  occ. eigenvalues --  -11.21475 -11.21419 -11.21415 -11.21135 -11.21121
 Alpha  occ. eigenvalues --  -11.21119 -11.21084  -1.08543  -1.08455  -1.03603
 Alpha  occ. eigenvalues --   -1.03568  -0.96046  -0.96020  -0.87053  -0.87045
 Alpha  occ. eigenvalues --   -0.79714  -0.79593  -0.78325  -0.78305  -0.65510
 Alpha  occ. eigenvalues --   -0.64774  -0.61118  -0.60867  -0.59431  -0.59369
 Alpha  occ. eigenvalues --   -0.57650  -0.57639  -0.55407  -0.55238  -0.52732
 Alpha  occ. eigenvalues --   -0.52714  -0.52483  -0.52432  -0.49997  -0.49982
 Alpha  occ. eigenvalues --   -0.48091  -0.47909  -0.46944  -0.46513  -0.46157
 Alpha  occ. eigenvalues --   -0.45813  -0.45638  -0.45427  -0.43847  -0.43834
 Alpha virt. eigenvalues --    0.18196   0.22394   0.22997   0.24516   0.25522
 Alpha virt. eigenvalues --    0.26916   0.27326   0.27811   0.27953   0.30491
 Alpha virt. eigenvalues --    0.30766   0.31480   0.31735   0.31887   0.32396

 Mulliken charges:
               1
     1  C   -0.297749
     2  C   -0.310415
     3  C   -0.475289
     4  H    0.150274
     5  H    0.149169
     6  H    0.152347
     7  H    0.160953
     8  H    0.155087
     9  H    0.155547
    10  H    0.160525
    11  C   -0.303948
    12  C   -0.299825
    13  C   -0.475856
    14  H    0.149917
    15  H    0.153896
    16  H    0.152368
    17  H    0.152135
    18  H    0.154859
    19  H    0.155404
    20  H    0.160658
    21  C   -0.301870
    22  C   -0.307090
    23  C   -0.475457
    24  H    0.150382
    25  H    0.152197
    26  H    0.152369
    27  H    0.158522
    28  H    0.155663
    29  H    0.155204
    30  H    0.160409
    31  C   -0.300954
    32  C   -0.300187
    33  C   -0.475708
    34  H    0.150182
    35  H    0.151234
    36  H    0.152483
    37  H    0.151698
    38  H    0.154668
    39  H    0.155566
    40  H    0.160632
 Sum of Mulliken charges =  -0.00000

 Dipole moment (field-independent basis, Debye):
    X=             -0.0035    Y=             -0.0093    Z=             -0.0035  Tot=              0.0106
 Quadrupole moment (field-independent basis, Debye-Ang):
   XX=            -82.8201   YY=            -85.2126   ZZ=            -86.5037
   XY=             -0.5806   XZ=             -0.3162   YZ=              0.1301

 Normal termination of Gaussian 16 at Thu May  6 05:33:58 2021.
