 Gaussian 16, Revision A.03,
 Gaussian 16:  EM64L-G16RevA.03 25-Dec-2016

 -------------
 #p 6-31g* mp2
 -------------

 ------------------------------------------------------
 Input file generated by CHIRIPA (05-May-2021 14:53:16)
 ------------------------------------------------------
 Symbolic Z-matrix:
 Charge =  0 Multiplicity = 1

                         Standard orientation:
 ---------------------------------------------------------------------
 Center     Atomic      Atomic             Coordinates (Angstroms)
 Number     Number       Type             X           Y           Z
 ---------------------------------------------------------------------
      1          6           0        2.988121   -0.149049    0.178600
      2          6           0        4.171085   -0.991781   -0.299297
      3          6           0        4.573582   -2.070117    0.707172
      4          1           0        3.244462    0.320379    1.138220
      5          1           0        2.131297   -0.809082    0.372517
      6          1           0        5.025001   -0.330193   -0.493578
      7          1           0        3.911969   -1.459104   -1.257986
      8          1           0        3.738887   -2.753456    0.894076
      9          1           0        4.858243   -1.618131    1.662827
     10          1           0        5.421046   -2.660698    0.345399
     11          6           0        2.573982    0.933266   -0.816795
     12          6           0        1.391019    1.775998   -0.338897
     13          6           0        0.988521    2.854335   -1.345366
     14          1           0        3.430806    1.593300   -1.010711
     15          1           0        2.317641    0.463838   -1.776415
     16          1           0        1.650135    2.243321    0.619791
     17          1           0        0.537102    1.114411   -0.144617
     18          1           0        0.703860    2.402349   -2.301022
     19          1           0        1.823217    3.537673   -1.532271
     20          1           0        0.141058    3.444915   -0.983594
     21          6           0       -1.675558    1.763674    1.603487
     22          6           0       -2.316538    1.874494    0.365188
     23          6           0       -2.596980    0.734321   -0.393697
     24          6           0       -2.220758   -0.506456    0.118377
     25          6           0       -1.580901   -0.649498    1.348584
     26          6           0       -1.310429    0.504253    2.090375
     27          1           0       -1.461576    2.654662    2.186367
     28          1           0       -2.601252    2.851281   -0.015430
     29          1           0       -3.092118    0.791323   -1.355470
     30          1           0       -1.309203   -1.636866    1.701715
     31          1           0       -0.812522    0.415172    3.051727
     32          7           0       -2.512372   -1.720693   -0.675973
     33          8           0       -2.170689   -2.802286   -0.202640
     34          8           0       -3.077101   -1.567825   -1.756875
 ---------------------------------------------------------------------

 SCF Done:  E(RHF) =  -669.534163307     A.U. after   15 cycles
 E2 =    -0.2095112756D+01 EUMP2 =    -0.67162927606344D+03

 The electronic state is 1-A.
 Alpha  occ. eigenvalues --  -20.60874 -20.60869 -15.85928 -11.31329 -11.27871
 Alpha  occ. eigenvalues --  -11.27867 -11.27554 -11.26856 -11.26841 -11.21661
 Alpha  occ. eigenvalues --  -11.21647 -11.21520 -11.21448 -11.21381 -11.21111
 Alpha  occ. eigenvalues --   -1.59950  -1.39501  -1.19496  -1.08880  -1.08529
 Alpha  occ. eigenvalues --   -1.04877  -1.03653  -0.96128  -0.95696  -0.87146
 Alpha  occ. eigenvalues --   -0.86264  -0.82522  -0.79727  -0.78369  -0.77577
 Alpha  occ. eigenvalues --   -0.72140  -0.71277  -0.70563  -0.65186  -0.65118
 Alpha  occ. eigenvalues --   -0.64864  -0.62219  -0.61083  -0.59561  -0.57786
 Alpha  occ. eigenvalues --   -0.55436  -0.55352  -0.53319  -0.52979  -0.52722
 Alpha  occ. eigenvalues --   -0.52550  -0.50042  -0.48903  -0.48897  -0.48001
 Alpha  occ. eigenvalues --   -0.46681  -0.45898  -0.45729  -0.44899  -0.43916
 Alpha  occ. eigenvalues --   -0.37396  -0.36468
 Alpha virt. eigenvalues --    0.04925   0.11087   0.16408   0.20866   0.22904
 Alpha virt. eigenvalues --    0.24138   0.26303   0.26457   0.27421   0.28118
 Alpha virt. eigenvalues --    0.28490   0.30285   0.31258   0.31727   0.31946

 Mulliken charges:
               1
     1  C   -0.298175
     2  C   -0.299748
     3  C   -0.476162
     4  H    0.145621
     5  H    0.149271
     6  H    0.151497
     7  H    0.154964
     8  H    0.156678
     9  H    0.152920
    10  H    0.161444
    11  C   -0.298351
    12  C   -0.303720
    13  C   -0.474085
    14  H    0.148283
    15  H    0.152241
    16  H    0.143062
    17  H    0.165473
    18  H    0.157185
    19  H    0.154969
    20  H    0.149871
    21  C   -0.168831
    22  C   -0.215566
    23  C   -0.172700
    24  C    0.158898
    25  C   -0.173387
    26  C   -0.216728
    27  H    0.226187
    28  H    0.224150
    29  H    0.276286
    30  H    0.276096
    31  H    0.224436
    32  N    0.488036
    33  O   -0.460199
    34  O   -0.459918
 Sum of Mulliken charges =  -0.00000

 Dipole moment (field-independent basis, Debye):
    X=              0.9272    Y=              4.1913    Z=              2.8044  Tot=              5.1275
 Quadrupole moment (field-independent basis, Debye-Ang):
   XX=            -98.9989   YY=            -98.5220   ZZ=            -92.0287
   XY=            -10.9829   XZ=             -4.5491   YZ=             -2.2502

 Normal termination of Gaussian 16 at Thu May  6 01:09:47 2021.
