 Gaussian 16, Revision A.03,
 Gaussian 16:  EM64L-G16RevA.03 25-Dec-2016

 -------------
 #p 6-31g* mp2
 -------------

 ------------------------------------------------------
 Input file generated by CHIRIPA (05-May-2021 14:57:25)
 ------------------------------------------------------
 Symbolic Z-matrix:
 Charge =  0 Multiplicity = 1

                         Standard orientation:
 ---------------------------------------------------------------------
 Center     Atomic      Atomic             Coordinates (Angstroms)
 Number     Number       Type             X           Y           Z
 ---------------------------------------------------------------------
      1          6           0        1.297231   -0.331094    0.856127
      2          6           0        1.874612    0.938917    0.755006
      3          6           0        3.208792    1.083133    0.362943
      4          6           0        3.939702   -0.069263    0.078258
      5          6           0        3.392829   -1.348268    0.169717
      6          6           0        2.056843   -1.468627    0.563676
      7          1           0        0.260106   -0.433858    1.161428
      8          1           0        1.287084    1.824101    0.981509
      9          1           0        3.680828    2.054277    0.276460
     10          1           0        4.003757   -2.212106   -0.062595
     11          1           0        1.611066   -2.456198    0.641348
     12          7           0        5.353094    0.070784   -0.337805
     13          8           0        5.975708   -0.960146   -0.583106
     14          8           0        5.811535    1.208831   -0.410735
     15          6           0       -3.139493    2.550769   -0.163701
     16          6           0       -2.136658    1.599491   -0.377978
     17          6           0       -2.439474    0.234647   -0.370800
     18          6           0       -3.761599   -0.145327   -0.145199
     19          6           0       -4.782900    0.778412    0.071454
     20          6           0       -4.457092    2.137920    0.059936
     21          1           0       -2.895328    3.608940   -0.170963
     22          1           0       -1.112528    1.917215   -0.551916
     23          1           0       -1.682659   -0.523013   -0.533894
     24          1           0       -5.794673    0.431131    0.242130
     25          1           0       -5.237955    2.874471    0.226640
     26          7           0       -4.094347   -1.587402   -0.135304
     27          8           0       -5.266850   -1.896361    0.065742
     28          8           0       -3.176353   -2.381436   -0.328779
 ---------------------------------------------------------------------

 SCF Done:  E(RHF) =  -868.337579971     A.U. after   16 cycles
 E2 =    -0.2600659580D+01 EUMP2 =    -0.87093823955130D+03

 The electronic state is 1-A.
 Alpha  occ. eigenvalues --  -20.61590 -20.61562 -20.61091 -20.61079 -15.86635
 Alpha  occ. eigenvalues --  -15.86144 -11.32070 -11.31617 -11.28689 -11.28592
 Alpha  occ. eigenvalues --  -11.28359 -11.28237 -11.28134 -11.27955 -11.27709
 Alpha  occ. eigenvalues --  -11.27605 -11.27338 -11.27139  -1.60651  -1.60161
 Alpha  occ. eigenvalues --   -1.40205  -1.39711  -1.20243  -1.19799  -1.09614
 Alpha  occ. eigenvalues --   -1.09185  -1.05663  -1.05210  -0.96445  -0.95996
 Alpha  occ. eigenvalues --   -0.87055  -0.86604  -0.83281  -0.82819  -0.78333
 Alpha  occ. eigenvalues --   -0.77842  -0.72851  -0.72359  -0.71977  -0.71484
 Alpha  occ. eigenvalues --   -0.71412  -0.70848  -0.65892  -0.65699  -0.65438
 Alpha  occ. eigenvalues --   -0.65203  -0.63006  -0.62530  -0.56152  -0.55723
 Alpha  occ. eigenvalues --   -0.53964  -0.53735  -0.53531  -0.53277  -0.49615
 Alpha  occ. eigenvalues --   -0.49598  -0.49127  -0.49108  -0.45595  -0.45092
 Alpha  occ. eigenvalues --   -0.38204  -0.37822  -0.37256  -0.36809
 Alpha virt. eigenvalues --    0.04165   0.04658   0.10305   0.10707   0.15578
 Alpha virt. eigenvalues --    0.16030   0.19291   0.22030   0.25194   0.26221
 Alpha virt. eigenvalues --    0.27805   0.29343   0.29710   0.31047   0.31825

 Mulliken charges:
               1
     1  C   -0.179413
     2  C   -0.223934
     3  C   -0.170424
     4  C    0.159309
     5  C   -0.169735
     6  C   -0.218878
     7  H    0.229428
     8  H    0.218323
     9  H    0.275737
    10  H    0.278539
    11  H    0.232002
    12  N    0.488001
    13  O   -0.458048
    14  O   -0.460264
    15  C   -0.170280
    16  C   -0.223998
    17  C   -0.179070
    18  C    0.160293
    19  C   -0.169808
    20  C   -0.217583
    21  H    0.228054
    22  H    0.223921
    23  H    0.273705
    24  H    0.278359
    25  H    0.226909
    26  N    0.488294
    27  O   -0.456526
    28  O   -0.462912
 Sum of Mulliken charges =  -0.00000

 Dipole moment (field-independent basis, Debye):
    X=             -3.8967    Y=              4.5013    Z=              1.4194  Tot=              6.1205
 Quadrupole moment (field-independent basis, Debye-Ang):
   XX=           -147.0720   YY=           -101.1821   ZZ=           -106.0863
   XY=            -23.3284   XZ=              4.3657   YZ=             -0.2985

 Normal termination of Gaussian 16 at Thu May  6 06:41:35 2021.
