 Gaussian 16, Revision A.03,
 Gaussian 16:  EM64L-G16RevA.03 25-Dec-2016

 -------------
 #p 6-31g* mp2
 -------------

 ------------------------------------------------------
 Input file generated by CHIRIPA (05-May-2021 14:57:22)
 ------------------------------------------------------
 Symbolic Z-matrix:
 Charge =  0 Multiplicity = 1

                         Standard orientation:
 ---------------------------------------------------------------------
 Center     Atomic      Atomic             Coordinates (Angstroms)
 Number     Number       Type             X           Y           Z
 ---------------------------------------------------------------------
      1          6           0       -5.877301    1.122983   -0.175757
      2          6           0       -4.802936    1.890955    0.285197
      3          6           0       -3.523582    1.335742    0.382879
      4          6           0       -3.353683    0.003458    0.009458
      5          6           0       -4.404095   -0.787473   -0.453525
      6          6           0       -5.674809   -0.211428   -0.543000
      7          1           0       -6.867778    1.562377   -0.248451
      8          1           0       -4.957248    2.927532    0.571099
      9          1           0       -2.674193    1.907532    0.736449
     10          1           0       -4.219229   -1.818077   -0.731189
     11          1           0       -6.507325   -0.810229   -0.901327
     12          7           0       -2.003862   -0.595348    0.108524
     13          8           0       -1.880385   -1.771378   -0.226654
     14          8           0       -1.094908    0.122676    0.519475
     15          6           0        1.792113   -1.799997    0.554999
     16          6           0        2.163472   -1.579483   -0.775409
     17          6           0        3.150756   -0.641213   -1.090796
     18          6           0        3.748623    0.061993   -0.046121
     19          6           0        3.400409   -0.135178    1.289229
     20          6           0        2.410676   -1.078413    1.581263
     21          1           0        1.024216   -2.530797    0.790929
     22          1           0        1.684791   -2.138420   -1.574471
     23          1           0        3.457467   -0.450616   -2.112079
     24          1           0        3.895535    0.437325    2.064155
     25          1           0        2.124288   -1.247584    2.615385
     26          7           0        4.795113    1.057926   -0.367646
     27          8           0        5.306679    1.664512    0.570965
     28          8           0        5.083971    1.213094   -1.552180
 ---------------------------------------------------------------------

 SCF Done:  E(RHF) =  -868.340005700     A.U. after   16 cycles
 E2 =    -0.2599498903D+01 EUMP2 =    -0.87093950460268D+03

 The electronic state is 1-A.
 Alpha  occ. eigenvalues --  -20.61765 -20.61727 -20.59641 -20.59636 -15.86750
 Alpha  occ. eigenvalues --  -15.84688 -11.31838 -11.29662 -11.28384 -11.28351
 Alpha  occ. eigenvalues --  -11.28057 -11.27325 -11.27301 -11.26275 -11.26255
 Alpha  occ. eigenvalues --  -11.25739 -11.25101 -11.25046  -1.60809  -1.58728
 Alpha  occ. eigenvalues --   -1.40365  -1.38293  -1.19983  -1.17802  -1.09433
 Alpha  occ. eigenvalues --   -1.07216  -1.05340  -1.03187  -0.96315  -0.94128
 Alpha  occ. eigenvalues --   -0.86751  -0.84582  -0.83152  -0.81014  -0.78233
 Alpha  occ. eigenvalues --   -0.76144  -0.72980  -0.72105  -0.71084  -0.70919
 Alpha  occ. eigenvalues --   -0.70050  -0.68846  -0.65636  -0.65337  -0.63454
 Alpha  occ. eigenvalues --   -0.63198  -0.62688  -0.60587  -0.55856  -0.53691
 Alpha  occ. eigenvalues --   -0.53574  -0.53424  -0.51576  -0.51293  -0.49758
 Alpha  occ. eigenvalues --   -0.49610  -0.47691  -0.47635  -0.45829  -0.43790
 Alpha  occ. eigenvalues --   -0.37946  -0.36930  -0.35561  -0.34801
 Alpha virt. eigenvalues --    0.04273   0.06433   0.10729   0.12887   0.15837
 Alpha virt. eigenvalues --    0.18064   0.20912   0.23026   0.26839   0.27786
 Alpha virt. eigenvalues --    0.28741   0.29972   0.30527   0.31982   0.32670

 Mulliken charges:
               1
     1  C   -0.169721
     2  C   -0.218557
     3  C   -0.170455
     4  C    0.157730
     5  C   -0.170808
     6  C   -0.218553
     7  H    0.227982
     8  H    0.226145
     9  H    0.277454
    10  H    0.274706
    11  H    0.225058
    12  N    0.488582
    13  O   -0.470412
    14  O   -0.455245
    15  C   -0.148302
    16  C   -0.219063
    17  C   -0.172779
    18  C    0.155881
    19  C   -0.172176
    20  C   -0.217162
    21  H    0.234265
    22  H    0.221797
    23  H    0.269402
    24  H    0.269335
    25  H    0.217476
    26  N    0.488403
    27  O   -0.465555
    28  O   -0.465429
 Sum of Mulliken charges =  -0.00000

 Dipole moment (field-independent basis, Debye):
    X=             -9.1173    Y=             -1.4492    Z=              0.8463  Tot=              9.2705
 Quadrupole moment (field-independent basis, Debye-Ang):
   XX=           -102.3709   YY=           -101.9851   ZZ=           -100.7380
   XY=            -19.5280   XZ=              6.9902   YZ=              3.1195

 Normal termination of Gaussian 16 at Thu May  6 16:14:03 2021.
