 Gaussian 16, Revision A.03,
 Gaussian 16:  EM64L-G16RevA.03 25-Dec-2016

 -------------
 #p 6-31g* mp2
 -------------

 ------------------------------------------------------
 Input file generated by CHIRIPA (05-May-2021 14:51:09)
 ------------------------------------------------------
 Symbolic Z-matrix:
 Charge =  0 Multiplicity = 1

                         Standard orientation:
 ---------------------------------------------------------------------
 Center     Atomic      Atomic             Coordinates (Angstroms)
 Number     Number       Type             X           Y           Z
 ---------------------------------------------------------------------
      1          6           0       -3.880344    0.037173    0.380419
      2          6           0       -4.881692    0.652312   -0.597790
      3          6           0       -5.905333    1.553869    0.092968
      4          1           0       -4.426100   -0.539814    1.139485
      5          1           0       -3.358779    0.842848    0.915445
      6          1           0       -5.400229   -0.154264   -1.131804
      7          1           0       -4.333476    1.227743   -1.354727
      8          1           0       -5.404954    2.378282    0.611200
      9          1           0       -6.477769    0.988423    0.835390
     10          1           0       -6.611350    1.983054   -0.624807
     11          6           0       -2.850570   -0.866665   -0.295134
     12          6           0       -1.849223   -1.481804    0.683075
     13          6           0       -0.825581   -2.383361   -0.007683
     14          1           0       -3.372135   -1.672340   -0.830160
     15          1           0       -2.304814   -0.289678   -1.054200
     16          1           0       -2.397438   -2.057235    1.440012
     17          1           0       -1.330685   -0.675228    1.217089
     18          1           0       -0.253146   -1.817915   -0.750105
     19          1           0       -1.325960   -3.207774   -0.525915
     20          1           0       -0.119565   -2.812546    0.710092
     21          6           0        3.107881    1.073589   -0.330761
     22          6           0        3.544426    2.298801    0.473147
     23          6           0        3.021316    3.609300   -0.115699
     24          1           0        3.459500    1.178092   -1.366322
     25          1           0        2.010330    1.044587   -0.374756
     26          1           0        4.640802    2.324722    0.516786
     27          1           0        3.191891    2.191279    1.506963
     28          1           0        1.926880    3.609117   -0.144144
     29          1           0        3.384023    3.743318   -1.139948
     30          1           0        3.345206    4.472192    0.474532
     31          6           0        3.623034   -0.244097    0.245475
     32          6           0        3.186488   -1.469309   -0.558433
     33          6           0        3.709598   -2.779808    0.030414
     34          1           0        4.720585   -0.215096    0.289471
     35          1           0        3.271414   -0.348600    1.281037
     36          1           0        3.539024   -1.361787   -1.592248
     37          1           0        2.090112   -1.495230   -0.602072
     38          1           0        3.346891   -2.913826    1.054663
     39          1           0        4.804035   -2.779625    0.058860
     40          1           0        3.385709   -3.642701   -0.559817
 ---------------------------------------------------------------------

 SCF Done:  E(RHF) =  -470.733114834     A.U. after   11 cycles
 E2 =    -0.1582807174D+01 EUMP2 =    -0.47231592200807D+03

 The electronic state is 1-A.
 Alpha  occ. eigenvalues --  -11.21668 -11.21630 -11.21607 -11.21484 -11.21450
 Alpha  occ. eigenvalues --  -11.21393 -11.21390 -11.21320 -11.21130 -11.21093
 Alpha  occ. eigenvalues --  -11.21086 -11.21016  -1.08479  -1.08403  -1.03587
 Alpha  occ. eigenvalues --   -1.03490  -0.96036  -0.95949  -0.87054  -0.86965
 Alpha  occ. eigenvalues --   -0.79684  -0.79527  -0.78297  -0.78210  -0.65160
 Alpha  occ. eigenvalues --   -0.64998  -0.61097  -0.60804  -0.59399  -0.59311
 Alpha  occ. eigenvalues --   -0.57638  -0.57564  -0.55366  -0.55210  -0.52724
 Alpha  occ. eigenvalues --   -0.52640  -0.52460  -0.52375  -0.50088  -0.49825
 Alpha  occ. eigenvalues --   -0.48001  -0.47845  -0.46825  -0.46451  -0.45879
 Alpha  occ. eigenvalues --   -0.45774  -0.45740  -0.45531  -0.43825  -0.43752
 Alpha virt. eigenvalues --    0.21165   0.23167   0.23771   0.24669   0.25946
 Alpha virt. eigenvalues --    0.26871   0.27004   0.27613   0.27770   0.29040
 Alpha virt. eigenvalues --    0.30826   0.31259   0.31738   0.31884   0.32426

 Mulliken charges:
               1
     1  C   -0.298312
     2  C   -0.299716
     3  C   -0.475737
     4  H    0.149782
     5  H    0.149411
     6  H    0.152031
     7  H    0.152047
     8  H    0.155212
     9  H    0.155217
    10  H    0.160395
    11  C   -0.298668
    12  C   -0.299771
    13  C   -0.480629
    14  H    0.149824
    15  H    0.149869
    16  H    0.152358
    17  H    0.151428
    18  H    0.158863
    19  H    0.155992
    20  H    0.161523
    21  C   -0.298195
    22  C   -0.299616
    23  C   -0.475633
    24  H    0.149673
    25  H    0.148319
    26  H    0.152125
    27  H    0.151870
    28  H    0.154746
    29  H    0.155226
    30  H    0.160305
    31  C   -0.297581
    32  C   -0.308498
    33  C   -0.475164
    34  H    0.149292
    35  H    0.149233
    36  H    0.151036
    37  H    0.162033
    38  H    0.154418
    39  H    0.154802
    40  H    0.160490
 Sum of Mulliken charges =  -0.00000

 Dipole moment (field-independent basis, Debye):
    X=             -0.0424    Y=             -0.0201    Z=             -0.0069  Tot=              0.0475
 Quadrupole moment (field-independent basis, Debye-Ang):
   XX=            -84.5033   YY=            -85.6295   ZZ=            -84.6709
   XY=              1.4828   XZ=             -0.3774   YZ=             -0.0689

 Normal termination of Gaussian 16 at Thu May  6 05:20:53 2021.
