 Gaussian 16, Revision A.03,
 Gaussian 16:  EM64L-G16RevA.03 25-Dec-2016

 -------------
 #p 6-31g* mp2
 -------------

 ------------------------------------------------------
 Input file generated by CHIRIPA (05-May-2021 14:57:25)
 ------------------------------------------------------
 Symbolic Z-matrix:
 Charge =  0 Multiplicity = 1

                         Standard orientation:
 ---------------------------------------------------------------------
 Center     Atomic      Atomic             Coordinates (Angstroms)
 Number     Number       Type             X           Y           Z
 ---------------------------------------------------------------------
      1          6           0        0.570084    2.703864    0.278342
      2          6           0        1.247620    2.496940   -0.927747
      3          6           0        2.101311    1.400818   -1.083549
      4          6           0        2.254829    0.527618   -0.007797
      5          6           0        1.593678    0.706755    1.206320
      6          6           0        0.744967    1.809687    1.339654
      7          1           0       -0.091149    3.558004    0.390646
      8          1           0        1.113720    3.189734   -1.753672
      9          1           0        2.638097    1.216778   -2.006267
     10          1           0        1.747352   -0.001096    2.011769
     11          1           0        0.220069    1.967887    2.277471
     12          7           0        3.155957   -0.636403   -0.160845
     13          8           0        3.274156   -1.391138    0.801984
     14          8           0        3.727000   -0.771986   -1.240736
     15          6           0       -3.642972    1.267505   -0.255254
     16          6           0       -3.032698    0.997748    0.974104
     17          6           0       -2.179435   -0.100412    1.117407
     18          6           0       -1.957753   -0.911555    0.005564
     19          6           0       -2.550969   -0.669000   -1.232398
     20          6           0       -3.400587    0.434739   -1.352646
     21          1           0       -4.304390    2.122749   -0.357620
     22          1           0       -3.219104    1.642770    1.828062
     23          1           0       -1.693909   -0.332376    2.057554
     24          1           0       -2.345842   -1.330080   -2.065653
     25          1           0       -3.873163    0.641811   -2.308594
     26          7           0       -1.056373   -2.077081    0.145070
     27          8           0       -0.877372   -2.776426   -0.849672
     28          8           0       -0.545938   -2.269205    1.246515
 ---------------------------------------------------------------------

 SCF Done:  E(RHF) =  -868.335189966     A.U. after   16 cycles
 E2 =    -0.2604808912D+01 EUMP2 =    -0.87093999887808D+03

 The electronic state is 1-A.
 Alpha  occ. eigenvalues --  -20.60911 -20.60905 -20.60191 -20.60125 -15.85954
 Alpha  occ. eigenvalues --  -15.85230 -11.31485 -11.30916 -11.28186 -11.28085
 Alpha  occ. eigenvalues --  -11.27926 -11.27565 -11.27483 -11.27422 -11.27213
 Alpha  occ. eigenvalues --  -11.27128 -11.26687 -11.26654  -1.59968  -1.59226
 Alpha  occ. eigenvalues --   -1.39523  -1.38769  -1.19713  -1.19150  -1.09072
 Alpha  occ. eigenvalues --   -1.08495  -1.05173  -1.04603  -0.95877  -0.95262
 Alpha  occ. eigenvalues --   -0.86554  -0.85993  -0.82719  -0.82104  -0.77745
 Alpha  occ. eigenvalues --   -0.77063  -0.72169  -0.71451  -0.71330  -0.70854
 Alpha  occ. eigenvalues --   -0.70528  -0.70254  -0.65382  -0.65191  -0.64798
 Alpha  occ. eigenvalues --   -0.64643  -0.62544  -0.61912  -0.55670  -0.55133
 Alpha  occ. eigenvalues --   -0.53801  -0.53275  -0.52721  -0.52585  -0.48933
 Alpha  occ. eigenvalues --   -0.48918  -0.48238  -0.48170  -0.44901  -0.44084
 Alpha  occ. eigenvalues --   -0.37750  -0.37553  -0.36773  -0.35702
 Alpha virt. eigenvalues --    0.04752   0.05502   0.10853   0.11412   0.16268
 Alpha virt. eigenvalues --    0.16916   0.20031   0.21921   0.25689   0.27313
 Alpha virt. eigenvalues --    0.28281   0.28964   0.30439   0.31036   0.32332

 Mulliken charges:
               1
     1  C   -0.167235
     2  C   -0.219620
     3  C   -0.170724
     4  C    0.155477
     5  C   -0.169208
     6  C   -0.219611
     7  H    0.219556
     8  H    0.220662
     9  H    0.275944
    10  H    0.283877
    11  H    0.214736
    12  N    0.489209
    13  O   -0.451151
    14  O   -0.462585
    15  C   -0.172300
    16  C   -0.221697
    17  C   -0.164440
    18  C    0.161002
    19  C   -0.169590
    20  C   -0.219151
    21  H    0.224228
    22  H    0.218365
    23  H    0.270135
    24  H    0.277910
    25  H    0.223786
    26  N    0.487016
    27  O   -0.455143
    28  O   -0.459445
 Sum of Mulliken charges =  -0.00000

 Dipole moment (field-independent basis, Debye):
    X=             -6.2080    Y=              7.8474    Z=             -0.0154  Tot=             10.0060
 Quadrupole moment (field-independent basis, Debye-Ang):
   XX=           -107.9154   YY=           -108.8475   ZZ=            -96.0615
   XY=              2.7753   XZ=              2.3810   YZ=              0.3315

 Normal termination of Gaussian 16 at Wed May  5 22:47:38 2021.
