 Gaussian 16, Revision A.03,
 Gaussian 16:  EM64L-G16RevA.03 25-Dec-2016

 -------------
 #p 6-31g* mp2
 -------------

 ------------------------------------------------------
 Input file generated by CHIRIPA (05-May-2021 14:55:22)
 ------------------------------------------------------
 Symbolic Z-matrix:
 Charge =  0 Multiplicity = 1

                         Standard orientation:
 ---------------------------------------------------------------------
 Center     Atomic      Atomic             Coordinates (Angstroms)
 Number     Number       Type             X           Y           Z
 ---------------------------------------------------------------------
      1          6           0        1.202832    0.530738   -0.699387
      2          6           0        1.765023   -0.734912   -0.895840
      3          6           0        3.115558   -0.963185   -0.615671
      4          6           0        3.878134    0.101620   -0.138222
      5          6           0        3.347052    1.373927    0.067872
      6          6           0        1.994246    1.579269   -0.219005
      7          1           0        0.152822    0.699159   -0.919634
      8          1           0        1.152799   -1.551077   -1.268804
      9          1           0        3.576413   -1.933029   -0.758615
     10          1           0        3.982616    2.167906    0.440798
     11          1           0        1.560327    2.563236   -0.065478
     12          7           0        5.309087   -0.127905    0.161931
     13          8           0        5.959585    0.826750    0.581603
     14          8           0        5.753076   -1.258115   -0.028164
     15          6           0       -5.251281    0.307187    0.218854
     16          6           0       -6.512873   -0.296736   -0.398922
     17          6           0       -7.682780    0.687050   -0.434671
     18          1           0       -5.477012    0.647887    1.238617
     19          1           0       -4.963100    1.200427   -0.352521
     20          1           0       -6.797799   -1.189363    0.172611
     21          1           0       -6.284063   -0.636212   -1.417262
     22          1           0       -7.422698    1.573727   -1.021838
     23          1           0       -7.939352    1.017432    0.577069
     24          1           0       -8.574275    0.234659   -0.880137
     25          6           0       -4.072996   -0.664175    0.261635
     26          6           0       -2.811404   -0.060251    0.879411
     27          6           0       -1.641499   -1.044038    0.915161
     28          1           0       -4.361177   -1.557414    0.833010
     29          1           0       -3.847266   -1.004874   -0.758127
     30          1           0       -3.040214    0.279224    1.897752
     31          1           0       -2.526480    0.832376    0.307878
     32          1           0       -1.384925   -1.374419   -0.096580
     33          1           0       -1.901580   -1.930713    1.502327
     34          1           0       -0.750004   -0.591646    1.360626
 ---------------------------------------------------------------------

 SCF Done:  E(RHF) =  -669.534848076     A.U. after   15 cycles
 E2 =    -0.2092028168D+01 EUMP2 =    -0.67162687624437D+03

 The electronic state is 1-A.
 Alpha  occ. eigenvalues --  -20.60726 -20.60720 -15.85780 -11.31134 -11.27717
 Alpha  occ. eigenvalues --  -11.27704 -11.27419 -11.26719 -11.26696 -11.22612
 Alpha  occ. eigenvalues --  -11.22206 -11.22171 -11.22079 -11.22049 -11.21553
 Alpha  occ. eigenvalues --   -1.59802  -1.39356  -1.19315  -1.09210  -1.08709
 Alpha  occ. eigenvalues --   -1.04718  -1.04311  -0.96761  -0.95537  -0.87773
 Alpha  occ. eigenvalues --   -0.86110  -0.82375  -0.80384  -0.78990  -0.77424
 Alpha  occ. eigenvalues --   -0.71998  -0.71126  -0.70443  -0.65851  -0.64965
 Alpha  occ. eigenvalues --   -0.64726  -0.62083  -0.61700  -0.60133  -0.58355
 Alpha  occ. eigenvalues --   -0.56114  -0.55123  -0.53561  -0.53204  -0.52876
 Alpha  occ. eigenvalues --   -0.52796  -0.50695  -0.48761  -0.48753  -0.48683
 Alpha  occ. eigenvalues --   -0.47437  -0.46534  -0.46449  -0.44764  -0.44545
 Alpha  occ. eigenvalues --   -0.37238  -0.36321
 Alpha virt. eigenvalues --    0.05095   0.11300   0.16523   0.19494   0.22520
 Alpha virt. eigenvalues --    0.23898   0.25402   0.25712   0.26862   0.27769
 Alpha virt. eigenvalues --    0.28853   0.29759   0.30872   0.31319   0.31852

 Mulliken charges:
               1
     1  C   -0.170376
     2  C   -0.218390
     3  C   -0.171341
     4  C    0.158121
     5  C   -0.170811
     6  C   -0.220963
     7  H    0.230354
     8  H    0.223922
     9  H    0.275483
    10  H    0.275405
    11  H    0.223184
    12  N    0.488107
    13  O   -0.460671
    14  O   -0.460560
    15  C   -0.298596
    16  C   -0.300141
    17  C   -0.476073
    18  H    0.151425
    19  H    0.148476
    20  H    0.153300
    21  H    0.151987
    22  H    0.155243
    23  H    0.156154
    24  H    0.161958
    25  C   -0.298165
    26  C   -0.301993
    27  C   -0.481105
    28  H    0.152735
    29  H    0.148022
    30  H    0.157144
    31  H    0.144473
    32  H    0.144324
    33  H    0.161318
    34  H    0.168047
 Sum of Mulliken charges =  -0.00000

 Dipole moment (field-independent basis, Debye):
    X=             -5.2253    Y=              0.7761    Z=             -0.9726  Tot=              5.3714
 Quadrupole moment (field-independent basis, Debye-Ang):
   XX=           -134.6867   YY=            -90.3452   ZZ=            -93.8971
   XY=              3.8670   XZ=             -3.8517   YZ=              1.0186

 Normal termination of Gaussian 16 at Thu May  6 06:16:16 2021.
