 Gaussian 16, Revision A.03,
 Gaussian 16:  EM64L-G16RevA.03 25-Dec-2016

 -------------
 #p 6-31g* mp2
 -------------

 ------------------------------------------------------
 Input file generated by CHIRIPA (05-May-2021 14:55:22)
 ------------------------------------------------------
 Symbolic Z-matrix:
 Charge =  0 Multiplicity = 1

                         Standard orientation:
 ---------------------------------------------------------------------
 Center     Atomic      Atomic             Coordinates (Angstroms)
 Number     Number       Type             X           Y           Z
 ---------------------------------------------------------------------
      1          6           0        3.329028    2.596114    0.018807
      2          6           0        2.356359    1.862681    0.706203
      3          6           0        2.389227    0.465016    0.706215
      4          6           0        3.413578   -0.169561    0.005283
      5          6           0        4.397045    0.533221   -0.689109
      6          6           0        4.344477    1.930217   -0.675431
      7          1           0        3.295844    3.681594    0.024116
      8          1           0        1.566580    2.377155    1.246213
      9          1           0        1.648900   -0.127449    1.229971
     10          1           0        5.172022   -0.007771   -1.218408
     11          1           0        5.101194    2.497224   -1.210152
     12          7           0        3.458802   -1.648852   -0.001951
     13          8           0        4.371652   -2.184160   -0.627080
     14          8           0        2.580541   -2.245003    0.617645
     15          6           0       -4.996124   -0.188218   -0.420465
     16          6           0       -6.239059    0.409880    0.239366
     17          6           0       -7.503986    0.215453   -0.597265
     18          1           0       -4.857403    0.269831   -1.409350
     19          1           0       -5.161369   -1.260719   -0.593176
     20          1           0       -6.070985    1.480651    0.412041
     21          1           0       -6.374727   -0.049507    1.226875
     22          1           0       -7.699204   -0.849654   -0.758623
     23          1           0       -7.393736    0.689199   -1.578087
     24          1           0       -8.380430    0.650533   -0.106949
     25          6           0       -3.723555   -0.001847    0.403889
     26          6           0       -2.480621   -0.599944   -0.255943
     27          6           0       -1.215693   -0.405518    0.580689
     28          1           0       -3.558310    1.070656    0.576600
     29          1           0       -3.862276   -0.459895    1.392773
     30          1           0       -2.344952   -0.140557   -1.243451
     31          1           0       -2.648694   -1.670716   -0.428618
     32          1           0       -1.325943   -0.879264    1.561510
     33          1           0       -1.020474    0.659590    0.742047
     34          1           0       -0.339248   -0.840597    0.090372
 ---------------------------------------------------------------------

 SCF Done:  E(RHF) =  -669.535279053     A.U. after   15 cycles
 E2 =    -0.2091775859D+01 EUMP2 =    -0.67162705491191D+03

 The electronic state is 1-A.
 Alpha  occ. eigenvalues --  -20.60778 -20.60773 -15.85817 -11.31125 -11.27720
 Alpha  occ. eigenvalues --  -11.27636 -11.27462 -11.26722 -11.26697 -11.21729
 Alpha  occ. eigenvalues --  -11.21694 -11.21529 -11.21452 -11.21328 -11.21138
 Alpha  occ. eigenvalues --   -1.59846  -1.39401  -1.19312  -1.08720  -1.08549
 Alpha  occ. eigenvalues --   -1.04709  -1.03662  -0.96145  -0.95553  -0.87183
 Alpha  occ. eigenvalues --   -0.86103  -0.82389  -0.79753  -0.78362  -0.77430
 Alpha  occ. eigenvalues --   -0.72037  -0.71165  -0.70430  -0.65179  -0.64963
 Alpha  occ. eigenvalues --   -0.64726  -0.62099  -0.61053  -0.59460  -0.57727
 Alpha  occ. eigenvalues --   -0.55435  -0.55226  -0.53185  -0.52969  -0.52571
 Alpha  occ. eigenvalues --   -0.52460  -0.50080  -0.48797  -0.48792  -0.48048
 Alpha  occ. eigenvalues --   -0.46755  -0.45906  -0.45822  -0.44820  -0.43888
 Alpha  occ. eigenvalues --   -0.37303  -0.36283
 Alpha virt. eigenvalues --    0.05062   0.11284   0.16538   0.20980   0.22780
 Alpha virt. eigenvalues --    0.24172   0.25874   0.26535   0.27469   0.27981
 Alpha virt. eigenvalues --    0.29046   0.29437   0.31495   0.31677   0.32166

 Mulliken charges:
               1
     1  C   -0.170633
     2  C   -0.221713
     3  C   -0.172697
     4  C    0.156844
     5  C   -0.170693
     6  C   -0.218944
     7  H    0.225281
     8  H    0.223526
     9  H    0.285514
    10  H    0.275281
    11  H    0.223126
    12  N    0.488394
    13  O   -0.460052
    14  O   -0.461576
    15  C   -0.298560
    16  C   -0.299604
    17  C   -0.475784
    18  H    0.149495
    19  H    0.151327
    20  H    0.150735
    21  H    0.152380
    22  H    0.156095
    23  H    0.155050
    24  H    0.160260
    25  C   -0.298545
    26  C   -0.299873
    27  C   -0.485498
    28  H    0.146458
    29  H    0.150537
    30  H    0.152130
    31  H    0.157470
    32  H    0.158550
    33  H    0.144155
    34  H    0.171566
 Sum of Mulliken charges =  -0.00000

 Dipole moment (field-independent basis, Debye):
    X=             -0.2149    Y=              5.1147    Z=             -0.0022  Tot=              5.1192
 Quadrupole moment (field-independent basis, Debye-Ang):
   XX=            -93.6460   YY=            -96.3358   ZZ=            -93.7858
   XY=             18.4503   XZ=             -3.1485   YZ=             -0.5578

 Normal termination of Gaussian 16 at Thu May  6 07:50:18 2021.
