 Gaussian 16, Revision A.03,
 Gaussian 16:  EM64L-G16RevA.03 25-Dec-2016

 -------------
 #p 6-31g* mp2
 -------------

 ------------------------------------------------------
 Input file generated by CHIRIPA (05-May-2021 14:55:24)
 ------------------------------------------------------
 Symbolic Z-matrix:
 Charge =  0 Multiplicity = 1

                         Standard orientation:
 ---------------------------------------------------------------------
 Center     Atomic      Atomic             Coordinates (Angstroms)
 Number     Number       Type             X           Y           Z
 ---------------------------------------------------------------------
      1          6           0        4.475194    1.205494   -0.002926
      2          6           0        4.561886   -0.014481    0.675798
      3          6           0        3.499769   -0.922941    0.641778
      4          6           0        2.360802   -0.577500   -0.083974
      5          6           0        2.244263    0.630119   -0.770535
      6          6           0        3.318698    1.523340   -0.722657
      7          1           0        5.305056    1.905289    0.028884
      8          1           0        5.458807   -0.263984    1.235552
      9          1           0        3.540265   -1.874351    1.158107
     10          1           0        1.337226    0.850805   -1.320080
     11          1           0        3.248582    2.470061   -1.250719
     12          7           0        1.229867   -1.531180   -0.127325
     13          8           0        0.237361   -1.203180   -0.773843
     14          8           0        1.357359   -2.588616    0.486037
     15          6           0       -3.631270   -0.063397    0.388516
     16          6           0       -3.636657   -1.278208   -0.540025
     17          6           0       -4.382382   -2.473333    0.054423
     18          1           0       -3.172486   -0.344104    1.346464
     19          1           0       -4.668260    0.223992    0.610902
     20          1           0       -2.599968   -1.562371   -0.761705
     21          1           0       -4.095308   -0.994525   -1.495943
     22          1           0       -5.425864   -2.213109    0.259435
     23          1           0       -3.922028   -2.784181    0.997846
     24          1           0       -4.373890   -3.330631   -0.625891
     25          6           0       -2.889548    1.139421   -0.191832
     26          6           0       -2.884160    2.354233    0.736708
     27          6           0       -2.138435    3.549356    0.142261
     28          1           0       -1.852558    0.852032   -0.414220
     29          1           0       -3.348331    1.420128   -1.149781
     30          1           0       -2.425508    2.070550    1.692626
     31          1           0       -3.920850    2.638395    0.958387
     32          1           0       -2.598790    3.860205   -0.801162
     33          1           0       -1.094954    3.289133   -0.062752
     34          1           0       -2.146928    4.406655    0.822574
 ---------------------------------------------------------------------

 SCF Done:  E(RHF) =  -669.536626904     A.U. after   15 cycles
 E2 =    -0.2092114035D+01 EUMP2 =    -0.67162874093939D+03

 The electronic state is 1-A.
 Alpha  occ. eigenvalues --  -20.61124 -20.61116 -15.86131 -11.31384 -11.27937
 Alpha  occ. eigenvalues --  -11.27933 -11.27660 -11.26929 -11.26918 -11.21073
 Alpha  occ. eigenvalues --  -11.20873 -11.20454 -11.20301 -11.20081 -11.19855
 Alpha  occ. eigenvalues --   -1.60168  -1.39727  -1.19544  -1.08962  -1.07479
 Alpha  occ. eigenvalues --   -1.04929  -1.02631  -0.95815  -0.95134  -0.86333
 Alpha  occ. eigenvalues --   -0.86165  -0.82654  -0.78730  -0.77731  -0.77194
 Alpha  occ. eigenvalues --   -0.72360  -0.71472  -0.70651  -0.65206  -0.64931
 Alpha  occ. eigenvalues --   -0.64089  -0.62277  -0.60020  -0.58556  -0.56713
 Alpha  occ. eigenvalues --   -0.55436  -0.54437  -0.53264  -0.53019  -0.51874
 Alpha  occ. eigenvalues --   -0.51564  -0.49266  -0.49111  -0.48988  -0.47034
 Alpha  occ. eigenvalues --   -0.45736  -0.45264  -0.44789  -0.44402  -0.42863
 Alpha  occ. eigenvalues --   -0.37518  -0.36526
 Alpha virt. eigenvalues --    0.04771   0.11114   0.16261   0.20829   0.23466
 Alpha virt. eigenvalues --    0.24967   0.26289   0.27466   0.27932   0.28741
 Alpha virt. eigenvalues --    0.29288   0.31088   0.31789   0.32345   0.32738

 Mulliken charges:
               1
     1  C   -0.170296
     2  C   -0.218594
     3  C   -0.170337
     4  C    0.157384
     5  C   -0.172020
     6  C   -0.218626
     7  H    0.226461
     8  H    0.224162
     9  H    0.275988
    10  H    0.277261
    11  H    0.224679
    12  N    0.492365
    13  O   -0.463615
    14  O   -0.457614
    15  C   -0.295074
    16  C   -0.312700
    17  C   -0.474533
    18  H    0.149018
    19  H    0.143459
    20  H    0.184110
    21  H    0.144342
    22  H    0.148353
    23  H    0.155886
    24  H    0.158825
    25  C   -0.305624
    26  C   -0.298752
    27  C   -0.473435
    28  H    0.162779
    29  H    0.145375
    30  H    0.150689
    31  H    0.150651
    32  H    0.154483
    33  H    0.146936
    34  H    0.158013
 Sum of Mulliken charges =  -0.00000

 Dipole moment (field-independent basis, Debye):
    X=              4.3494    Y=              3.1699    Z=              0.1204  Tot=              5.3833
 Quadrupole moment (field-independent basis, Debye-Ang):
   XX=            -75.6620   YY=            -98.2549   ZZ=            -93.7107
   XY=              3.3115   XZ=              2.4075   YZ=             -2.4314

 Normal termination of Gaussian 16 at Wed May  5 20:46:09 2021.
