 Gaussian 16, Revision A.03,
 Gaussian 16:  EM64L-G16RevA.03 25-Dec-2016

 -------------
 #p 6-31g* mp2
 -------------

 ------------------------------------------------------
 Input file generated by CHIRIPA (05-May-2021 14:51:14)
 ------------------------------------------------------
 Symbolic Z-matrix:
 Charge =  0 Multiplicity = 1

                         Standard orientation:
 ---------------------------------------------------------------------
 Center     Atomic      Atomic             Coordinates (Angstroms)
 Number     Number       Type             X           Y           Z
 ---------------------------------------------------------------------
      1          6           0        2.813559   -0.356079    0.406347
      2          6           0        2.784249   -1.883771    0.463652
      3          6           0        1.439005   -2.431733    0.940989
      4          1           0        2.584811    0.046331    1.402683
      5          1           0        2.015599   -0.005835   -0.262970
      6          1           0        3.582910   -2.231086    1.131581
      7          1           0        3.013282   -2.282594   -0.532892
      8          1           0        0.633788   -2.113563    0.270919
      9          1           0        1.206653   -2.061763    1.944849
     10          1           0        1.440179   -3.525689    0.974439
     11          6           0        4.151814    0.206763   -0.069058
     12          6           0        4.181123    1.734455   -0.126363
     13          6           0        5.526367    2.282416   -0.603699
     14          1           0        4.949773   -0.143482    0.600259
     15          1           0        4.380561   -0.195648   -1.065394
     16          1           0        3.952091    2.133277    0.870181
     17          1           0        3.382462    2.081770   -0.794292
     18          1           0        5.758719    1.912446   -1.607560
     19          1           0        6.331585    1.964246    0.066370
     20          1           0        5.525193    3.376372   -0.637150
     21          6           0       -3.517423   -0.687841   -0.140001
     22          6           0       -2.316078   -1.374433   -0.790652
     23          6           0       -2.400060   -2.899714   -0.725400
     24          1           0       -3.591177   -1.007914    0.908358
     25          1           0       -4.437555   -1.026872   -0.635794
     26          1           0       -1.398380   -1.033155   -0.294693
     27          1           0       -2.245063   -1.052541   -1.837532
     28          1           0       -3.299049   -3.258279   -1.237113
     29          1           0       -2.447556   -3.238784    0.314493
     30          1           0       -1.531246   -3.370136   -1.196279
     31          6           0       -3.447949    0.837158   -0.197288
     32          6           0       -4.649294    1.523750    0.453363
     33          6           0       -4.565313    3.049031    0.388111
     34          1           0       -2.527817    1.176188    0.298505
     35          1           0       -3.374195    1.157230   -1.245648
     36          1           0       -4.720310    1.201857    1.500243
     37          1           0       -5.566992    1.182472   -0.042596
     38          1           0       -4.517816    3.388100   -0.651781
     39          1           0       -3.666323    3.407596    0.899823
     40          1           0       -5.434126    3.519452    0.858990
 ---------------------------------------------------------------------

 SCF Done:  E(RHF) =  -470.733193553     A.U. after   11 cycles
 E2 =    -0.1582781989D+01 EUMP2 =    -0.47231597554224D+03

 The electronic state is 1-A.
 Alpha  occ. eigenvalues --  -11.21604 -11.21598 -11.21594 -11.21589 -11.21412
 Alpha  occ. eigenvalues --  -11.21395 -11.21352 -11.21336 -11.21072 -11.21065
 Alpha  occ. eigenvalues --  -11.21043 -11.21033  -1.08440  -1.08416  -1.03558
 Alpha  occ. eigenvalues --   -1.03494  -0.96015  -0.95932  -0.87009  -0.86968
 Alpha  occ. eigenvalues --   -0.79633  -0.79551  -0.78276  -0.78210  -0.65122
 Alpha  occ. eigenvalues --   -0.65006  -0.61087  -0.60795  -0.59357  -0.59331
 Alpha  occ. eigenvalues --   -0.57674  -0.57509  -0.55380  -0.55127  -0.52704
 Alpha  occ. eigenvalues --   -0.52629  -0.52413  -0.52372  -0.49937  -0.49886
 Alpha  occ. eigenvalues --   -0.48018  -0.47824  -0.46761  -0.46487  -0.45876
 Alpha  occ. eigenvalues --   -0.45758  -0.45740  -0.45524  -0.43801  -0.43756
 Alpha virt. eigenvalues --    0.21476   0.23078   0.23500   0.24886   0.26000
 Alpha virt. eigenvalues --    0.26843   0.27182   0.27293   0.28066   0.28999
 Alpha virt. eigenvalues --    0.30739   0.31403   0.31738   0.31887   0.32046

 Mulliken charges:
               1
     1  C   -0.298746
     2  C   -0.299258
     3  C   -0.484434
     4  H    0.149335
     5  H    0.149590
     6  H    0.151862
     7  H    0.151826
     8  H    0.165179
     9  H    0.154306
    10  H    0.160523
    11  C   -0.298247
    12  C   -0.299704
    13  C   -0.475713
    14  H    0.149598
    15  H    0.149729
    16  H    0.151832
    17  H    0.152082
    18  H    0.155210
    19  H    0.155168
    20  H    0.160278
    21  C   -0.297596
    22  C   -0.305854
    23  C   -0.476025
    24  H    0.149975
    25  H    0.149493
    26  H    0.156149
    27  H    0.151507
    28  H    0.155098
    29  H    0.156350
    30  H    0.160606
    31  C   -0.298561
    32  C   -0.299648
    33  C   -0.475725
    34  H    0.149888
    35  H    0.149434
    36  H    0.152009
    37  H    0.151899
    38  H    0.155105
    39  H    0.155250
    40  H    0.160229
 Sum of Mulliken charges =  -0.00000

 Dipole moment (field-independent basis, Debye):
    X=             -0.0075    Y=             -0.0076    Z=              0.0011  Tot=              0.0108
 Quadrupole moment (field-independent basis, Debye-Ang):
   XX=            -85.3208   YY=            -86.3213   ZZ=            -83.1489
   XY=             -0.3554   XZ=              1.0249   YZ=              0.1911

 Normal termination of Gaussian 16 at Wed May  5 16:53:00 2021.
