 Gaussian 16, Revision A.03,
 Gaussian 16:  EM64L-G16RevA.03 25-Dec-2016

 -------------
 #p 6-31g* mp2
 -------------

 ------------------------------------------------------
 Input file generated by CHIRIPA (05-May-2021 14:51:10)
 ------------------------------------------------------
 Symbolic Z-matrix:
 Charge =  0 Multiplicity = 1

                         Standard orientation:
 ---------------------------------------------------------------------
 Center     Atomic      Atomic             Coordinates (Angstroms)
 Number     Number       Type             X           Y           Z
 ---------------------------------------------------------------------
      1          6           0       -3.395047   -0.174183   -0.140453
      2          6           0       -3.363480   -1.563702   -0.777812
      3          6           0       -4.435053   -2.497236   -0.213864
      4          1           0       -3.262678   -0.272864    0.945680
      5          1           0       -4.388050    0.270096   -0.295229
      6          1           0       -2.370392   -2.004666   -0.623082
      7          1           0       -3.495748   -1.461687   -1.862577
      8          1           0       -5.434295   -2.082534   -0.381611
      9          1           0       -4.302545   -2.628598    0.864926
     10          1           0       -4.394468   -3.485024   -0.683426
     11          6           0       -2.329683    0.770514   -0.693874
     12          6           0       -2.361250    2.160032   -0.056515
     13          6           0       -1.289677    3.093567   -0.620464
     14          1           0       -1.336680    0.326234   -0.539099
     15          1           0       -2.462052    0.869195   -1.780008
     16          1           0       -2.228983    2.058017    1.028249
     17          1           0       -3.354339    2.600997   -0.211245
     18          1           0       -1.422186    3.224928   -1.699254
     19          1           0       -0.290435    2.678864   -0.452716
     20          1           0       -1.330262    4.081354   -0.150901
     21          6           0        2.416889    0.086781    0.903784
     22          6           0        1.111037   -0.637358    1.232965
     23          6           0        0.230558    0.145269    2.207668
     24          1           0        2.971289    0.270831    1.834219
     25          1           0        2.184080    1.072802    0.478393
     26          1           0        1.346228   -1.622277    1.656327
     27          1           0        0.559771   -0.819876    0.301618
     28          1           0       -0.033007    1.122144    1.789518
     29          1           0        0.757917    0.315184    3.151925
     30          1           0       -0.697699   -0.390583    2.429166
     31          6           0        3.307842   -0.683111   -0.069456
     32          6           0        4.613693    0.041027   -0.398637
     33          6           0        5.494173   -0.741599   -1.373341
     34          1           0        3.540650   -1.669132    0.355935
     35          1           0        2.753442   -0.867161   -0.999892
     36          1           0        5.164959    0.223546    0.532710
     37          1           0        4.378503    1.025947   -0.821999
     38          1           0        4.966812   -0.911515   -2.317597
     39          1           0        5.757738   -1.718474   -0.955191
     40          1           0        6.422430   -0.205747   -1.594838
 ---------------------------------------------------------------------

 SCF Done:  E(RHF) =  -470.732454948     A.U. after   11 cycles
 E2 =    -0.1585035284D+01 EUMP2 =    -0.47231749023111D+03

 The electronic state is 1-A.
 Alpha  occ. eigenvalues --  -11.21686 -11.21629 -11.21597 -11.21567 -11.21470
 Alpha  occ. eigenvalues --  -11.21402 -11.21373 -11.21305 -11.21141 -11.21119
 Alpha  occ. eigenvalues --  -11.21089 -11.21068  -1.08522  -1.08393  -1.03626
 Alpha  occ. eigenvalues --   -1.03502  -0.96049  -0.95977  -0.87069  -0.86990
 Alpha  occ. eigenvalues --   -0.79684  -0.79574  -0.78346  -0.78190  -0.65471
 Alpha  occ. eigenvalues --   -0.64812  -0.61293  -0.60624  -0.59420  -0.59337
 Alpha  occ. eigenvalues --   -0.57665  -0.57590  -0.55330  -0.55243  -0.52740
 Alpha  occ. eigenvalues --   -0.52671  -0.52466  -0.52403  -0.50039  -0.49876
 Alpha  occ. eigenvalues --   -0.48060  -0.47838  -0.46847  -0.46551  -0.46017
 Alpha  occ. eigenvalues --   -0.45825  -0.45687  -0.45374  -0.43829  -0.43773
 Alpha virt. eigenvalues --    0.19241   0.22506   0.23519   0.24650   0.25629
 Alpha virt. eigenvalues --    0.26088   0.26271   0.28345   0.28498   0.29654
 Alpha virt. eigenvalues --    0.30491   0.31100   0.31493   0.31768   0.32526

 Mulliken charges:
               1
     1  C   -0.299247
     2  C   -0.300652
     3  C   -0.475590
     4  H    0.150946
     5  H    0.149507
     6  H    0.152276
     7  H    0.151875
     8  H    0.155252
     9  H    0.155005
    10  H    0.160255
    11  C   -0.305626
    12  C   -0.302590
    13  C   -0.478891
    14  H    0.158138
    15  H    0.149201
    16  H    0.154936
    17  H    0.152503
    18  H    0.155651
    19  H    0.155500
    20  H    0.160718
    21  C   -0.300141
    22  C   -0.305464
    23  C   -0.482867
    24  H    0.150336
    25  H    0.150479
    26  H    0.152831
    27  H    0.155746
    28  H    0.162136
    29  H    0.156003
    30  H    0.160836
    31  C   -0.298411
    32  C   -0.299778
    33  C   -0.475776
    34  H    0.149734
    35  H    0.149996
    36  H    0.152002
    37  H    0.152223
    38  H    0.155351
    39  H    0.155189
    40  H    0.160410
 Sum of Mulliken charges =  -0.00000

 Dipole moment (field-independent basis, Debye):
    X=              0.0242    Y=             -0.0014    Z=              0.0161  Tot=              0.0291
 Quadrupole moment (field-independent basis, Debye-Ang):
   XX=            -85.1972   YY=            -85.3280   ZZ=            -84.2030
   XY=             -0.6758   XZ=              1.5525   YZ=             -0.6367

 Normal termination of Gaussian 16 at Wed May  5 21:23:42 2021.
