 Gaussian 16, Revision A.03,
 Gaussian 16:  EM64L-G16RevA.03 25-Dec-2016

 -------------
 #p 6-31g* mp2
 -------------

 ------------------------------------------------------
 Input file generated by CHIRIPA (05-May-2021 14:53:16)
 ------------------------------------------------------
 Symbolic Z-matrix:
 Charge =  0 Multiplicity = 1

                         Standard orientation:
 ---------------------------------------------------------------------
 Center     Atomic      Atomic             Coordinates (Angstroms)
 Number     Number       Type             X           Y           Z
 ---------------------------------------------------------------------
      1          6           0       -2.909074    0.074738   -0.020846
      2          6           0       -4.394398   -0.053568    0.318767
      3          6           0       -4.894464    1.075860    1.219944
      4          1           0       -2.326359    0.088006    0.910396
      5          1           0       -2.734712    1.041845   -0.512475
      6          1           0       -4.566138   -1.020737    0.808364
      7          1           0       -4.973629   -0.066724   -0.613399
      8          1           0       -4.751968    2.047163    0.735313
      9          1           0       -4.342162    1.087730    2.165154
     10          1           0       -5.958623    0.964465    1.450195
     11          6           0       -2.394362   -1.047033   -0.921084
     12          6           0       -0.909039   -0.918727   -1.260697
     13          6           0       -0.408973   -2.048155   -2.161874
     14          1           0       -2.568724   -2.014140   -0.429455
     15          1           0       -2.977077   -1.060301   -1.852326
     16          1           0       -0.329807   -0.905571   -0.328531
     17          1           0       -0.737298    0.048442   -1.750294
     18          1           0       -0.961275   -2.060025   -3.107084
     19          1           0       -0.551468   -3.019457   -1.677243
     20          1           0        0.655187   -1.936760   -2.392125
     21          6           0        2.347611   -1.660864    1.825834
     22          6           0        3.046765   -1.563554    0.618260
     23          6           0        2.901549   -0.437497   -0.197495
     24          6           0        2.044977    0.577087    0.226998
     25          6           0        1.334745    0.509496    1.424617
     26          6           0        1.495335   -0.625853    2.224456
     27          1           0        2.466390   -2.539221    2.453350
     28          1           0        3.709342   -2.365819    0.306157
     29          1           0        3.430769   -0.336255   -1.137225
     30          1           0        0.681495    1.325433    1.709097
     31          1           0        0.951100   -0.698710    3.161763
     32          7           0        1.883105    1.774111   -0.628180
     33          8           0        1.122351    2.654283   -0.231711
     34          8           0        2.520048    1.809502   -1.678746
 ---------------------------------------------------------------------

 SCF Done:  E(RHF) =  -669.534303036     A.U. after   15 cycles
 E2 =    -0.2095063533D+01 EUMP2 =    -0.67162936656902D+03

 The electronic state is 1-A.
 Alpha  occ. eigenvalues --  -20.60803 -20.60794 -15.85849 -11.31201 -11.27829
 Alpha  occ. eigenvalues --  -11.27781 -11.27600 -11.26873 -11.26863 -11.21553
 Alpha  occ. eigenvalues --  -11.21344 -11.21303 -11.21242 -11.21028 -11.20993
 Alpha  occ. eigenvalues --   -1.59873  -1.39427  -1.19448  -1.08825  -1.08329
 Alpha  occ. eigenvalues --   -1.04853  -1.03438  -0.95900  -0.95652  -0.86918
 Alpha  occ. eigenvalues --   -0.86237  -0.82486  -0.79527  -0.78170  -0.77522
 Alpha  occ. eigenvalues --   -0.72075  -0.71187  -0.70542  -0.65088  -0.64977
 Alpha  occ. eigenvalues --   -0.64846  -0.62191  -0.60865  -0.59303  -0.57546
 Alpha  occ. eigenvalues --   -0.55348  -0.55206  -0.53261  -0.52932  -0.52542
 Alpha  occ. eigenvalues --   -0.52325  -0.49829  -0.48835  -0.48827  -0.47810
 Alpha  occ. eigenvalues --   -0.46500  -0.45683  -0.45582  -0.44816  -0.43694
 Alpha  occ. eigenvalues --   -0.37361  -0.36405
 Alpha virt. eigenvalues --    0.04971   0.11134   0.16449   0.21145   0.23029
 Alpha virt. eigenvalues --    0.24242   0.26274   0.27017   0.27345   0.28147
 Alpha virt. eigenvalues --    0.28710   0.30806   0.31447   0.31559   0.31991

 Mulliken charges:
               1
     1  C   -0.298514
     2  C   -0.299584
     3  C   -0.475396
     4  H    0.141350
     5  H    0.157936
     6  H    0.149424
     7  H    0.153329
     8  H    0.158645
     9  H    0.151758
    10  H    0.159847
    11  C   -0.296711
    12  C   -0.312530
    13  C   -0.473383
    14  H    0.145900
    15  H    0.150583
    16  H    0.159910
    17  H    0.157518
    18  H    0.156357
    19  H    0.150977
    20  H    0.157092
    21  C   -0.171298
    22  C   -0.216965
    23  C   -0.171568
    24  C    0.164918
    25  C   -0.176847
    26  C   -0.217033
    27  H    0.226149
    28  H    0.224172
    29  H    0.275882
    30  H    0.276481
    31  H    0.223913
    32  N    0.489079
    33  O   -0.460444
    34  O   -0.460945
 Sum of Mulliken charges =  -0.00000

 Dipole moment (field-independent basis, Debye):
    X=              0.6434    Y=             -4.1235    Z=              2.9983  Tot=              5.1388
 Quadrupole moment (field-independent basis, Debye-Ang):
   XX=            -91.0416   YY=            -99.8940   ZZ=            -91.3695
   XY=             -9.9155   XZ=              4.6701   YZ=              1.0813

 Normal termination of Gaussian 16 at Thu May  6 13:53:09 2021.
