 Gaussian 16, Revision A.03,
 Gaussian 16:  EM64L-G16RevA.03 25-Dec-2016

 -------------
 #p 6-31g* mp2
 -------------

 ------------------------------------------------------
 Input file generated by CHIRIPA (05-May-2021 14:57:26)
 ------------------------------------------------------
 Symbolic Z-matrix:
 Charge =  0 Multiplicity = 1

                         Standard orientation:
 ---------------------------------------------------------------------
 Center     Atomic      Atomic             Coordinates (Angstroms)
 Number     Number       Type             X           Y           Z
 ---------------------------------------------------------------------
      1          6           0        6.666901   -0.168579    0.277775
      2          6           0        5.890110   -1.176457   -0.302999
      3          6           0        4.517195   -0.993881   -0.493571
      4          6           0        3.951311    0.214454   -0.089849
      5          6           0        4.698567    1.237571    0.491640
      6          6           0        6.069703    1.033100    0.672545
      7          1           0        7.732723   -0.318912    0.422061
      8          1           0        6.351209   -2.110721   -0.610545
      9          1           0        3.892289   -1.757432   -0.940673
     10          1           0        4.210542    2.158101    0.788079
     11          1           0        6.670501    1.817584    1.123846
     12          7           0        2.498809    0.419329   -0.286482
     13          8           0        2.024223    1.492984    0.077758
     14          8           0        1.862427   -0.497625   -0.801118
     15          6           0       -1.882296   -1.183949    0.232542
     16          6           0       -2.315326   -0.631018   -0.977116
     17          6           0       -3.592324   -0.072406   -1.085642
     18          6           0       -4.413869   -0.083696    0.040513
     19          6           0       -4.011256   -0.627021    1.259526
     20          6           0       -2.730149   -1.180192    1.345042
     21          1           0       -0.888698   -1.615779    0.307911
     22          1           0       -1.659018   -0.632546   -1.842739
     23          1           0       -3.952996    0.362336   -2.009943
     24          1           0       -4.688098   -0.610847    2.105127
     25          1           0       -2.396517   -1.608904    2.285755
     26          7           0       -5.767944    0.504801   -0.062198
     27          8           0       -6.472645    0.482484    0.944546
     28          8           0       -6.098929    0.977239   -1.147505
 ---------------------------------------------------------------------

 SCF Done:  E(RHF) =  -868.340275343     A.U. after   16 cycles
 E2 =    -0.2598228422D+01 EUMP2 =    -0.87093850376489D+03

 The electronic state is 1-A.
 Alpha  occ. eigenvalues --  -20.61866 -20.61805 -20.59858 -20.59851 -15.86859
 Alpha  occ. eigenvalues --  -15.84903 -11.31956 -11.30024 -11.28507 -11.28469
 Alpha  occ. eigenvalues --  -11.28172 -11.27445 -11.27422 -11.26620 -11.26540
 Alpha  occ. eigenvalues --  -11.26095 -11.25544 -11.25372  -1.60896  -1.58939
 Alpha  occ. eigenvalues --   -1.40457  -1.38499  -1.20100  -1.18157  -1.09544
 Alpha  occ. eigenvalues --   -1.07557  -1.05461  -1.03534  -0.96424  -0.94442
 Alpha  occ. eigenvalues --   -0.86871  -0.84917  -0.83267  -0.81301  -0.78345
 Alpha  occ. eigenvalues --   -0.76412  -0.73097  -0.72199  -0.71200  -0.71127
 Alpha  occ. eigenvalues --   -0.70259  -0.69173  -0.65755  -0.65457  -0.63792
 Alpha  occ. eigenvalues --   -0.63511  -0.62811  -0.60899  -0.55965  -0.53924
 Alpha  occ. eigenvalues --   -0.53797  -0.53545  -0.51864  -0.51610  -0.49859
 Alpha  occ. eigenvalues --   -0.49808  -0.47896  -0.47859  -0.45918  -0.43961
 Alpha  occ. eigenvalues --   -0.38061  -0.37052  -0.36054  -0.35148
 Alpha virt. eigenvalues --    0.04150   0.06128   0.10606   0.12527   0.15693
 Alpha virt. eigenvalues --    0.17710   0.20781   0.22764   0.26714   0.27635
 Alpha virt. eigenvalues --    0.28536   0.29652   0.30417   0.31845   0.32443

 Mulliken charges:
               1
     1  C   -0.169767
     2  C   -0.218453
     3  C   -0.171041
     4  C    0.157467
     5  C   -0.170360
     6  C   -0.218508
     7  H    0.228188
     8  H    0.225261
     9  H    0.273912
    10  H    0.277258
    11  H    0.226075
    12  N    0.489495
    13  O   -0.454235
    14  O   -0.472512
    15  C   -0.168247
    16  C   -0.216691
    17  C   -0.172756
    18  C    0.157189
    19  C   -0.172263
    20  C   -0.220038
    21  H    0.236927
    22  H    0.230302
    23  H    0.272164
    24  H    0.271140
    25  H    0.218387
    26  N    0.488348
    27  O   -0.464132
    28  O   -0.463107
 Sum of Mulliken charges =  -0.00000

 Dipole moment (field-independent basis, Debye):
    X=             10.5573    Y=             -2.7316    Z=              1.0140  Tot=             10.9520
 Quadrupole moment (field-independent basis, Debye-Ang):
   XX=           -108.0620   YY=           -101.1637   ZZ=           -100.4762
   XY=              7.7854   XZ=              0.5849   YZ=              1.1231

 Normal termination of Gaussian 16 at Fri May  7 00:28:12 2021.
