 Gaussian 16, Revision A.03,
 Gaussian 16:  EM64L-G16RevA.03 25-Dec-2016

 -------------
 #p 6-31g* mp2
 -------------

 ------------------------------------------------------
 Input file generated by CHIRIPA (05-May-2021 14:51:10)
 ------------------------------------------------------
 Symbolic Z-matrix:
 Charge =  0 Multiplicity = 1

                         Standard orientation:
 ---------------------------------------------------------------------
 Center     Atomic      Atomic             Coordinates (Angstroms)
 Number     Number       Type             X           Y           Z
 ---------------------------------------------------------------------
      1          6           0        3.533572   -0.004001   -0.417382
      2          6           0        3.128662   -1.399539   -0.893309
      3          6           0        4.330933   -2.309063   -1.148462
      4          1           0        4.190519    0.456210   -1.168096
      5          1           0        4.126871   -0.095862    0.502918
      6          1           0        2.535133   -1.304992   -1.811677
      7          1           0        2.472448   -1.856405   -0.141464
      8          1           0        4.921022   -2.433009   -0.234660
      9          1           0        4.984063   -1.878463   -1.914363
     10          1           0        4.018610   -3.301595   -1.487863
     11          6           0        2.342588    0.916888   -0.158054
     12          6           0        2.747498    2.312426    0.317873
     13          6           0        1.545227    3.221951    0.573026
     14          1           0        1.749289    1.008749   -1.078354
     15          1           0        1.685641    0.456678    0.592660
     16          1           0        3.403712    2.769292   -0.433972
     17          1           0        3.341027    2.217879    1.236242
     18          1           0        0.892096    2.791351    1.338928
     19          1           0        0.955138    3.345897   -0.340776
     20          1           0        1.857550    4.214483    0.912428
     21          6           0       -2.203693   -0.592051    0.448087
     22          6           0       -1.980428   -1.123602    1.864276
     23          6           0       -0.506230   -1.390052    2.170118
     24          1           0       -1.802439   -1.314804   -0.275493
     25          1           0       -1.627716    0.334431    0.316639
     26          1           0       -2.557749   -2.048062    1.993465
     27          1           0       -2.382431   -0.399588    2.584563
     28          1           0        0.080404   -0.471247    2.068827
     29          1           0       -0.095909   -2.129087    1.474370
     30          1           0       -0.369501   -1.769429    3.187585
     31          6           0       -3.672467   -0.320837    0.127348
     32          6           0       -3.895733    0.210714   -1.288840
     33          6           0       -5.369930    0.477164   -1.594683
     34          1           0       -4.248444   -1.247318    0.258797
     35          1           0       -4.073720    0.401916    0.850929
     36          1           0       -3.493728   -0.513299   -2.009127
     37          1           0       -3.318411    1.135175   -1.418028
     38          1           0       -5.780250    1.216200   -0.898935
     39          1           0       -5.956564   -0.441640   -1.493391
     40          1           0       -5.506658    0.856541   -2.612148
 ---------------------------------------------------------------------

 SCF Done:  E(RHF) =  -470.733293361     A.U. after   11 cycles
 E2 =    -0.1583329657D+01 EUMP2 =    -0.47231662301847D+03

 The electronic state is 1-A.
 Alpha  occ. eigenvalues --  -11.21628 -11.21594 -11.21592 -11.21556 -11.21392
 Alpha  occ. eigenvalues --  -11.21355 -11.21332 -11.21289 -11.21129 -11.21112
 Alpha  occ. eigenvalues --  -11.21063 -11.21041  -1.08437  -1.08392  -1.03545
 Alpha  occ. eigenvalues --   -1.03513  -0.96004  -0.95956  -0.87021  -0.86975
 Alpha  occ. eigenvalues --   -0.79624  -0.79566  -0.78314  -0.78129  -0.65103
 Alpha  occ. eigenvalues --   -0.64999  -0.61009  -0.60852  -0.59366  -0.59326
 Alpha  occ. eigenvalues --   -0.57650  -0.57537  -0.55364  -0.55182  -0.52692
 Alpha  occ. eigenvalues --   -0.52669  -0.52470  -0.52352  -0.50040  -0.49820
 Alpha  occ. eigenvalues --   -0.48008  -0.47887  -0.46762  -0.46502  -0.46016
 Alpha  occ. eigenvalues --   -0.45719  -0.45687  -0.45313  -0.43792  -0.43759
 Alpha virt. eigenvalues --    0.20631   0.23040   0.23560   0.24102   0.25842
 Alpha virt. eigenvalues --    0.26622   0.26759   0.27671   0.28355   0.29114
 Alpha virt. eigenvalues --    0.30201   0.31545   0.31806   0.31905   0.32419

 Mulliken charges:
               1
     1  C   -0.297555
     2  C   -0.301857
     3  C   -0.475650
     4  H    0.149393
     5  H    0.149381
     6  H    0.151694
     7  H    0.154417
     8  H    0.155224
     9  H    0.155060
    10  H    0.159924
    11  C   -0.307464
    12  C   -0.299197
    13  C   -0.476188
    14  H    0.149518
    15  H    0.159049
    16  H    0.152013
    17  H    0.151831
    18  H    0.154050
    19  H    0.155199
    20  H    0.160598
    21  C   -0.299403
    22  C   -0.299587
    23  C   -0.482285
    24  H    0.149923
    25  H    0.151283
    26  H    0.152074
    27  H    0.151931
    28  H    0.159516
    29  H    0.156712
    30  H    0.160481
    31  C   -0.298320
    32  C   -0.299659
    33  C   -0.475705
    34  H    0.149428
    35  H    0.149641
    36  H    0.151880
    37  H    0.152107
    38  H    0.155225
    39  H    0.155132
    40  H    0.160187
 Sum of Mulliken charges =  -0.00000

 Dipole moment (field-independent basis, Debye):
    X=             -0.0137    Y=             -0.0089    Z=              0.0070  Tot=              0.0177
 Quadrupole moment (field-independent basis, Debye-Ang):
   XX=            -86.4848   YY=            -84.4476   ZZ=            -83.9281
   XY=              0.9569   XZ=             -0.1817   YZ=             -0.0830

 Normal termination of Gaussian 16 at Thu May  6 03:46:58 2021.
