 Gaussian 16, Revision A.03,
 Gaussian 16:  EM64L-G16RevA.03 25-Dec-2016

 -------------
 #p 6-31g* mp2
 -------------

 ------------------------------------------------------
 Input file generated by CHIRIPA (05-May-2021 14:57:23)
 ------------------------------------------------------
 Symbolic Z-matrix:
 Charge =  0 Multiplicity = 1

                         Standard orientation:
 ---------------------------------------------------------------------
 Center     Atomic      Atomic             Coordinates (Angstroms)
 Number     Number       Type             X           Y           Z
 ---------------------------------------------------------------------
      1          6           0        2.096016    2.126392    0.598184
      2          6           0        1.953496    1.008201    1.426350
      3          6           0        2.668893   -0.164292    1.165555
      4          6           0        3.521840   -0.183804    0.063108
      5          6           0        3.685321    0.913793   -0.780600
      6          6           0        2.959951    2.075709   -0.500710
      7          1           0        1.536404    3.033105    0.808192
      8          1           0        1.283275    1.044697    2.280467
      9          1           0        2.577516   -1.044502    1.790294
     10          1           0        4.361044    0.847216   -1.624628
     11          1           0        3.072621    2.942586   -1.145594
     12          7           0        4.284479   -1.419471   -0.223091
     13          8           0        5.029498   -1.411167   -1.200595
     14          8           0        4.122774   -2.372894    0.535510
     15          6           0       -1.577978    1.726845   -0.206404
     16          6           0       -2.921918    2.112350   -0.248011
     17          6           0       -3.937658    1.153155   -0.195426
     18          6           0       -3.571923   -0.188713   -0.100984
     19          6           0       -2.242002   -0.604300   -0.057519
     20          6           0       -1.242900    0.372139   -0.111458
     21          1           0       -0.795389    2.478669   -0.247779
     22          1           0       -3.185095    3.163705   -0.321733
     23          1           0       -4.986105    1.423805   -0.225862
     24          1           0       -2.010734   -1.660003    0.016123
     25          1           0       -0.200018    0.069838   -0.078959
     26          7           0       -4.638434   -1.213297   -0.044597
     27          8           0       -4.289982   -2.389017    0.038478
     28          8           0       -5.802624   -0.821246   -0.084544
 ---------------------------------------------------------------------

 SCF Done:  E(RHF) =  -868.335952907     A.U. after   16 cycles
 E2 =    -0.2602981612D+01 EUMP2 =    -0.87093893451866D+03

 The electronic state is 1-A.
 Alpha  occ. eigenvalues --  -20.61630 -20.61625 -20.61003 -20.60994 -15.86690
 Alpha  occ. eigenvalues --  -15.86053 -11.32361 -11.31510 -11.28894 -11.28871
 Alpha  occ. eigenvalues --  -11.28740 -11.28078 -11.28018 -11.28005 -11.27991
 Alpha  occ. eigenvalues --  -11.27876 -11.27171 -11.26955  -1.60699  -1.60074
 Alpha  occ. eigenvalues --   -1.40243  -1.39625  -1.20562  -1.19680  -1.09920
 Alpha  occ. eigenvalues --   -1.09074  -1.05974  -1.05075  -0.96693  -0.95897
 Alpha  occ. eigenvalues --   -0.87352  -0.86474  -0.83497  -0.82711  -0.78472
 Alpha  occ. eigenvalues --   -0.77738  -0.72897  -0.72270  -0.72031  -0.71754
 Alpha  occ. eigenvalues --   -0.71399  -0.70772  -0.66179  -0.65934  -0.65327
 Alpha  occ. eigenvalues --   -0.65107  -0.63258  -0.62442  -0.56600  -0.55549
 Alpha  occ. eigenvalues --   -0.54436  -0.54015  -0.53425  -0.52997  -0.49681
 Alpha  occ. eigenvalues --   -0.49638  -0.49034  -0.49021  -0.45581  -0.45009
 Alpha  occ. eigenvalues --   -0.38600  -0.37831  -0.37459  -0.36630
 Alpha virt. eigenvalues --    0.03956   0.04766   0.09846   0.11121   0.15257
 Alpha virt. eigenvalues --    0.16248   0.19414   0.21779   0.25517   0.26316
 Alpha virt. eigenvalues --    0.27287   0.29006   0.30005   0.31561   0.32179

 Mulliken charges:
               1
     1  C   -0.179207
     2  C   -0.226478
     3  C   -0.177021
     4  C    0.161299
     5  C   -0.170160
     6  C   -0.217622
     7  H    0.224503
     8  H    0.231244
     9  H    0.280553
    10  H    0.280050
    11  H    0.227227
    12  N    0.487781
    13  O   -0.456471
    14  O   -0.456759
    15  C   -0.176643
    16  C   -0.217924
    17  C   -0.171432
    18  C    0.159568
    19  C   -0.173165
    20  C   -0.225802
    21  H    0.216137
    22  H    0.222206
    23  H    0.276240
    24  H    0.277782
    25  H    0.234797
    26  N    0.487808
    27  O   -0.458562
    28  O   -0.459949
 Sum of Mulliken charges =  -0.00000

 Dipole moment (field-independent basis, Debye):
    X=              1.3981    Y=              7.7789    Z=              0.8012  Tot=              7.9440
 Quadrupole moment (field-independent basis, Debye-Ang):
   XX=           -146.9720   YY=           -105.1644   ZZ=           -102.3933
   XY=              0.5041   XZ=              1.9803   YZ=             -2.5593

 Normal termination of Gaussian 16 at Fri May  7 03:20:46 2021.
