 Gaussian 16, Revision A.03,
 Gaussian 16:  EM64L-G16RevA.03 25-Dec-2016

 -------------
 #p 6-31g* mp2
 -------------

 ------------------------------------------------------
 Input file generated by CHIRIPA (05-May-2021 14:53:11)
 ------------------------------------------------------
 Symbolic Z-matrix:
 Charge =  0 Multiplicity = 1

                         Standard orientation:
 ---------------------------------------------------------------------
 Center     Atomic      Atomic             Coordinates (Angstroms)
 Number     Number       Type             X           Y           Z
 ---------------------------------------------------------------------
      1          6           0        3.391988   -0.472252    0.034388
      2          6           0        2.680315   -1.761536   -0.377016
      3          6           0        1.192286   -1.753380   -0.025594
      4          1           0        3.270006   -0.322690    1.115913
      5          1           0        2.903090    0.380786   -0.456224
      6          1           0        3.171277   -2.612019    0.113138
      7          1           0        2.804167   -1.908146   -1.457656
      8          1           0        0.682725   -0.923826   -0.526382
      9          1           0        1.051920   -1.631698    1.053336
     10          1           0        0.703137   -2.684430   -0.328479
     11          6           0        4.880230   -0.465285   -0.310307
     12          6           0        5.591904    0.823999    0.101097
     13          6           0        7.079933    0.815843   -0.250325
     14          1           0        5.369128   -1.318323    0.180305
     15          1           0        5.002212   -0.614847   -1.391832
     16          1           0        5.468051    0.970609    1.181736
     17          1           0        5.100941    1.674482   -0.389057
     18          1           0        7.220298    0.694161   -1.329256
     19          1           0        7.589494   -0.013711    0.250463
     20          1           0        7.569082    1.746893    0.052560
     21          6           0       -1.130006    1.622558    0.717674
     22          6           0       -1.409110    0.391273    1.319805
     23          6           0       -2.570414   -0.313589    0.989516
     24          6           0       -3.434484    0.244768    0.048819
     25          6           0       -3.184210    1.469363   -0.568449
     26          6           0       -2.016884    2.156731   -0.222873
     27          1           0       -0.225539    2.163317    0.980189
     28          1           0       -0.722158   -0.025990    2.050580
     29          1           0       -2.811019   -1.268717    1.440356
     30          1           0       -3.888048    1.859832   -1.293406
     31          1           0       -1.802700    3.112763   -0.692100
     32          7           0       -4.667092   -0.492178   -0.308936
     33          8           0       -5.412255    0.021248   -1.140659
     34          8           0       -4.864707   -1.569268    0.249153
 ---------------------------------------------------------------------

 SCF Done:  E(RHF) =  -669.534929906     A.U. after   15 cycles
 E2 =    -0.2092003955D+01 EUMP2 =    -0.67162693386054D+03

 The electronic state is 1-A.
 Alpha  occ. eigenvalues --  -20.60737 -20.60731 -15.85789 -11.31156 -11.27708
 Alpha  occ. eigenvalues --  -11.27688 -11.27442 -11.26752 -11.26708 -11.22139
 Alpha  occ. eigenvalues --  -11.22137 -11.22049 -11.21907 -11.21623 -11.21509
 Alpha  occ. eigenvalues --   -1.59812  -1.39365  -1.19324  -1.09004  -1.08721
 Alpha  occ. eigenvalues --   -1.04729  -1.04064  -0.96524  -0.95553  -0.87549
 Alpha  occ. eigenvalues --   -0.86118  -0.82386  -0.80139  -0.78834  -0.77429
 Alpha  occ. eigenvalues --   -0.72008  -0.71134  -0.70423  -0.65633  -0.64973
 Alpha  occ. eigenvalues --   -0.64741  -0.62090  -0.61453  -0.59884  -0.58145
 Alpha  occ. eigenvalues --   -0.55826  -0.55222  -0.53390  -0.53167  -0.52882
 Alpha  occ. eigenvalues --   -0.52594  -0.50455  -0.48772  -0.48762  -0.48431
 Alpha  occ. eigenvalues --   -0.47165  -0.46368  -0.46293  -0.44770  -0.44330
 Alpha  occ. eigenvalues --   -0.37283  -0.36275
 Alpha virt. eigenvalues --    0.05079   0.11321   0.16521   0.20558   0.22500
 Alpha virt. eigenvalues --    0.23879   0.25331   0.26458   0.26921   0.28343
 Alpha virt. eigenvalues --    0.28628   0.29814   0.31326   0.31521   0.31891

 Mulliken charges:
               1
     1  C   -0.297920
     2  C   -0.300222
     3  C   -0.478081
     4  H    0.145325
     5  H    0.146190
     6  H    0.153432
     7  H    0.154825
     8  H    0.161154
     9  H    0.144179
    10  H    0.164677
    11  C   -0.298377
    12  C   -0.299760
    13  C   -0.475949
    14  H    0.151298
    15  H    0.151611
    16  H    0.150914
    17  H    0.150380
    18  H    0.156324
    19  H    0.156341
    20  H    0.160906
    21  C   -0.173750
    22  C   -0.211926
    23  C   -0.172215
    24  C    0.158720
    25  C   -0.171633
    26  C   -0.218657
    27  H    0.226173
    28  H    0.224845
    29  H    0.275587
    30  H    0.275324
    31  H    0.223189
    32  N    0.488058
    33  O   -0.460607
    34  O   -0.460350
 Sum of Mulliken charges =  -0.00000

 Dipole moment (field-independent basis, Debye):
    X=              4.4235    Y=              2.5538    Z=              1.2056  Tot=              5.2481
 Quadrupole moment (field-independent basis, Debye-Ang):
   XX=           -125.8744   YY=            -90.9731   ZZ=            -92.3124
   XY=             -9.2482   XZ=             -3.0025   YZ=             -2.5116

 Normal termination of Gaussian 16 at Wed May  5 15:26:12 2021.
