 Gaussian 16, Revision A.03,
 Gaussian 16:  EM64L-G16RevA.03 25-Dec-2016

 -------------
 #p 6-31g* mp2
 -------------

 ------------------------------------------------------
 Input file generated by CHIRIPA (05-May-2021 14:57:24)
 ------------------------------------------------------
 Symbolic Z-matrix:
 Charge =  0 Multiplicity = 1

                         Standard orientation:
 ---------------------------------------------------------------------
 Center     Atomic      Atomic             Coordinates (Angstroms)
 Number     Number       Type             X           Y           Z
 ---------------------------------------------------------------------
      1          6           0        5.728104   -1.768229   -0.108325
      2          6           0        6.220005   -0.466920    0.037109
      3          6           0        5.344489    0.622075    0.083044
      4          6           0        3.976898    0.372270   -0.019823
      5          6           0        3.456113   -0.912587   -0.165485
      6          6           0        4.350158   -1.986524   -0.208981
      7          1           0        6.415423   -2.608337   -0.143061
      8          1           0        7.289647   -0.294401    0.115519
      9          1           0        5.698221    1.639801    0.194962
     10          1           0        2.384685   -1.053072   -0.241132
     11          1           0        3.965302   -2.996057   -0.321998
     12          7           0        3.040221    1.517170    0.027515
     13          8           0        1.839725    1.270505   -0.065233
     14          8           0        3.524286    2.639528    0.156471
     15          6           0       -1.650283   -0.558069    0.292883
     16          6           0       -2.481711   -0.553381    1.417705
     17          6           0       -3.857809   -0.346863    1.282605
     18          6           0       -4.371127   -0.147372    0.001980
     19          6           0       -3.568763   -0.146476   -1.137977
     20          6           0       -2.195500   -0.354960   -0.979126
     21          1           0       -0.582398   -0.719260    0.407057
     22          1           0       -2.061052   -0.710852    2.406792
     23          1           0       -4.524423   -0.338321    2.136403
     24          1           0       -4.017233    0.013298   -2.110995
     25          1           0       -1.552208   -0.358085   -1.854460
     26          7           0       -5.826439    0.072300   -0.153616
     27          8           0       -6.254073    0.245689   -1.292784
     28          8           0       -6.511922    0.066930    0.866541
 ---------------------------------------------------------------------

 SCF Done:  E(RHF) =  -868.338529148     A.U. after   16 cycles
 E2 =    -0.2598954251D+01 EUMP2 =    -0.87093748339925D+03

 The electronic state is 1-A.
 Alpha  occ. eigenvalues --  -20.61751 -20.61694 -20.60291 -20.60286 -15.86769
 Alpha  occ. eigenvalues --  -15.85343 -11.32043 -11.30597 -11.28680 -11.28535
 Alpha  occ. eigenvalues --  -11.28263 -11.27594 -11.27525 -11.27179 -11.27160
 Alpha  occ. eigenvalues --  -11.26836 -11.26147 -11.26112  -1.60785  -1.59369
 Alpha  occ. eigenvalues --   -1.40350  -1.38926  -1.20191  -1.18758  -1.09590
 Alpha  occ. eigenvalues --   -1.08157  -1.05584  -1.04155  -0.96450  -0.95014
 Alpha  occ. eigenvalues --   -0.86984  -0.85550  -0.83293  -0.81859  -0.78369
 Alpha  occ. eigenvalues --   -0.76934  -0.72997  -0.72099  -0.71564  -0.71296
 Alpha  occ. eigenvalues --   -0.70691  -0.69832  -0.65844  -0.65578  -0.64409
 Alpha  occ. eigenvalues --   -0.64157  -0.62949  -0.61516  -0.56059  -0.54617
 Alpha  occ. eigenvalues --   -0.53906  -0.53670  -0.52472  -0.52249  -0.49757
 Alpha  occ. eigenvalues --   -0.49713  -0.48324  -0.48312  -0.45773  -0.44357
 Alpha  occ. eigenvalues --   -0.38141  -0.37180  -0.36690  -0.35761
 Alpha virt. eigenvalues --    0.04172   0.05613   0.10473   0.11906   0.15702
 Alpha virt. eigenvalues --    0.17142   0.19231   0.21864   0.25066   0.26979
 Alpha virt. eigenvalues --    0.27909   0.28884   0.30618   0.30994   0.33051

 Mulliken charges:
               1
     1  C   -0.170027
     2  C   -0.218076
     3  C   -0.169975
     4  C    0.158822
     5  C   -0.171570
     6  C   -0.218773
     7  H    0.228486
     8  H    0.226487
     9  H    0.277815
    10  H    0.268167
    11  H    0.224794
    12  N    0.490366
    13  O   -0.470956
    14  O   -0.454162
    15  C   -0.167369
    16  C   -0.219759
    17  C   -0.171074
    18  C    0.157719
    19  C   -0.171371
    20  C   -0.217949
    21  H    0.231516
    22  H    0.221704
    23  H    0.273664
    24  H    0.273939
    25  H    0.223224
    26  N    0.488219
    27  O   -0.461803
    28  O   -0.462058
 Sum of Mulliken charges =  -0.00000

 Dipole moment (field-independent basis, Debye):
    X=              8.9082    Y=             -4.7389    Z=              0.3799  Tot=             10.0974
 Quadrupole moment (field-independent basis, Debye-Ang):
   XX=           -120.3462   YY=           -106.5845   ZZ=           -100.8188
   XY=             -9.6325   XZ=             -3.2948   YZ=             -0.1255

 Normal termination of Gaussian 16 at Thu May  6 00:17:04 2021.
