 Gaussian 16, Revision A.03,
 Gaussian 16:  EM64L-G16RevA.03 25-Dec-2016

 -------------
 #p 6-31g* mp2
 -------------

 ------------------------------------------------------
 Input file generated by CHIRIPA (05-May-2021 14:55:23)
 ------------------------------------------------------
 Symbolic Z-matrix:
 Charge =  0 Multiplicity = 1

                         Standard orientation:
 ---------------------------------------------------------------------
 Center     Atomic      Atomic             Coordinates (Angstroms)
 Number     Number       Type             X           Y           Z
 ---------------------------------------------------------------------
      1          6           0       -2.886437    2.339926   -0.675682
      2          6           0       -1.881112    2.198551    0.286533
      3          6           0       -1.520418    0.931934    0.755711
      4          6           0       -2.188786   -0.176749    0.238607
      5          6           0       -3.194507   -0.068478   -0.720607
      6          6           0       -3.538775    1.207955   -1.175300
      7          1           0       -3.160253    3.327677   -1.034524
      8          1           0       -1.372793    3.075885    0.676331
      9          1           0       -0.745740    0.793736    1.500153
     10          1           0       -3.683267   -0.961689   -1.090346
     11          1           0       -4.319902    1.314735   -1.922618
     12          7           0       -1.815629   -1.522855    0.727637
     13          8           0       -2.419624   -2.483868    0.256169
     14          8           0       -0.926221   -1.591432    1.573147
     15          6           0        2.657694    0.621108    0.067972
     16          6           0        3.714534    1.714282   -0.093404
     17          6           0        3.254321    3.066555    0.451902
     18          1           0        1.737282    0.931125   -0.445521
     19          1           0        2.403310    0.520993    1.132238
     20          1           0        3.967858    1.811350   -1.156898
     21          1           0        4.632600    1.401542    0.420370
     22          1           0        3.020191    2.992225    1.518795
     23          1           0        2.351672    3.404362   -0.067435
     24          1           0        4.025043    3.833418    0.326328
     25          6           0        3.103039   -0.736579   -0.472474
     26          6           0        2.046199   -1.829754   -0.311098
     27          6           0        2.506413   -3.182026   -0.856405
     28          1           0        3.357424   -0.636466   -1.536740
     29          1           0        4.023452   -1.046597    0.041018
     30          1           0        1.128133   -1.517014   -0.824872
     31          1           0        1.792875   -1.926822    0.752396
     32          1           0        3.409061   -3.519833   -0.337067
     33          1           0        2.740543   -3.107697   -1.923297
     34          1           0        1.735690   -3.948889   -0.730830
 ---------------------------------------------------------------------

 SCF Done:  E(RHF) =  -669.536015145     A.U. after   15 cycles
 E2 =    -0.2092874737D+01 EUMP2 =    -0.67162888988193D+03

 The electronic state is 1-A.
 Alpha  occ. eigenvalues --  -20.60859 -20.60832 -15.85876 -11.31225 -11.27797
 Alpha  occ. eigenvalues --  -11.27779 -11.27535 -11.26805 -11.26790 -11.21632
 Alpha  occ. eigenvalues --  -11.21345 -11.21270 -11.20942 -11.20694 -11.20245
 Alpha  occ. eigenvalues --   -1.59907  -1.39463  -1.19397  -1.08797  -1.08134
 Alpha  occ. eigenvalues --   -1.04793  -1.03174  -0.95679  -0.95635  -0.86704
 Alpha  occ. eigenvalues --   -0.86191  -0.82471  -0.79295  -0.77921  -0.77469
 Alpha  occ. eigenvalues --   -0.72109  -0.71214  -0.70501  -0.65053  -0.64792
 Alpha  occ. eigenvalues --   -0.64768  -0.62136  -0.60573  -0.59087  -0.57239
 Alpha  occ. eigenvalues --   -0.55299  -0.54997  -0.53128  -0.52884  -0.52353
 Alpha  occ. eigenvalues --   -0.52098  -0.49658  -0.48871  -0.48866  -0.47614
 Alpha  occ. eigenvalues --   -0.46348  -0.45648  -0.45309  -0.44541  -0.43427
 Alpha  occ. eigenvalues --   -0.37375  -0.36381
 Alpha virt. eigenvalues --    0.04975   0.11223   0.16425   0.20966   0.23091
 Alpha virt. eigenvalues --    0.24533   0.26041   0.26614   0.27571   0.28281
 Alpha virt. eigenvalues --    0.29079   0.30722   0.31841   0.31919   0.32550

 Mulliken charges:
               1
     1  C   -0.170628
     2  C   -0.220344
     3  C   -0.169449
     4  C    0.156530
     5  C   -0.171037
     6  C   -0.218678
     7  H    0.225819
     8  H    0.224708
     9  H    0.277839
    10  H    0.275668
    11  H    0.223549
    12  N    0.489276
    13  O   -0.460246
    14  O   -0.458695
    15  C   -0.300938
    16  C   -0.298615
    17  C   -0.475696
    18  H    0.146175
    19  H    0.149721
    20  H    0.152195
    21  H    0.153729
    22  H    0.153377
    23  H    0.149080
    24  H    0.161280
    25  C   -0.298509
    26  C   -0.300743
    27  C   -0.477150
    28  H    0.146525
    29  H    0.149026
    30  H    0.143217
    31  H    0.172789
    32  H    0.152429
    33  H    0.149667
    34  H    0.168127
 Sum of Mulliken charges =  -0.00000

 Dipole moment (field-independent basis, Debye):
    X=             -1.4070    Y=              4.5996    Z=             -1.6071  Tot=              5.0714
 Quadrupole moment (field-independent basis, Debye-Ang):
   XX=            -87.1423   YY=            -97.1160   ZZ=            -93.6710
   XY=             -8.7395   XZ=              6.6400   YZ=              1.9996

 Normal termination of Gaussian 16 at Thu May  6 12:37:56 2021.
