 Gaussian 16, Revision A.03,
 Gaussian 16:  EM64L-G16RevA.03 25-Dec-2016

 -------------
 #p 6-31g* mp2
 -------------

 ------------------------------------------------------
 Input file generated by CHIRIPA (05-May-2021 14:51:13)
 ------------------------------------------------------
 Symbolic Z-matrix:
 Charge =  0 Multiplicity = 1

                         Standard orientation:
 ---------------------------------------------------------------------
 Center     Atomic      Atomic             Coordinates (Angstroms)
 Number     Number       Type             X           Y           Z
 ---------------------------------------------------------------------
      1          6           0        4.635131   -0.336686   -0.364786
      2          6           0        5.858079   -0.561092    0.525172
      3          6           0        7.087421   -1.014513   -0.262813
      4          1           0        4.405251   -1.266725   -0.902493
      5          1           0        4.879319    0.414061   -1.129081
      6          1           0        5.611217   -1.310179    1.288418
      7          1           0        6.084958    0.369534    1.060967
      8          1           0        7.361438   -0.266139   -1.013447
      9          1           0        6.885006   -1.955395   -0.784704
     10          1           0        7.950026   -1.169015    0.392856
     11          6           0        3.398186    0.116888    0.408496
     12          6           0        2.175238    0.341295   -0.481463
     13          6           0        0.945895    0.794716    0.306522
     14          1           0        3.153997   -0.633858    1.172790
     15          1           0        3.628065    1.046927    0.946202
     16          1           0        1.948359   -0.589331   -1.017258
     17          1           0        2.422099    1.090382   -1.244709
     18          1           0        1.148310    1.735598    0.828413
     19          1           0        0.671878    0.046341    1.057156
     20          1           0        0.083290    0.949218   -0.349147
     21          6           0       -4.301983   -0.502089   -0.378916
     22          6           0       -5.054728   -1.451904    0.553399
     23          6           0       -5.619653   -2.671417   -0.175601
     24          1           0       -4.978126   -0.171874   -1.179375
     25          1           0       -3.484102   -1.050144   -0.866872
     26          1           0       -5.870088   -0.901871    1.040499
     27          1           0       -4.376769   -1.779746    1.351840
     28          1           0       -4.815307   -3.244860   -0.647610
     29          1           0       -6.317110   -2.361996   -0.960721
     30          1           0       -6.153785   -3.336973    0.509672
     31          6           0       -3.731333    0.721886    0.335207
     32          6           0       -2.978589    1.671702   -0.597108
     33          6           0       -2.413664    2.891215    0.131892
     34          1           0       -4.549214    1.269942    0.823163
     35          1           0       -3.055191    0.391671    1.135666
     36          1           0       -3.656548    1.999543   -1.395549
     37          1           0       -2.163228    1.121668   -1.084208
     38          1           0       -1.716207    2.581794    0.917011
     39          1           0       -3.218010    3.464657    0.603901
     40          1           0       -1.879532    3.556770   -0.553381
 ---------------------------------------------------------------------

 SCF Done:  E(RHF) =  -470.732944095     A.U. after   11 cycles
 E2 =    -0.1582984763D+01 EUMP2 =    -0.47231592885787D+03

 The electronic state is 1-A.
 Alpha  occ. eigenvalues --  -11.21625 -11.21613 -11.21584 -11.21567 -11.21420
 Alpha  occ. eigenvalues --  -11.21375 -11.21361 -11.21313 -11.21080 -11.21072
 Alpha  occ. eigenvalues --  -11.21060 -11.20981  -1.08450  -1.08398  -1.03574
 Alpha  occ. eigenvalues --   -1.03476  -0.96037  -0.95907  -0.87037  -0.86942
 Alpha  occ. eigenvalues --   -0.79615  -0.79566  -0.78259  -0.78217  -0.65076
 Alpha  occ. eigenvalues --   -0.65057  -0.61023  -0.60937  -0.59372  -0.59246
 Alpha  occ. eigenvalues --   -0.57651  -0.57507  -0.55351  -0.55182  -0.52668
 Alpha  occ. eigenvalues --   -0.52623  -0.52432  -0.52351  -0.50018  -0.49801
 Alpha  occ. eigenvalues --   -0.47965  -0.47860  -0.46668  -0.46559  -0.45813
 Alpha  occ. eigenvalues --   -0.45756  -0.45725  -0.45661  -0.43793  -0.43722
 Alpha virt. eigenvalues --    0.21336   0.23015   0.23717   0.24955   0.26377
 Alpha virt. eigenvalues --    0.26558   0.26702   0.27701   0.27849   0.28962
 Alpha virt. eigenvalues --    0.30349   0.30869   0.31401   0.31798   0.32243

 Mulliken charges:
               1
     1  C   -0.298235
     2  C   -0.299635
     3  C   -0.475709
     4  H    0.149602
     5  H    0.149585
     6  H    0.151903
     7  H    0.151992
     8  H    0.155216
     9  H    0.155172
    10  H    0.160291
    11  C   -0.298638
    12  C   -0.299629
    13  C   -0.483297
    14  H    0.149397
    15  H    0.149783
    16  H    0.151565
    17  H    0.152138
    18  H    0.155787
    19  H    0.154192
    20  H    0.169026
    21  C   -0.298331
    22  C   -0.299629
    23  C   -0.475683
    24  H    0.149530
    25  H    0.149440
    26  H    0.151911
    27  H    0.151917
    28  H    0.155088
    29  H    0.155156
    30  H    0.160178
    31  C   -0.298518
    32  C   -0.303490
    33  C   -0.478422
    34  H    0.149525
    35  H    0.150532
    36  H    0.152184
    37  H    0.153574
    38  H    0.160247
    39  H    0.154731
    40  H    0.159555
 Sum of Mulliken charges =  -0.00000

 Dipole moment (field-independent basis, Debye):
    X=              0.0113    Y=              0.0096    Z=              0.0093  Tot=              0.0175
 Quadrupole moment (field-independent basis, Debye-Ang):
   XX=            -85.2016   YY=            -84.5671   ZZ=            -85.0911
   XY=             -0.2592   XZ=              0.3193   YZ=             -0.7025

 Normal termination of Gaussian 16 at Wed May  5 21:37:19 2021.
