 Gaussian 16, Revision A.03,
 Gaussian 16:  EM64L-G16RevA.03 25-Dec-2016

 -------------
 #p 6-31g* mp2
 -------------

 ------------------------------------------------------
 Input file generated by CHIRIPA (05-May-2021 14:55:24)
 ------------------------------------------------------
 Symbolic Z-matrix:
 Charge =  0 Multiplicity = 1

                         Standard orientation:
 ---------------------------------------------------------------------
 Center     Atomic      Atomic             Coordinates (Angstroms)
 Number     Number       Type             X           Y           Z
 ---------------------------------------------------------------------
      1          6           0        5.550768   -0.827111    0.145837
      2          6           0        4.810867   -0.607551    1.312396
      3          6           0        3.466411   -0.231034    1.240132
      4          6           0        2.891061   -0.082499   -0.020899
      5          6           0        3.601829   -0.294026   -1.201304
      6          6           0        4.944955   -0.669925   -1.105085
      7          1           0        6.594658   -1.119358    0.211278
      8          1           0        5.278738   -0.728876    2.285238
      9          1           0        2.870298   -0.054681    2.127243
     10          1           0        3.107914   -0.165215   -2.156749
     11          1           0        5.517129   -0.839770   -2.012727
     12          7           0        1.468449    0.315775   -0.110082
     13          8           0        0.984797    0.439991   -1.233153
     14          8           0        0.863996    0.496185    0.944776
     15          6           0       -3.775804    0.868769    0.275558
     16          6           0       -2.521681    1.407162   -0.413856
     17          6           0       -2.084230    2.766574    0.132428
     18          1           0       -4.592403    1.593813    0.155460
     19          1           0       -3.586192    0.787487    1.354834
     20          1           0       -2.713142    1.486097   -1.491691
     21          1           0       -1.708026    0.680664   -0.292266
     22          1           0       -1.866148    2.699399    1.203188
     23          1           0       -2.876975    3.509407   -0.003051
     24          1           0       -1.185966    3.132743   -0.374428
     25          6           0       -4.225539   -0.489532   -0.259685
     26          6           0       -5.479662   -1.027923    0.429730
     27          6           0       -5.917114   -2.387337   -0.116553
     28          1           0       -4.415151   -0.408249   -1.338960
     29          1           0       -3.408941   -1.214575   -0.139586
     30          1           0       -6.293317   -0.301427    0.308140
     31          1           0       -5.288201   -1.106860    1.507565
     32          1           0       -5.124368   -3.130170    0.018925
     33          1           0       -6.135196   -2.320161   -1.187314
     34          1           0       -6.815377   -2.753505    0.390302
 ---------------------------------------------------------------------

 SCF Done:  E(RHF) =  -669.536752368     A.U. after   15 cycles
 E2 =    -0.2092311307D+01 EUMP2 =    -0.67162906367571D+03

 The electronic state is 1-A.
 Alpha  occ. eigenvalues --  -20.61175 -20.61169 -15.86159 -11.31422 -11.27968
 Alpha  occ. eigenvalues --  -11.27964 -11.27693 -11.26957 -11.26947 -11.20620
 Alpha  occ. eigenvalues --  -11.20285 -11.20112 -11.19784 -11.19326 -11.19137
 Alpha  occ. eigenvalues --   -1.60203  -1.39759  -1.19576  -1.08994  -1.06982
 Alpha  occ. eigenvalues --   -1.04960  -1.02013  -0.95845  -0.94543  -0.86363
 Alpha  occ. eigenvalues --   -0.85584  -0.82680  -0.78174  -0.77747  -0.76664
 Alpha  occ. eigenvalues --   -0.72355  -0.71502  -0.70684  -0.65230  -0.64966
 Alpha  occ. eigenvalues --   -0.63625  -0.62306  -0.59418  -0.57995  -0.56122
 Alpha  occ. eigenvalues --   -0.55453  -0.53868  -0.53296  -0.53049  -0.51279
 Alpha  occ. eigenvalues --   -0.50963  -0.49178  -0.49125  -0.48529  -0.46447
 Alpha  occ. eigenvalues --   -0.45225  -0.45159  -0.44238  -0.43942  -0.42296
 Alpha  occ. eigenvalues --   -0.37550  -0.36556
 Alpha virt. eigenvalues --    0.04773   0.11101   0.16290   0.21242   0.24183
 Alpha virt. eigenvalues --    0.25851   0.27170   0.28025   0.28176   0.28991
 Alpha virt. eigenvalues --    0.29344   0.30827   0.32351   0.32795   0.33113

 Mulliken charges:
               1
     1  C   -0.170289
     2  C   -0.218615
     3  C   -0.170642
     4  C    0.160198
     5  C   -0.170663
     6  C   -0.218620
     7  H    0.226474
     8  H    0.224275
     9  H    0.276039
    10  H    0.276211
    11  H    0.224305
    12  N    0.487735
    13  O   -0.457435
    14  O   -0.458542
    15  C   -0.298012
    16  C   -0.304706
    17  C   -0.470829
    18  H    0.142108
    19  H    0.147206
    20  H    0.143122
    21  H    0.181591
    22  H    0.154554
    23  H    0.142461
    24  H    0.160554
    25  C   -0.296814
    26  C   -0.298375
    27  C   -0.474727
    28  H    0.146928
    29  H    0.150494
    30  H    0.149603
    31  H    0.150194
    32  H    0.153786
    33  H    0.153727
    34  H    0.156704
 Sum of Mulliken charges =  -0.00000

 Dipole moment (field-independent basis, Debye):
    X=              5.6022    Y=             -1.5016    Z=              0.3105  Tot=              5.8083
 Quadrupole moment (field-independent basis, Debye-Ang):
   XX=            -67.9582   YY=            -96.9801   ZZ=            -89.3928
   XY=             -5.1215   XZ=              0.7865   YZ=             -0.4407

 Normal termination of Gaussian 16 at Thu May  6 11:03:07 2021.
