 Gaussian 16, Revision A.03,
 Gaussian 16:  EM64L-G16RevA.03 25-Dec-2016

 -------------
 #p 6-31g* mp2
 -------------

 ------------------------------------------------------
 Input file generated by CHIRIPA (05-May-2021 14:51:08)
 ------------------------------------------------------
 Symbolic Z-matrix:
 Charge =  0 Multiplicity = 1

                         Standard orientation:
 ---------------------------------------------------------------------
 Center     Atomic      Atomic             Coordinates (Angstroms)
 Number     Number       Type             X           Y           Z
 ---------------------------------------------------------------------
      1          6           0       -2.904287    0.860091    0.375198
      2          6           0       -1.992525    1.829413   -0.377855
      3          6           0       -0.900713    2.425589    0.511140
      4          1           0       -3.365632    1.384460    1.223221
      5          1           0       -2.295182    0.051160    0.801832
      6          1           0       -2.603344    2.635528   -0.804111
      7          1           0       -1.533446    1.302726   -1.224297
      8          1           0       -0.267037    1.634902    0.925713
      9          1           0       -1.343014    2.975277    1.348286
     10          1           0       -0.260513    3.115579   -0.047355
     11          6           0       -4.000813    0.255827   -0.500145
     12          6           0       -4.912575   -0.713495    0.252908
     13          6           0       -6.004387   -1.309672   -0.636087
     14          1           0       -4.609918    1.064757   -0.926779
     15          1           0       -3.539468   -0.268543   -1.348168
     16          1           0       -5.371654   -0.186809    1.099350
     17          1           0       -4.301756   -1.519611    0.679164
     18          1           0       -5.562086   -1.859360   -1.473233
     19          1           0       -6.638063   -0.518985   -1.050660
     20          1           0       -6.644587   -1.999662   -0.077591
     21          6           0        4.099332   -0.213751    0.278404
     22          6           0        5.168342   -0.191210   -0.814616
     23          6           0        6.456424    0.500713   -0.367534
     24          1           0        3.875950    0.817212    0.585261
     25          1           0        4.501815   -0.723438    1.164758
     26          1           0        4.763488    0.317061   -1.699133
     27          1           0        5.389067   -1.222336   -1.119041
     28          1           0        6.886317   -0.009259    0.500638
     29          1           0        6.257184    1.538886   -0.082749
     30          1           0        7.206905    0.505500   -1.164161
     31          6           0        2.805768   -0.902167   -0.153458
     32          6           0        1.736758   -0.924708    0.939563
     33          6           0        0.448676   -1.616631    0.492481
     34          1           0        2.403285   -0.392480   -1.039812
     35          1           0        3.029151   -1.933129   -0.460315
     36          1           0        1.516033    0.106419    1.243988
     37          1           0        2.141612   -1.432979    1.824079
     38          1           0        0.647917   -2.654802    0.207696
     39          1           0        0.018783   -1.106659   -0.375691
     40          1           0       -0.301804   -1.621417    1.289109
 ---------------------------------------------------------------------

 SCF Done:  E(RHF) =  -470.732844237     A.U. after   11 cycles
 E2 =    -0.1583886221D+01 EUMP2 =    -0.47231673045830D+03

 The electronic state is 1-A.
 Alpha  occ. eigenvalues --  -11.21661 -11.21617 -11.21592 -11.21564 -11.21439
 Alpha  occ. eigenvalues --  -11.21375 -11.21347 -11.21275 -11.21177 -11.21080
 Alpha  occ. eigenvalues --  -11.21052 -11.21040  -1.08478  -1.08383  -1.03607
 Alpha  occ. eigenvalues --   -1.03481  -0.96036  -0.95950  -0.87069  -0.86954
 Alpha  occ. eigenvalues --   -0.79658  -0.79559  -0.78281  -0.78203  -0.65252
 Alpha  occ. eigenvalues --   -0.64917  -0.61257  -0.60645  -0.59427  -0.59290
 Alpha  occ. eigenvalues --   -0.57650  -0.57558  -0.55365  -0.55192  -0.52752
 Alpha  occ. eigenvalues --   -0.52652  -0.52467  -0.52366  -0.50134  -0.49769
 Alpha  occ. eigenvalues --   -0.48001  -0.47838  -0.46786  -0.46472  -0.45847
 Alpha  occ. eigenvalues --   -0.45735  -0.45715  -0.45601  -0.43810  -0.43750
 Alpha virt. eigenvalues --    0.19994   0.23044   0.23758   0.24991   0.26036
 Alpha virt. eigenvalues --    0.26221   0.26398   0.27631   0.28545   0.29375
 Alpha virt. eigenvalues --    0.30362   0.30860   0.31561   0.31948   0.32365

 Mulliken charges:
               1
     1  C   -0.304140
     2  C   -0.299058
     3  C   -0.483822
     4  H    0.149025
     5  H    0.156568
     6  H    0.151974
     7  H    0.151089
     8  H    0.163004
     9  H    0.155389
    10  H    0.159452
    11  C   -0.297978
    12  C   -0.299678
    13  C   -0.475681
    14  H    0.149212
    15  H    0.149473
    16  H    0.151728
    17  H    0.152081
    18  H    0.155251
    19  H    0.155047
    20  H    0.160110
    21  C   -0.298585
    22  C   -0.299710
    23  C   -0.475754
    24  H    0.150297
    25  H    0.149587
    26  H    0.152015
    27  H    0.151899
    28  H    0.155202
    29  H    0.155342
    30  H    0.160297
    31  C   -0.298130
    32  C   -0.305845
    33  C   -0.480165
    34  H    0.149744
    35  H    0.149758
    36  H    0.157113
    37  H    0.152673
    38  H    0.155969
    39  H    0.157524
    40  H    0.161722
 Sum of Mulliken charges =  -0.00000

 Dipole moment (field-independent basis, Debye):
    X=              0.0389    Y=             -0.0275    Z=              0.0150  Tot=              0.0499
 Quadrupole moment (field-independent basis, Debye-Ang):
   XX=            -86.0266   YY=            -83.9086   ZZ=            -84.9155
   XY=             -1.6743   XZ=             -0.6433   YZ=             -0.4556

 Normal termination of Gaussian 16 at Thu May  6 09:59:59 2021.
