 Gaussian 16, Revision A.03,
 Gaussian 16:  EM64L-G16RevA.03 25-Dec-2016

 -------------
 #p 6-31g* mp2
 -------------

 ------------------------------------------------------
 Input file generated by CHIRIPA (05-May-2021 14:55:22)
 ------------------------------------------------------
 Symbolic Z-matrix:
 Charge =  0 Multiplicity = 1

                         Standard orientation:
 ---------------------------------------------------------------------
 Center     Atomic      Atomic             Coordinates (Angstroms)
 Number     Number       Type             X           Y           Z
 ---------------------------------------------------------------------
      1          6           0        1.550253    1.719674    1.768483
      2          6           0        2.332866    0.652785    2.222118
      3          6           0        2.801912   -0.314199    1.327977
      4          6           0        2.467816   -0.182749   -0.019017
      5          6           0        1.690028    0.868630   -0.501653
      6          6           0        1.231892    1.824007    0.410440
      7          1           0        1.190125    2.466342    2.470046
      8          1           0        2.581673    0.569214    3.276232
      9          1           0        3.409504   -1.150375    1.652104
     10          1           0        1.458480    0.925136   -1.558351
     11          1           0        0.624285    2.651495    0.055304
     12          7           0        2.958599   -1.200307   -0.975106
     13          8           0        2.650351   -1.061873   -2.156824
     14          8           0        3.642228   -2.117037   -0.524668
     15          6           0       -3.038696   -0.742941   -0.224424
     16          6           0       -3.981367   -1.432062    0.762728
     17          6           0       -3.936953   -2.956704    0.656467
     18          1           0       -3.301189   -1.048489   -1.246520
     19          1           0       -2.012720   -1.094058   -0.046981
     20          1           0       -5.005063   -1.078710    0.584389
     21          1           0       -3.716722   -1.124689    1.782581
     22          1           0       -2.926234   -3.327461    0.855436
     23          1           0       -4.221896   -3.281221   -0.349564
     24          1           0       -4.618336   -3.428961    1.370993
     25          6           0       -3.071844    0.781450   -0.130287
     26          6           0       -2.129173    1.470572   -1.117438
     27          6           0       -2.173587    2.995213   -1.011176
     28          1           0       -4.097820    1.132567   -0.307728
     29          1           0       -2.809350    1.086999    0.891811
     30          1           0       -2.393818    1.163197   -2.137291
     31          1           0       -1.105477    1.117219   -0.939099
     32          1           0       -1.888644    3.319731   -0.005146
     33          1           0       -3.184305    3.365971   -1.210146
     34          1           0       -1.492204    3.467471   -1.725704
 ---------------------------------------------------------------------

 SCF Done:  E(RHF) =  -669.534118204     A.U. after   15 cycles
 E2 =    -0.2093840222D+01 EUMP2 =    -0.67162795842670D+03

 The electronic state is 1-A.
 Alpha  occ. eigenvalues --  -20.60804 -20.60799 -15.85858 -11.31249 -11.27804
 Alpha  occ. eigenvalues --  -11.27791 -11.27538 -11.26834 -11.26768 -11.22106
 Alpha  occ. eigenvalues --  -11.21968 -11.21803 -11.21780 -11.21580 -11.21142
 Alpha  occ. eigenvalues --   -1.59879  -1.39432  -1.19424  -1.08839  -1.08768
 Alpha  occ. eigenvalues --   -1.04849  -1.03940  -0.96415  -0.95641  -0.87425
 Alpha  occ. eigenvalues --   -0.86213  -0.82487  -0.80024  -0.78574  -0.77516
 Alpha  occ. eigenvalues --   -0.72075  -0.71204  -0.70523  -0.65560  -0.65059
 Alpha  occ. eigenvalues --   -0.64778  -0.62334  -0.61186  -0.59795  -0.57996
 Alpha  occ. eigenvalues --   -0.55743  -0.55278  -0.53211  -0.53112  -0.52863
 Alpha  occ. eigenvalues --   -0.52804  -0.50341  -0.48833  -0.48830  -0.48323
 Alpha  occ. eigenvalues --   -0.47057  -0.46116  -0.46016  -0.44830  -0.44172
 Alpha  occ. eigenvalues --   -0.37403  -0.36328
 Alpha virt. eigenvalues --    0.04977   0.11151   0.16355   0.20240   0.22917
 Alpha virt. eigenvalues --    0.23982   0.26239   0.26489   0.26774   0.28350
 Alpha virt. eigenvalues --    0.29252   0.30847   0.31157   0.31493   0.31865

 Mulliken charges:
               1
     1  C   -0.173715
     2  C   -0.218295
     3  C   -0.171762
     4  C    0.157382
     5  C   -0.172818
     6  C   -0.221470
     7  H    0.225856
     8  H    0.223657
     9  H    0.275776
    10  H    0.277182
    11  H    0.234698
    12  N    0.488106
    13  O   -0.459923
    14  O   -0.460324
    15  C   -0.299441
    16  C   -0.299842
    17  C   -0.476094
    18  H    0.152194
    19  H    0.152420
    20  H    0.151759
    21  H    0.150312
    22  H    0.156948
    23  H    0.156825
    24  H    0.160208
    25  C   -0.296517
    26  C   -0.309088
    27  C   -0.481721
    28  H    0.150511
    29  H    0.146667
    30  H    0.156734
    31  H    0.155716
    32  H    0.147592
    33  H    0.162843
    34  H    0.157625
 Sum of Mulliken charges =  -0.00000

 Dipole moment (field-independent basis, Debye):
    X=             -1.7710    Y=              3.4988    Z=              3.3469  Tot=              5.1556
 Quadrupole moment (field-independent basis, Debye-Ang):
   XX=           -102.1406   YY=            -96.7798   ZZ=            -91.8414
   XY=              7.9623   XZ=             11.0974   YZ=             -2.6712

 Normal termination of Gaussian 16 at Wed May  5 23:52:53 2021.
