 Gaussian 16, Revision A.03,
 Gaussian 16:  EM64L-G16RevA.03 25-Dec-2016

 -------------
 #p 6-31g* mp2
 -------------

 ------------------------------------------------------
 Input file generated by CHIRIPA (05-May-2021 14:51:11)
 ------------------------------------------------------
 Symbolic Z-matrix:
 Charge =  0 Multiplicity = 1

                         Standard orientation:
 ---------------------------------------------------------------------
 Center     Atomic      Atomic             Coordinates (Angstroms)
 Number     Number       Type             X           Y           Z
 ---------------------------------------------------------------------
      1          6           0       -2.600344   -1.084000    0.700693
      2          6           0       -1.172970   -1.631936    0.681854
      3          6           0       -0.866859   -2.525501    1.884198
      4          1           0       -2.756832   -0.518059    1.629223
      5          1           0       -3.307964   -1.924319    0.723790
      6          1           0       -0.468278   -0.790849    0.657402
      7          1           0       -1.019801   -2.196478   -0.246827
      8          1           0       -1.546700   -3.383271    1.909692
      9          1           0       -0.992043   -1.969656    2.819059
     10          1           0        0.158679   -2.906296    1.850630
     11          6           0       -2.921480   -0.188897   -0.494877
     12          6           0       -4.348854    0.359039   -0.476037
     13          6           0       -4.654965    1.252604   -1.678381
     14          1           0       -2.213860    0.651422   -0.517974
     15          1           0       -2.764992   -0.754838   -1.423406
     16          1           0       -4.502023    0.923581    0.452644
     17          1           0       -5.053546   -0.482048   -0.451585
     18          1           0       -4.529782    0.696758   -2.613242
     19          1           0       -3.975125    2.110374   -1.703876
     20          1           0       -5.680503    1.633399   -1.644814
     21          6           0        2.214995    0.944699    0.333426
     22          6           0        2.324148    2.464783    0.457597
     23          6           0        1.225048    3.066788    1.333589
     24          1           0        1.230986    0.686798   -0.081491
     25          1           0        2.258199    0.497828    1.336340
     26          1           0        2.282142    2.908560   -0.545355
     27          1           0        3.308086    2.719105    0.872089
     28          1           0        1.268304    2.651511    2.345654
     29          1           0        0.236530    2.842044    0.920157
     30          1           0        1.322110    4.154352    1.408700
     31          6           0        3.306829    0.328198   -0.539243
     32          6           0        3.197676   -1.191885   -0.663413
     33          6           0        4.296777   -1.793890   -1.539405
     34          1           0        3.263625    0.775069   -1.542156
     35          1           0        4.290838    0.586099   -0.124325
     36          1           0        2.213738   -1.446207   -1.077905
     37          1           0        3.239682   -1.635663    0.339539
     38          1           0        5.285293   -1.569147   -1.125973
     39          1           0        4.253520   -1.378614   -2.551471
     40          1           0        4.199714   -2.881455   -1.614516
 ---------------------------------------------------------------------

 SCF Done:  E(RHF) =  -470.733297499     A.U. after   11 cycles
 E2 =    -0.1583448569D+01 EUMP2 =    -0.47231674606803D+03

 The electronic state is 1-A.
 Alpha  occ. eigenvalues --  -11.21645 -11.21610 -11.21602 -11.21509 -11.21429
 Alpha  occ. eigenvalues --  -11.21410 -11.21370 -11.21332 -11.21140 -11.21082
 Alpha  occ. eigenvalues --  -11.21076 -11.21021  -1.08472  -1.08407  -1.03559
 Alpha  occ. eigenvalues --   -1.03506  -0.96014  -0.95959  -0.87031  -0.86974
 Alpha  occ. eigenvalues --   -0.79631  -0.79577  -0.78399  -0.78111  -0.65155
 Alpha  occ. eigenvalues --   -0.64991  -0.60970  -0.60895  -0.59383  -0.59327
 Alpha  occ. eigenvalues --   -0.57642  -0.57551  -0.55314  -0.55239  -0.52710
 Alpha  occ. eigenvalues --   -0.52647  -0.52462  -0.52367  -0.49990  -0.49877
 Alpha  occ. eigenvalues --   -0.48001  -0.47889  -0.46780  -0.46600  -0.46139
 Alpha  occ. eigenvalues --   -0.45771  -0.45721  -0.45160  -0.43813  -0.43760
 Alpha virt. eigenvalues --    0.20780   0.22964   0.23777   0.24163   0.25195
 Alpha virt. eigenvalues --    0.26553   0.26790   0.27710   0.28389   0.29628
 Alpha virt. eigenvalues --    0.30881   0.31005   0.31413   0.31849   0.32092

 Mulliken charges:
               1
     1  C   -0.297763
     2  C   -0.308508
     3  C   -0.475501
     4  H    0.149718
     5  H    0.149351
     6  H    0.162049
     7  H    0.150818
     8  H    0.154752
     9  H    0.154800
    10  H    0.160587
    11  C   -0.298742
    12  C   -0.299627
    13  C   -0.475708
    14  H    0.148359
    15  H    0.149488
    16  H    0.152195
    17  H    0.152162
    18  H    0.155095
    19  H    0.155009
    20  H    0.160383
    21  C   -0.304842
    22  C   -0.298965
    23  C   -0.476178
    24  H    0.155889
    25  H    0.149669
    26  H    0.152032
    27  H    0.152215
    28  H    0.155326
    29  H    0.154232
    30  H    0.160768
    31  C   -0.297775
    32  C   -0.301268
    33  C   -0.475733
    34  H    0.149511
    35  H    0.149680
    36  H    0.154192
    37  H    0.151685
    38  H    0.155163
    39  H    0.155213
    40  H    0.160273
 Sum of Mulliken charges =  -0.00000

 Dipole moment (field-independent basis, Debye):
    X=              0.0280    Y=              0.0123    Z=             -0.0017  Tot=              0.0306
 Quadrupole moment (field-independent basis, Debye-Ang):
   XX=            -84.9979   YY=            -84.9372   ZZ=            -84.8505
   XY=              0.8748   XZ=              0.8082   YZ=              0.5598

 Normal termination of Gaussian 16 at Wed May  5 15:13:40 2021.
