 Gaussian 16, Revision A.03,
 Gaussian 16:  EM64L-G16RevA.03 25-Dec-2016

 -------------
 #p 6-31g* mp2
 -------------

 ------------------------------------------------------
 Input file generated by CHIRIPA (05-May-2021 14:55:25)
 ------------------------------------------------------
 Symbolic Z-matrix:
 Charge =  0 Multiplicity = 1

                         Standard orientation:
 ---------------------------------------------------------------------
 Center     Atomic      Atomic             Coordinates (Angstroms)
 Number     Number       Type             X           Y           Z
 ---------------------------------------------------------------------
      1          6           0       -0.402677   -2.617115    1.269395
      2          6           0       -0.935226   -1.536961    1.980860
      3          6           0       -1.626831   -0.520296    1.315562
      4          6           0       -1.767870   -0.616130   -0.067990
      5          6           0       -1.248761   -1.679552   -0.804840
      6          6           0       -0.560865   -2.684843   -0.118737
      7          1           0        0.133138   -3.402467    1.794296
      8          1           0       -0.813907   -1.481740    3.058949
      9          1           0       -2.049244    0.327183    1.841646
     10          1           0       -1.385844   -1.706967   -1.879026
     11          1           0       -0.148343   -3.522524   -0.673859
     12          7           0       -2.498077    0.454148   -0.783324
     13          8           0       -2.608700    0.346388   -2.002663
     14          8           0       -2.945965    1.380525   -0.111119
     15          6           0        2.655870    0.507748    0.101800
     16          6           0        2.853793   -0.548376   -0.986048
     17          6           0        3.951544   -1.554876   -0.640081
     18          1           0        3.603714    1.038580    0.265366
     19          1           0        2.410501    0.007209    1.048715
     20          1           0        3.097356   -0.045921   -1.930947
     21          1           0        1.905317   -1.076625   -1.147178
     22          1           0        3.711722   -2.082367    0.288810
     23          1           0        4.910533   -1.045806   -0.499411
     24          1           0        4.076225   -2.300728   -1.431296
     25          6           0        1.561788    1.521114   -0.229559
     26          6           0        1.363865    2.577238    0.858289
     27          6           0        0.266114    3.583739    0.512321
     28          1           0        1.807156    2.021654   -1.176475
     29          1           0        0.613943    0.990282   -0.393125
     30          1           0        2.312340    3.105488    1.019419
     31          1           0        1.120301    2.074784    1.803187
     32          1           0       -0.692876    3.074669    0.371651
     33          1           0        0.505936    4.111229   -0.416570
     34          1           0        0.141433    4.329591    1.303536
 ---------------------------------------------------------------------

 SCF Done:  E(RHF) =  -669.535462323     A.U. after   15 cycles
 E2 =    -0.2096391194D+01 EUMP2 =    -0.67163185351667D+03

 The electronic state is 1-A.
 Alpha  occ. eigenvalues --  -20.61059 -20.61049 -15.86063 -11.31389 -11.27975
 Alpha  occ. eigenvalues --  -11.27972 -11.27724 -11.27001 -11.26991 -11.21644
 Alpha  occ. eigenvalues --  -11.21362 -11.21354 -11.21325 -11.21140 -11.20372
 Alpha  occ. eigenvalues --   -1.60104  -1.39660  -1.19603  -1.08995  -1.08321
 Alpha  occ. eigenvalues --   -1.04994  -1.03398  -0.95837  -0.95819  -0.86841
 Alpha  occ. eigenvalues --   -0.86384  -0.82659  -0.79474  -0.78139  -0.77705
 Alpha  occ. eigenvalues --   -0.72291  -0.71433  -0.70684  -0.65250  -0.65004
 Alpha  occ. eigenvalues --   -0.64961  -0.62333  -0.60806  -0.59250  -0.57444
 Alpha  occ. eigenvalues --   -0.55482  -0.55164  -0.53318  -0.53069  -0.52522
 Alpha  occ. eigenvalues --   -0.52240  -0.49797  -0.49054  -0.49050  -0.47791
 Alpha  occ. eigenvalues --   -0.46558  -0.45642  -0.45619  -0.44913  -0.43647
 Alpha  occ. eigenvalues --   -0.37496  -0.36533
 Alpha virt. eigenvalues --    0.04744   0.11002   0.16172   0.20948   0.22899
 Alpha virt. eigenvalues --    0.24015   0.26447   0.26836   0.27690   0.27960
 Alpha virt. eigenvalues --    0.28289   0.30548   0.31467   0.31802   0.32074

 Mulliken charges:
               1
     1  C   -0.170891
     2  C   -0.217309
     3  C   -0.171797
     4  C    0.157286
     5  C   -0.172209
     6  C   -0.216392
     7  H    0.227148
     8  H    0.224892
     9  H    0.276891
    10  H    0.277022
    11  H    0.225570
    12  N    0.490671
    13  O   -0.457306
    14  O   -0.458696
    15  C   -0.296220
    16  C   -0.303433
    17  C   -0.475054
    18  H    0.149054
    19  H    0.145513
    20  H    0.153220
    21  H    0.152099
    22  H    0.149398
    23  H    0.157019
    24  H    0.157705
    25  C   -0.300768
    26  C   -0.298936
    27  C   -0.485918
    28  H    0.151773
    29  H    0.150108
    30  H    0.150166
    31  H    0.144168
    32  H    0.172367
    33  H    0.155759
    34  H    0.157101
 Sum of Mulliken charges =  -0.00000

 Dipole moment (field-independent basis, Debye):
    X=              2.3025    Y=             -3.8361    Z=              2.4597  Tot=              5.1056
 Quadrupole moment (field-independent basis, Debye-Ang):
   XX=           -104.9168   YY=            -89.7425   ZZ=            -91.2744
   XY=              5.7049   XZ=             -5.8493   YZ=              0.5560

 Normal termination of Gaussian 16 at Thu May  6 19:24:33 2021.
