 Gaussian 16, Revision A.03,
 Gaussian 16:  EM64L-G16RevA.03 25-Dec-2016

 -------------
 #p 6-31g* mp2
 -------------

 ------------------------------------------------------
 Input file generated by CHIRIPA (05-May-2021 14:51:12)
 ------------------------------------------------------
 Symbolic Z-matrix:
 Charge =  0 Multiplicity = 1

                         Standard orientation:
 ---------------------------------------------------------------------
 Center     Atomic      Atomic             Coordinates (Angstroms)
 Number     Number       Type             X           Y           Z
 ---------------------------------------------------------------------
      1          6           0       -3.316259    0.551107   -0.331477
      2          6           0       -3.401331   -0.942324   -0.648354
      3          6           0       -4.797941   -1.372627   -1.097925
      4          1           0       -4.046689    0.795414    0.451933
      5          1           0       -3.608947    1.124961   -1.221657
      6          1           0       -3.107238   -1.513174    0.241733
      7          1           0       -2.670479   -1.183140   -1.430965
      8          1           0       -5.096892   -0.828841   -1.999882
      9          1           0       -5.536133   -1.160751   -0.317680
     10          1           0       -4.836177   -2.443799   -1.319258
     11          6           0       -1.926265    0.996531    0.119350
     12          6           0       -1.841193    2.489962    0.436227
     13          6           0       -0.444583    2.920265    0.885798
     14          1           0       -1.633577    0.422678    1.009530
     15          1           0       -1.195835    0.752225   -0.664060
     16          1           0       -2.572045    2.730778    1.218838
     17          1           0       -2.135286    3.060812   -0.453860
     18          1           0        0.293609    2.708389    0.105553
     19          1           0       -0.145632    2.376480    1.787755
     20          1           0       -0.406347    3.991437    1.107131
     21          6           0        2.241833   -1.032639    0.716373
     22          6           0        0.928804   -1.731715    0.362490
     23          6           0        0.181227   -2.243971    1.593958
     24          1           0        2.882994   -1.730248    1.272429
     25          1           0        2.031408   -0.193649    1.394025
     26          1           0        1.141490   -2.568289   -0.315394
     27          1           0        0.290772   -1.032422   -0.192956
     28          1           0       -0.059707   -1.417163    2.269932
     29          1           0        0.795845   -2.961756    2.146798
     30          1           0       -0.754419   -2.740226    1.317994
     31          6           0        3.000691   -0.514999   -0.504246
     32          6           0        4.313720    0.184077   -0.150362
     33          6           0        5.061297    0.696333   -1.381832
     34          1           0        3.211117   -1.353989   -1.181898
     35          1           0        2.359531    0.182610   -1.060302
     36          1           0        4.951752   -0.515217    0.405082
     37          1           0        4.101034    1.020650    0.527521
     38          1           0        4.446680    1.414118   -1.934671
     39          1           0        5.302232   -0.130475   -2.057805
     40          1           0        5.996943    1.192588   -1.105866
 ---------------------------------------------------------------------

 SCF Done:  E(RHF) =  -470.732663467     A.U. after   11 cycles
 E2 =    -0.1584762496D+01 EUMP2 =    -0.47231742596298D+03

 The electronic state is 1-A.
 Alpha  occ. eigenvalues --  -11.21674 -11.21629 -11.21561 -11.21453 -11.21425
 Alpha  occ. eigenvalues --  -11.21394 -11.21351 -11.21273 -11.21178 -11.21095
 Alpha  occ. eigenvalues --  -11.21047 -11.21021  -1.08511  -1.08345  -1.03589
 Alpha  occ. eigenvalues --   -1.03464  -0.96052  -0.95919  -0.87060  -0.86944
 Alpha  occ. eigenvalues --   -0.79664  -0.79529  -0.78403  -0.78102  -0.65126
 Alpha  occ. eigenvalues --   -0.64997  -0.60993  -0.60886  -0.59432  -0.59270
 Alpha  occ. eigenvalues --   -0.57662  -0.57530  -0.55359  -0.55202  -0.52740
 Alpha  occ. eigenvalues --   -0.52615  -0.52509  -0.52308  -0.50050  -0.49821
 Alpha  occ. eigenvalues --   -0.48066  -0.47788  -0.46790  -0.46628  -0.46080
 Alpha  occ. eigenvalues --   -0.45784  -0.45625  -0.45169  -0.43839  -0.43713
 Alpha virt. eigenvalues --    0.20124   0.22381   0.23622   0.24203   0.24581
 Alpha virt. eigenvalues --    0.26365   0.26738   0.28129   0.29192   0.29259
 Alpha virt. eigenvalues --    0.30262   0.31126   0.31789   0.31852   0.32506

 Mulliken charges:
               1
     1  C   -0.297652
     2  C   -0.303138
     3  C   -0.475656
     4  H    0.149742
     5  H    0.149478
     6  H    0.154942
     7  H    0.152546
     8  H    0.155247
     9  H    0.155274
    10  H    0.160383
    11  C   -0.305909
    12  C   -0.298979
    13  C   -0.476832
    14  H    0.155830
    15  H    0.151766
    16  H    0.152282
    17  H    0.152122
    18  H    0.154991
    19  H    0.154997
    20  H    0.161027
    21  C   -0.298549
    22  C   -0.306765
    23  C   -0.477801
    24  H    0.149087
    25  H    0.150189
    26  H    0.150700
    27  H    0.161686
    28  H    0.153859
    29  H    0.154818
    30  H    0.161619
    31  C   -0.298304
    32  C   -0.299777
    33  C   -0.475613
    34  H    0.149358
    35  H    0.148591
    36  H    0.151906
    37  H    0.152443
    38  H    0.154840
    39  H    0.155035
    40  H    0.160216
 Sum of Mulliken charges =  -0.00000

 Dipole moment (field-independent basis, Debye):
    X=             -0.0583    Y=              0.0273    Z=             -0.0029  Tot=              0.0644
 Quadrupole moment (field-independent basis, Debye-Ang):
   XX=            -85.8332   YY=            -84.3959   ZZ=            -84.6094
   XY=             -1.0968   XZ=             -0.0970   YZ=              0.0995

 Normal termination of Gaussian 16 at Wed May  5 16:46:36 2021.
