 Gaussian 16, Revision A.03,
 Gaussian 16:  EM64L-G16RevA.03 25-Dec-2016

 -------------
 #p 6-31g* mp2
 -------------

 ------------------------------------------------------
 Input file generated by CHIRIPA (05-May-2021 14:53:11)
 ------------------------------------------------------
 Symbolic Z-matrix:
 Charge =  0 Multiplicity = 1

                         Standard orientation:
 ---------------------------------------------------------------------
 Center     Atomic      Atomic             Coordinates (Angstroms)
 Number     Number       Type             X           Y           Z
 ---------------------------------------------------------------------
      1          6           0       -3.477431   -0.301750   -0.454704
      2          6           0       -3.931001   -1.116856    0.756849
      3          6           0       -4.737795   -2.355859    0.367301
      4          1           0       -4.359194    0.000925   -1.035933
      5          1           0       -2.873626   -0.941549   -1.113090
      6          1           0       -4.532616   -0.475326    1.413442
      7          1           0       -3.048069   -1.417463    1.335366
      8          1           0       -4.142687   -3.018645   -0.269222
      9          1           0       -5.635670   -2.071156   -0.190701
     10          1           0       -5.051895   -2.923825    1.248559
     11          6           0       -2.669729    0.940034   -0.081449
     12          6           0       -2.216158    1.755140   -1.293002
     13          6           0       -1.409364    2.994143   -0.903454
     14          1           0       -3.273534    1.579833    0.576937
     15          1           0       -1.787966    0.637359    0.499780
     16          1           0       -3.099091    2.055747   -1.871519
     17          1           0       -1.614543    1.113610   -1.949595
     18          1           0       -0.511490    2.709439   -0.345451
     19          1           0       -2.004473    3.656929   -0.266931
     20          1           0       -1.095264    3.562109   -1.784712
     21          6           0        1.849872    2.023975    1.154953
     22          6           0        3.021699    1.839545    0.413788
     23          6           0        3.337298    0.584363   -0.114855
     24          6           0        2.454538   -0.469104    0.118026
     25          6           0        1.279389   -0.317027    0.852319
     26          6           0        0.983983    0.946999    1.371471
     27          1           0        1.612551    3.002467    1.561930
     28          1           0        3.696015    2.674130    0.244051
     29          1           0        4.237756    0.413634   -0.692300
     30          1           0        0.626740   -1.168037    1.004800
     31          1           0        0.073220    1.087301    1.946687
     32          7           0        2.777959   -1.802591   -0.436602
     33          8           0        1.983748   -2.714611   -0.217317
     34          8           0        3.819544   -1.910509   -1.080101
 ---------------------------------------------------------------------

 SCF Done:  E(RHF) =  -669.534002593     A.U. after   15 cycles
 E2 =    -0.2094414138D+01 EUMP2 =    -0.67162841673133D+03

 The electronic state is 1-A.
 Alpha  occ. eigenvalues --  -20.60852 -20.60847 -15.85906 -11.31302 -11.27862
 Alpha  occ. eigenvalues --  -11.27858 -11.27585 -11.26881 -11.26850 -11.21985
 Alpha  occ. eigenvalues --  -11.21949 -11.21887 -11.21694 -11.21447 -11.21230
 Alpha  occ. eigenvalues --   -1.59927  -1.39479  -1.19482  -1.08901  -1.08799
 Alpha  occ. eigenvalues --   -1.04890  -1.03869  -0.96335  -0.95693  -0.87351
 Alpha  occ. eigenvalues --   -0.86283  -0.82531  -0.79957  -0.78689  -0.77553
 Alpha  occ. eigenvalues --   -0.72124  -0.71250  -0.70576  -0.65532  -0.65128
 Alpha  occ. eigenvalues --   -0.64846  -0.62234  -0.61267  -0.59696  -0.57959
 Alpha  occ. eigenvalues --   -0.55680  -0.55347  -0.53275  -0.53035  -0.52979
 Alpha  occ. eigenvalues --   -0.52683  -0.50264  -0.48886  -0.48877  -0.48259
 Alpha  occ. eigenvalues --   -0.46977  -0.46197  -0.46101  -0.44878  -0.44144
 Alpha  occ. eigenvalues --   -0.37379  -0.36417
 Alpha virt. eigenvalues --    0.04908   0.11088   0.16239   0.20192   0.22794
 Alpha virt. eigenvalues --    0.24031   0.25189   0.26735   0.27154   0.28564
 Alpha virt. eigenvalues --    0.29892   0.30128   0.31262   0.31560   0.31890

 Mulliken charges:
               1
     1  C   -0.299443
     2  C   -0.298772
     3  C   -0.476370
     4  H    0.151629
     5  H    0.154332
     6  H    0.151147
     7  H    0.146718
     8  H    0.159324
     9  H    0.155822
    10  H    0.161126
    11  C   -0.302159
    12  C   -0.297792
    13  C   -0.484962
    14  H    0.147899
    15  H    0.142937
    16  H    0.153704
    17  H    0.155951
    18  H    0.158765
    19  H    0.151396
    20  H    0.161364
    21  C   -0.172514
    22  C   -0.218357
    23  C   -0.170858
    24  C    0.158344
    25  C   -0.171230
    26  C   -0.217824
    27  H    0.228075
    28  H    0.224377
    29  H    0.276124
    30  H    0.275911
    31  H    0.227534
    32  N    0.488053
    33  O   -0.460303
    34  O   -0.459944
 Sum of Mulliken charges =  -0.00000

 Dipole moment (field-independent basis, Debye):
    X=             -1.0866    Y=              4.6255    Z=              1.8936  Tot=              5.1149
 Quadrupole moment (field-independent basis, Debye-Ang):
   XX=            -96.2845   YY=            -99.7335   ZZ=            -94.1380
   XY=             13.3921   XZ=              2.9203   YZ=             -1.1595

 Normal termination of Gaussian 16 at Wed May  5 16:58:32 2021.
