 Gaussian 16, Revision A.03,
 Gaussian 16:  EM64L-G16RevA.03 25-Dec-2016

 -------------
 #p 6-31g* mp2
 -------------

 ------------------------------------------------------
 Input file generated by CHIRIPA (05-May-2021 14:53:14)
 ------------------------------------------------------
 Symbolic Z-matrix:
 Charge =  0 Multiplicity = 1

                         Standard orientation:
 ---------------------------------------------------------------------
 Center     Atomic      Atomic             Coordinates (Angstroms)
 Number     Number       Type             X           Y           Z
 ---------------------------------------------------------------------
      1          6           0       -3.287844    0.158315   -0.520752
      2          6           0       -3.308731   -1.228921    0.121997
      3          6           0       -4.214307   -2.211308   -0.621402
      4          1           0       -4.311736    0.555083   -0.554880
      5          1           0       -2.953215    0.066701   -1.563357
      6          1           0       -3.641896   -1.134546    1.163491
      7          1           0       -2.284644   -1.622352    0.154772
      8          1           0       -3.880631   -2.334993   -1.656759
      9          1           0       -5.245594   -1.844415   -0.642308
     10          1           0       -4.214352   -3.196636   -0.144968
     11          6           0       -2.386959    1.151572    0.211078
     12          6           0       -2.366071    2.538807   -0.431671
     13          6           0       -1.460495    3.521194    0.311728
     14          1           0       -2.721587    1.243185    1.253683
     15          1           0       -1.363066    0.754804    0.245205
     16          1           0       -3.390158    2.932239   -0.464447
     17          1           0       -2.032906    2.444433   -1.473165
     18          1           0       -0.429208    3.154301    0.332634
     19          1           0       -1.794171    3.644879    1.347084
     20          1           0       -1.460450    4.506522   -0.164706
     21          6           0        3.723902    1.425176   -0.464644
     22          6           0        3.904277    0.185067   -1.086028
     23          6           0        3.075100   -0.895076   -0.769318
     24          6           0        2.071011   -0.698922    0.177581
     25          6           0        1.866186    0.524352    0.813928
     26          6           0        2.707224    1.590568    0.481683
     27          1           0        4.372632    2.258847   -0.716707
     28          1           0        4.693022    0.053721   -1.821333
     29          1           0        3.192584   -1.865958   -1.235155
     30          1           0        1.071299    0.624714    1.542968
     31          1           0        2.564820    2.552517    0.965853
     32          7           0        1.186920   -1.835049    0.521092
     33          8           0        0.309599   -1.636427    1.358643
     34          8           0        1.388033   -2.902654   -0.053721
 ---------------------------------------------------------------------

 SCF Done:  E(RHF) =  -669.536397459     A.U. after   15 cycles
 E2 =    -0.2093297030D+01 EUMP2 =    -0.67162969448901D+03

 The electronic state is 1-A.
 Alpha  occ. eigenvalues --  -20.61052 -20.61028 -15.86045 -11.31350 -11.27913
 Alpha  occ. eigenvalues --  -11.27896 -11.27637 -11.26911 -11.26898 -11.21488
 Alpha  occ. eigenvalues --  -11.21292 -11.20963 -11.20740 -11.20433 -11.20151
 Alpha  occ. eigenvalues --   -1.60091  -1.39647  -1.19518  -1.08923  -1.07921
 Alpha  occ. eigenvalues --   -1.04907  -1.03019  -0.95767  -0.95535  -0.86568
 Alpha  occ. eigenvalues --   -0.86303  -0.82601  -0.79128  -0.77762  -0.77517
 Alpha  occ. eigenvalues --   -0.72265  -0.71402  -0.70618  -0.65171  -0.64907
 Alpha  occ. eigenvalues --   -0.64559  -0.62252  -0.60418  -0.58955  -0.57092
 Alpha  occ. eigenvalues --   -0.55408  -0.54859  -0.53238  -0.52992  -0.52246
 Alpha  occ. eigenvalues --   -0.51952  -0.49539  -0.49040  -0.49032  -0.47412
 Alpha  occ. eigenvalues --   -0.46148  -0.45604  -0.45150  -0.44474  -0.43262
 Alpha  occ. eigenvalues --   -0.37487  -0.36485
 Alpha virt. eigenvalues --    0.04787   0.11048   0.16188   0.20623   0.23306
 Alpha virt. eigenvalues --    0.24528   0.26179   0.27221   0.27545   0.28317
 Alpha virt. eigenvalues --    0.29436   0.30371   0.31737   0.32228   0.32559

 Mulliken charges:
               1
     1  C   -0.298435
     2  C   -0.307074
     3  C   -0.475349
     4  H    0.146263
     5  H    0.146300
     6  H    0.150213
     7  H    0.175050
     8  H    0.152452
     9  H    0.149738
    10  H    0.162661
    11  C   -0.301408
    12  C   -0.298347
    13  C   -0.476816
    14  H    0.149391
    15  H    0.151955
    16  H    0.152583
    17  H    0.151083
    18  H    0.145696
    19  H    0.155434
    20  H    0.159519
    21  C   -0.170564
    22  C   -0.218435
    23  C   -0.170639
    24  C    0.157673
    25  C   -0.171477
    26  C   -0.219950
    27  H    0.226554
    28  H    0.224141
    29  H    0.275993
    30  H    0.278744
    31  H    0.225832
    32  N    0.487429
    33  O   -0.457911
    34  O   -0.458300
 Sum of Mulliken charges =  -0.00000

 Dipole moment (field-independent basis, Debye):
    X=              3.3235    Y=              3.8065    Z=             -1.1474  Tot=              5.1819
 Quadrupole moment (field-independent basis, Debye-Ang):
   XX=            -81.2434   YY=            -99.9347   ZZ=            -93.4786
   XY=              4.0213   XZ=             -4.9026   YZ=              3.4425

 Normal termination of Gaussian 16 at Wed May  5 18:36:42 2021.
