 Gaussian 16, Revision A.03,
 Gaussian 16:  EM64L-G16RevA.03 25-Dec-2016

 -------------
 #p 6-31g* mp2
 -------------

 ------------------------------------------------------
 Input file generated by CHIRIPA (05-May-2021 14:51:07)
 ------------------------------------------------------
 Symbolic Z-matrix:
 Charge =  0 Multiplicity = 1

                         Standard orientation:
 ---------------------------------------------------------------------
 Center     Atomic      Atomic             Coordinates (Angstroms)
 Number     Number       Type             X           Y           Z
 ---------------------------------------------------------------------
      1          6           0       -3.075392    0.935402   -0.379791
      2          6           0       -3.140208    2.247426    0.402753
      3          6           0       -2.098497    3.265337   -0.062531
      4          1           0       -2.069610    0.505060   -0.279030
      5          1           0       -3.219437    1.146470   -1.448480
      6          1           0       -2.997463    2.033784    1.469804
      7          1           0       -4.146010    2.674598    0.300275
      8          1           0       -2.242238    3.507501   -1.120499
      9          1           0       -1.087165    2.863046    0.055675
     10          1           0       -2.162593    4.195769    0.510223
     11          6           0       -4.110668   -0.092306    0.073805
     12          6           0       -4.045852   -1.404330   -0.708739
     13          6           0       -5.087563   -2.422241   -0.243454
     14          1           0       -3.966623   -0.303374    1.142495
     15          1           0       -5.116450    0.338036   -0.026955
     16          1           0       -3.040049   -1.831502   -0.606261
     17          1           0       -4.188597   -1.190688   -1.775789
     18          1           0       -6.098895   -2.019951   -0.361660
     19          1           0       -4.943822   -2.664405    0.814513
     20          1           0       -5.023467   -3.352674   -0.816208
     21          6           0        4.288660   -0.618214   -0.093693
     22          6           0        5.256491    0.562167   -0.183061
     23          6           0        6.643994    0.152799   -0.678085
     24          1           0        4.709385   -1.379100    0.577863
     25          1           0        4.202070   -1.088111   -1.083184
     26          1           0        5.340164    1.030548    0.805997
     27          1           0        4.833325    1.320416   -0.854332
     28          1           0        6.580669   -0.295085   -1.675076
     29          1           0        7.090388   -0.586601   -0.005313
     30          1           0        7.319769    1.011879   -0.734393
     31          6           0        2.897400   -0.224882    0.399678
     32          6           0        1.929568   -1.405263    0.489046
     33          6           0        0.542066   -0.995895    0.984070
     34          1           0        2.983990    0.245015    1.389170
     35          1           0        2.476675    0.536004   -0.271877
     36          1           0        2.352735   -2.163511    1.160317
     37          1           0        1.845896   -1.873644   -0.500011
     38          1           0        0.095673   -0.256495    0.311298
     39          1           0        0.605391   -0.548010    1.981060
     40          1           0       -0.133709   -1.854975    1.040379
 ---------------------------------------------------------------------

 SCF Done:  E(RHF) =  -470.733313313     A.U. after   11 cycles
 E2 =    -0.1582830434D+01 EUMP2 =    -0.47231614374716D+03

 The electronic state is 1-A.
 Alpha  occ. eigenvalues --  -11.21669 -11.21623 -11.21555 -11.21549 -11.21448
 Alpha  occ. eigenvalues --  -11.21386 -11.21335 -11.21268 -11.21174 -11.21086
 Alpha  occ. eigenvalues --  -11.21046 -11.21039  -1.08476  -1.08374  -1.03582
 Alpha  occ. eigenvalues --   -1.03485  -0.96040  -0.95931  -0.87060  -0.86948
 Alpha  occ. eigenvalues --   -0.79656  -0.79541  -0.78298  -0.78177  -0.65142
 Alpha  occ. eigenvalues --   -0.64980  -0.61002  -0.60866  -0.59404  -0.59300
 Alpha  occ. eigenvalues --   -0.57652  -0.57541  -0.55402  -0.55160  -0.52736
 Alpha  occ. eigenvalues --   -0.52630  -0.52497  -0.52335  -0.50060  -0.49821
 Alpha  occ. eigenvalues --   -0.48021  -0.47831  -0.46766  -0.46542  -0.45908
 Alpha  occ. eigenvalues --   -0.45769  -0.45697  -0.45436  -0.43830  -0.43733
 Alpha virt. eigenvalues --    0.20963   0.23014   0.23796   0.24377   0.25757
 Alpha virt. eigenvalues --    0.26706   0.27255   0.27374   0.28041   0.29437
 Alpha virt. eigenvalues --    0.29793   0.31553   0.31731   0.31918   0.32294

 Mulliken charges:
               1
     1  C   -0.307056
     2  C   -0.298978
     3  C   -0.476298
     4  H    0.158822
     5  H    0.148741
     6  H    0.152195
     7  H    0.151684
     8  H    0.154889
     9  H    0.155056
    10  H    0.160251
    11  C   -0.297449
    12  C   -0.300664
    13  C   -0.475687
    14  H    0.149764
    15  H    0.149293
    16  H    0.152852
    17  H    0.151609
    18  H    0.155106
    19  H    0.155134
    20  H    0.159993
    21  C   -0.298351
    22  C   -0.299741
    23  C   -0.475745
    24  H    0.149737
    25  H    0.149702
    26  H    0.151980
    27  H    0.152145
    28  H    0.155249
    29  H    0.155187
    30  H    0.160379
    31  C   -0.298645
    32  C   -0.299309
    33  C   -0.482411
    34  H    0.149634
    35  H    0.149833
    36  H    0.152263
    37  H    0.152388
    38  H    0.160146
    39  H    0.155649
    40  H    0.160653
 Sum of Mulliken charges =  -0.00000

 Dipole moment (field-independent basis, Debye):
    X=              0.0427    Y=             -0.0107    Z=              0.0108  Tot=              0.0453
 Quadrupole moment (field-independent basis, Debye-Ang):
   XX=            -85.9068   YY=            -85.4094   ZZ=            -83.5447
   XY=             -0.7407   XZ=              1.2287   YZ=             -0.2794

 Normal termination of Gaussian 16 at Wed May  5 19:39:10 2021.
