 Gaussian 16, Revision A.03,
 Gaussian 16:  EM64L-G16RevA.03 25-Dec-2016

 -------------
 #p 6-31g* mp2
 -------------

 ------------------------------------------------------
 Input file generated by CHIRIPA (05-May-2021 14:51:10)
 ------------------------------------------------------
 Symbolic Z-matrix:
 Charge =  0 Multiplicity = 1

                         Standard orientation:
 ---------------------------------------------------------------------
 Center     Atomic      Atomic             Coordinates (Angstroms)
 Number     Number       Type             X           Y           Z
 ---------------------------------------------------------------------
      1          6           0       -2.192110    1.557430    0.082619
      2          6           0       -0.917196    2.045968    0.771031
      3          6           0       -0.988759    3.520130    1.170429
      4          1           0       -2.378232    2.171734   -0.808972
      5          1           0       -3.046913    1.715073    0.754821
      6          1           0       -0.064859    1.886176    0.098272
      7          1           0       -0.733983    1.430306    1.660980
      8          1           0       -1.820533    3.692163    1.861195
      9          1           0       -1.147606    4.150624    0.289609
     10          1           0       -0.067032    3.848396    1.660858
     11          6           0       -2.135848    0.085589   -0.322654
     12          6           0       -3.410762   -0.402949   -1.011066
     13          6           0       -3.339200   -1.877111   -1.410464
     14          1           0       -1.281046   -0.072055   -0.994856
     15          1           0       -1.949726   -0.528716    0.568937
     16          1           0       -3.593975    0.212713   -1.901015
     17          1           0       -4.263099   -0.243158   -0.338308
     18          1           0       -3.180352   -2.507606   -0.529644
     19          1           0       -2.507426   -2.049145   -2.101230
     20          1           0       -4.260927   -2.205378   -1.900893
     21          6           0        2.648297   -0.645653   -0.443847
     22          6           0        3.130525    0.804660   -0.398728
     23          6           0        4.098799    1.141246   -1.533166
     24          1           0        3.517436   -1.315988   -0.397008
     25          1           0        2.160978   -0.832791   -1.410745
     26          1           0        3.615563    0.989397    0.568343
     27          1           0        2.260125    1.471619   -0.445486
     28          1           0        3.621674    0.984805   -2.506037
     29          1           0        4.984814    0.499844   -1.486447
     30          1           0        4.430909    2.182840   -1.481753
     31          6           0        1.679661   -0.997366    0.683881
     32          6           0        1.197434   -2.447679    0.638763
     33          6           0        0.229159   -2.784264    1.773201
     34          1           0        2.166980   -0.810227    1.650780
     35          1           0        0.810522   -0.327030    0.637043
     36          1           0        2.067834   -3.114636    0.685521
     37          1           0        0.712395   -2.632416   -0.328308
     38          1           0       -0.656855   -2.142862    1.726484
     39          1           0        0.706284   -2.627824    2.746073
     40          1           0       -0.102950   -3.825859    1.721788
 ---------------------------------------------------------------------

 SCF Done:  E(RHF) =  -470.731315002     A.U. after   11 cycles
 E2 =    -0.1586537674D+01 EUMP2 =    -0.47231785267607D+03

 The electronic state is 1-A.
 Alpha  occ. eigenvalues --  -11.21683 -11.21660 -11.21568 -11.21508 -11.21492
 Alpha  occ. eigenvalues --  -11.21446 -11.21316 -11.21133 -11.21132 -11.21120
 Alpha  occ. eigenvalues --  -11.21058 -11.21007  -1.08574  -1.08313  -1.03616
 Alpha  occ. eigenvalues --   -1.03468  -0.96060  -0.95919  -0.87079  -0.86938
 Alpha  occ. eigenvalues --   -0.79721  -0.79543  -0.78630  -0.77911  -0.65220
 Alpha  occ. eigenvalues --   -0.64961  -0.61030  -0.60879  -0.59440  -0.59287
 Alpha  occ. eigenvalues --   -0.57680  -0.57519  -0.55428  -0.55154  -0.52765
 Alpha  occ. eigenvalues --   -0.52619  -0.52519  -0.52316  -0.50091  -0.49805
 Alpha  occ. eigenvalues --   -0.48110  -0.47892  -0.46842  -0.46771  -0.46406
 Alpha  occ. eigenvalues --   -0.45656  -0.45630  -0.44711  -0.43848  -0.43696
 Alpha virt. eigenvalues --    0.20479   0.22048   0.23463   0.24174   0.25495
 Alpha virt. eigenvalues --    0.25919   0.27153   0.27321   0.28885   0.30027
 Alpha virt. eigenvalues --    0.30757   0.31518   0.31780   0.31952   0.32163

 Mulliken charges:
               1
     1  C   -0.296310
     2  C   -0.310500
     3  C   -0.474666
     4  H    0.149709
     5  H    0.149846
     6  H    0.158800
     7  H    0.154078
     8  H    0.155387
     9  H    0.155016
    10  H    0.161002
    11  C   -0.308141
    12  C   -0.299059
    13  C   -0.476561
    14  H    0.150209
    15  H    0.156826
    16  H    0.152197
    17  H    0.152269
    18  H    0.156296
    19  H    0.154914
    20  H    0.160729
    21  C   -0.297877
    22  C   -0.305725
    23  C   -0.475172
    24  H    0.149391
    25  H    0.147896
    26  H    0.152071
    27  H    0.156766
    28  H    0.154641
    29  H    0.155349
    30  H    0.160016
    31  C   -0.311047
    32  C   -0.298514
    33  C   -0.480861
    34  H    0.147698
    35  H    0.166924
    36  H    0.151264
    37  H    0.151910
    38  H    0.158514
    39  H    0.154745
    40  H    0.159969
 Sum of Mulliken charges =  -0.00000

 Dipole moment (field-independent basis, Debye):
    X=             -0.0732    Y=              0.0535    Z=              0.0084  Tot=              0.0910
 Quadrupole moment (field-independent basis, Debye-Ang):
   XX=            -84.5862   YY=            -85.9872   ZZ=            -84.3513
   XY=             -0.4360   XZ=              0.6264   YZ=             -0.3915

 Normal termination of Gaussian 16 at Thu May  6 03:48:20 2021.
