 Gaussian 16, Revision A.03,
 Gaussian 16:  EM64L-G16RevA.03 25-Dec-2016

 -------------
 #p 6-31g* mp2
 -------------

 ------------------------------------------------------
 Input file generated by CHIRIPA (05-May-2021 14:57:23)
 ------------------------------------------------------
 Symbolic Z-matrix:
 Charge =  0 Multiplicity = 1

                         Standard orientation:
 ---------------------------------------------------------------------
 Center     Atomic      Atomic             Coordinates (Angstroms)
 Number     Number       Type             X           Y           Z
 ---------------------------------------------------------------------
      1          6           0        4.171667    2.525953   -0.080711
      2          6           0        2.952166    2.133583    0.480881
      3          6           0        2.623879    0.779012    0.590023
      4          6           0        3.542700   -0.160726    0.125317
      5          6           0        4.765662    0.198697   -0.439015
      6          6           0        5.072934    1.558963   -0.538060
      7          1           0        4.418525    3.580428   -0.161573
      8          1           0        2.250300    2.882369    0.836900
      9          1           0        1.686791    0.447453    1.020549
     10          1           0        5.444981   -0.570826   -0.785105
     11          1           0        6.020749    1.860768   -0.974643
     12          7           0        3.206282   -1.597764    0.235516
     13          8           0        4.032933   -2.406174   -0.181326
     14          8           0        2.122316   -1.888494    0.736646
     15          6           0       -1.635492   -1.644811   -0.337600
     16          6           0       -2.925362   -2.157949   -0.166009
     17          6           0       -4.020226   -1.298156   -0.037257
     18          6           0       -3.787888    0.075540   -0.084876
     19          6           0       -2.514747    0.617350   -0.254702
     20          6           0       -1.434654   -0.261238   -0.381321
     21          1           0       -0.790713   -2.320020   -0.436790
     22          1           0       -3.084317   -3.232007   -0.131679
     23          1           0       -5.029378   -1.668448    0.096583
     24          1           0       -2.387711    1.692693   -0.284968
     25          1           0       -0.434033    0.140098   -0.514476
     26          7           0       -4.939152    0.995714    0.050300
     27          8           0       -4.707938    2.201999    0.005007
     28          8           0       -6.050929    0.493236    0.198983
 ---------------------------------------------------------------------

 SCF Done:  E(RHF) =  -868.339609814     A.U. after   16 cycles
 E2 =    -0.2599542496D+01 EUMP2 =    -0.87093915231035D+03

 The electronic state is 1-A.
 Alpha  occ. eigenvalues --  -20.61921 -20.61847 -20.60564 -20.60551 -15.86914
 Alpha  occ. eigenvalues --  -15.85614 -11.32113 -11.30841 -11.28677 -11.28597
 Alpha  occ. eigenvalues --  -11.28291 -11.27620 -11.27570 -11.27487 -11.27408
 Alpha  occ. eigenvalues --  -11.26927 -11.26383 -11.26281  -1.60947  -1.59641
 Alpha  occ. eigenvalues --   -1.40508  -1.39199  -1.20249  -1.18999  -1.09663
 Alpha  occ. eigenvalues --   -1.08367  -1.05625  -1.04410  -0.96533  -0.95228
 Alpha  occ. eigenvalues --   -0.87025  -0.85783  -0.83372  -0.82094  -0.78458
 Alpha  occ. eigenvalues --   -0.77204  -0.73141  -0.72261  -0.71832  -0.71336
 Alpha  occ. eigenvalues --   -0.70965  -0.69966  -0.65895  -0.65622  -0.64632
 Alpha  occ. eigenvalues --   -0.64413  -0.62972  -0.61765  -0.56092  -0.54724
 Alpha  occ. eigenvalues --   -0.53954  -0.53707  -0.52713  -0.52472  -0.49906
 Alpha  occ. eigenvalues --   -0.49869  -0.48598  -0.48575  -0.45945  -0.44637
 Alpha  occ. eigenvalues --   -0.38191  -0.37220  -0.36884  -0.36041
 Alpha virt. eigenvalues --    0.03999   0.05369   0.10330   0.11565   0.15566
 Alpha virt. eigenvalues --    0.16887   0.20176   0.22141   0.25859   0.27145
 Alpha virt. eigenvalues --    0.28531   0.29014   0.30495   0.31033   0.32070

 Mulliken charges:
               1
     1  C   -0.169765
     2  C   -0.219021
     3  C   -0.179109
     4  C    0.158402
     5  C   -0.170254
     6  C   -0.217563
     7  H    0.229680
     8  H    0.226814
     9  H    0.274808
    10  H    0.277569
    11  H    0.227002
    12  N    0.489255
    13  O   -0.454424
    14  O   -0.469867
    15  C   -0.171111
    16  C   -0.220142
    17  C   -0.170535
    18  C    0.157450
    19  C   -0.172632
    20  C   -0.223999
    21  H    0.245560
    22  H    0.224945
    23  H    0.274597
    24  H    0.270097
    25  H    0.218423
    26  N    0.488403
    27  O   -0.463764
    28  O   -0.460819
 Sum of Mulliken charges =  -0.00000

 Dipole moment (field-independent basis, Debye):
    X=              5.6996    Y=              1.7036    Z=             -0.9000  Tot=              6.0165
 Quadrupole moment (field-independent basis, Debye-Ang):
   XX=           -121.0383   YY=           -103.6938   ZZ=           -105.5193
   XY=             32.9730   XZ=             -2.4098   YZ=              1.2170

 Normal termination of Gaussian 16 at Thu May  6 04:59:45 2021.
