 Gaussian 16, Revision A.03,
 Gaussian 16:  EM64L-G16RevA.03 25-Dec-2016

 -------------
 #p 6-31g* mp2
 -------------

 ------------------------------------------------------
 Input file generated by CHIRIPA (05-May-2021 14:57:25)
 ------------------------------------------------------
 Symbolic Z-matrix:
 Charge =  0 Multiplicity = 1

                         Standard orientation:
 ---------------------------------------------------------------------
 Center     Atomic      Atomic             Coordinates (Angstroms)
 Number     Number       Type             X           Y           Z
 ---------------------------------------------------------------------
      1          6           0        1.605363    1.340873    0.121538
      2          6           0        1.735394   -0.044405   -0.022050
      3          6           0        3.000327   -0.633992   -0.104988
      4          6           0        4.118911    0.195415   -0.040605
      5          6           0        4.022052    1.578715    0.102183
      6          6           0        2.747094    2.146591    0.183088
      7          1           0        0.618838    1.790445    0.185176
      8          1           0        0.850463   -0.672602   -0.070134
      9          1           0        3.129843   -1.703681   -0.216390
     10          1           0        4.922665    2.178961    0.147133
     11          1           0        2.649133    3.222705    0.294575
     12          7           0        5.463346   -0.417262   -0.127332
     13          8           0        6.433226    0.335374   -0.068094
     14          8           0        5.521777   -1.638513   -0.252904
     15          6           0       -1.861817   -1.721768    0.463235
     16          6           0       -2.298741   -1.508679   -0.848333
     17          6           0       -3.425324   -0.720706   -1.102221
     18          6           0       -4.094118   -0.158591   -0.015928
     19          6           0       -3.683469   -0.352360    1.302067
     20          6           0       -2.554353   -1.143948    1.532364
     21          1           0       -0.985676   -2.335288    0.651298
     22          1           0       -1.762869   -1.956165   -1.680583
     23          1           0       -3.785345   -0.539383   -2.107668
     24          1           0       -4.238312    0.106953    2.111138
     25          1           0       -2.217314   -1.307721    2.551985
     26          7           0       -5.288121    0.677513   -0.272221
     27          8           0       -5.859888    1.161562    0.702159
     28          8           0       -5.629605    0.832972   -1.442630
 ---------------------------------------------------------------------

 SCF Done:  E(RHF) =  -868.337210986     A.U. after   16 cycles
 E2 =    -0.2600461034D+01 EUMP2 =    -0.87093767201910D+03

 The electronic state is 1-A.
 Alpha  occ. eigenvalues --  -20.61542 -20.61537 -20.61173 -20.61162 -15.86599
 Alpha  occ. eigenvalues --  -15.86227 -11.32158 -11.31640 -11.28706 -11.28695
 Alpha  occ. eigenvalues --  -11.28551 -11.28268 -11.28189 -11.27933 -11.27821
 Alpha  occ. eigenvalues --  -11.27780 -11.27257 -11.27184  -1.60614  -1.60246
 Alpha  occ. eigenvalues --   -1.40161  -1.39798  -1.20348  -1.19818  -1.09732
 Alpha  occ. eigenvalues --   -1.09191  -1.05750  -1.05242  -0.96527  -0.96019
 Alpha  occ. eigenvalues --   -0.87146  -0.86628  -0.83333  -0.82862  -0.78330
 Alpha  occ. eigenvalues --   -0.77917  -0.72810  -0.72443  -0.71942  -0.71571
 Alpha  occ. eigenvalues --   -0.71493  -0.70899  -0.65994  -0.65750  -0.65467
 Alpha  occ. eigenvalues --   -0.65238  -0.63065  -0.62604  -0.56319  -0.55682
 Alpha  occ. eigenvalues --   -0.54153  -0.53823  -0.53555  -0.53264  -0.49586
 Alpha  occ. eigenvalues --   -0.49556  -0.49206  -0.49196  -0.45522  -0.45194
 Alpha  occ. eigenvalues --   -0.38373  -0.37785  -0.37352  -0.36850
 Alpha virt. eigenvalues --    0.04119   0.04640   0.10196   0.10833   0.15437
 Alpha virt. eigenvalues --    0.16124   0.19479   0.21696   0.25564   0.26547
 Alpha virt. eigenvalues --    0.27911   0.28506   0.29951   0.31340   0.31815

 Mulliken charges:
               1
     1  C   -0.173221
     2  C   -0.222947
     3  C   -0.172942
     4  C    0.159172
     5  C   -0.170456
     6  C   -0.218498
     7  H    0.229544
     8  H    0.219909
     9  H    0.272984
    10  H    0.277145
    11  H    0.225843
    12  N    0.488105
    13  O   -0.458753
    14  O   -0.461122
    15  C   -0.179816
    16  C   -0.220540
    17  C   -0.170944
    18  C    0.159210
    19  C   -0.171916
    20  C   -0.219572
    21  H    0.224855
    22  H    0.226741
    23  H    0.278933
    24  H    0.278614
    25  H    0.227729
    26  N    0.487722
    27  O   -0.457982
    28  O   -0.457796
 Sum of Mulliken charges =  -0.00000

 Dipole moment (field-independent basis, Debye):
    X=             -0.7617    Y=             -0.6536    Z=              1.2265  Tot=              1.5848
 Quadrupole moment (field-independent basis, Debye-Ang):
   XX=           -177.4028   YY=            -99.4855   ZZ=           -100.6502
   XY=             21.8068   XZ=             -2.7205   YZ=              1.1815

 Normal termination of Gaussian 16 at Thu May  6 01:56:29 2021.
