 Gaussian 16, Revision A.03,
 Gaussian 16:  EM64L-G16RevA.03 25-Dec-2016

 -------------
 #p 6-31g* mp2
 -------------

 ------------------------------------------------------
 Input file generated by CHIRIPA (05-May-2021 14:53:11)
 ------------------------------------------------------
 Symbolic Z-matrix:
 Charge =  0 Multiplicity = 1

                         Standard orientation:
 ---------------------------------------------------------------------
 Center     Atomic      Atomic             Coordinates (Angstroms)
 Number     Number       Type             X           Y           Z
 ---------------------------------------------------------------------
      1          6           0       -3.387935    0.792971   -0.190368
      2          6           0       -4.451334    1.887804   -0.282611
      3          6           0       -3.891442    3.213757   -0.798522
      4          1           0       -2.577850    1.132171    0.469669
      5          1           0       -2.940256    0.641825   -1.182403
      6          1           0       -4.897842    2.035875    0.709014
      7          1           0       -5.259074    1.545882   -0.942354
      8          1           0       -3.463055    3.088141   -1.798175
      9          1           0       -3.099771    3.580918   -0.137424
     10          1           0       -4.668555    3.982254   -0.856559
     11          6           0       -3.932339   -0.538560    0.323809
     12          6           0       -2.868940   -1.633393    0.416053
     13          6           0       -3.428832   -2.959346    0.931963
     14          1           0       -4.380018   -0.387413    1.315844
     15          1           0       -4.742424   -0.877760   -0.336228
     16          1           0       -2.061200   -1.291470    1.075795
     17          1           0       -2.422432   -1.781464   -0.575573
     18          1           0       -4.220503   -3.326507    0.270865
     19          1           0       -3.857219   -2.833729    1.931616
     20          1           0       -2.651719   -3.727843    0.990000
     21          6           0        4.607523    1.542968    0.730801
     22          6           0        4.935456    0.572681   -0.221839
     23          6           0        3.974948   -0.342420   -0.662935
     24          6           0        2.690488   -0.258155   -0.127816
     25          6           0        2.333022    0.697053    0.822493
     26          6           0        3.309640    1.601953    1.249013
     27          1           0        5.359926    2.249878    1.067793
     28          1           0        5.942608    0.524514   -0.626029
     29          1           0        4.201700   -1.103742   -1.399405
     30          1           0        1.320611    0.720221    1.207076
     31          1           0        3.052120    2.354426    1.988953
     32          7           0        1.665113   -1.221531   -0.587069
     33          8           0        0.540621   -1.126318   -0.100151
     34          8           0        2.005333   -2.053598   -1.425253
 ---------------------------------------------------------------------

 SCF Done:  E(RHF) =  -669.535551681     A.U. after   15 cycles
 E2 =    -0.2091360685D+01 EUMP2 =    -0.67162691236579D+03

 The electronic state is 1-A.
 Alpha  occ. eigenvalues --  -20.60887 -20.60882 -15.85924 -11.31271 -11.27841
 Alpha  occ. eigenvalues --  -11.27835 -11.27579 -11.26851 -11.26841 -11.21036
 Alpha  occ. eigenvalues --  -11.20694 -11.20574 -11.20354 -11.20015 -11.19856
 Alpha  occ. eigenvalues --   -1.59956  -1.39512  -1.19443  -1.08843  -1.07502
 Alpha  occ. eigenvalues --   -1.04843  -1.02584  -0.95682  -0.95107  -0.86243
 Alpha  occ. eigenvalues --   -0.86134  -0.82522  -0.78677  -0.77600  -0.77169
 Alpha  occ. eigenvalues --   -0.72136  -0.71272  -0.70552  -0.65098  -0.64847
 Alpha  occ. eigenvalues --   -0.64153  -0.62192  -0.59993  -0.58494  -0.56658
 Alpha  occ. eigenvalues --   -0.55346  -0.54431  -0.53173  -0.52936  -0.51816
 Alpha  occ. eigenvalues --   -0.51515  -0.49100  -0.48934  -0.48904  -0.46945
 Alpha  occ. eigenvalues --   -0.45728  -0.44954  -0.44730  -0.44606  -0.42849
 Alpha  occ. eigenvalues --   -0.37422  -0.36446
 Alpha virt. eigenvalues --    0.04961   0.11209   0.16452   0.21207   0.23567
 Alpha virt. eigenvalues --    0.25183   0.26483   0.27512   0.27943   0.28706
 Alpha virt. eigenvalues --    0.29080   0.31037   0.32093   0.32374   0.32954

 Mulliken charges:
               1
     1  C   -0.294800
     2  C   -0.298955
     3  C   -0.474506
     4  H    0.145099
     5  H    0.152830
     6  H    0.149431
     7  H    0.151408
     8  H    0.155289
     9  H    0.151137
    10  H    0.158044
    11  C   -0.299410
    12  C   -0.296865
    13  C   -0.476559
    14  H    0.143558
    15  H    0.145990
    16  H    0.159339
    17  H    0.164654
    18  H    0.150316
    19  H    0.148013
    20  H    0.163199
    21  C   -0.170667
    22  C   -0.218553
    23  C   -0.170704
    24  C    0.157618
    25  C   -0.170512
    26  C   -0.218474
    27  H    0.225923
    28  H    0.223730
    29  H    0.275786
    30  H    0.275128
    31  H    0.223714
    32  N    0.494053
    33  O   -0.464322
    34  O   -0.459931
 Sum of Mulliken charges =  -0.00000

 Dipole moment (field-independent basis, Debye):
    X=              3.9094    Y=              3.2997    Z=              1.5344  Tot=              5.3410
 Quadrupole moment (field-independent basis, Debye-Ang):
   XX=            -74.6534   YY=            -97.6421   ZZ=            -93.1810
   XY=              6.6744   XZ=              2.2373   YZ=              1.5729

 Normal termination of Gaussian 16 at Wed May  5 16:57:15 2021.
