 Gaussian 16, Revision A.03,
 Gaussian 16:  EM64L-G16RevA.03 25-Dec-2016

 -------------
 #p 6-31g* mp2
 -------------

 ------------------------------------------------------
 Input file generated by CHIRIPA (05-May-2021 14:51:14)
 ------------------------------------------------------
 Symbolic Z-matrix:
 Charge =  0 Multiplicity = 1

                         Standard orientation:
 ---------------------------------------------------------------------
 Center     Atomic      Atomic             Coordinates (Angstroms)
 Number     Number       Type             X           Y           Z
 ---------------------------------------------------------------------
      1          6           0        3.904107    0.489216   -0.151405
      2          6           0        4.117773   -1.020621   -0.038599
      3          6           0        5.572241   -1.430833   -0.271069
      4          1           0        4.226888    0.825480   -1.146233
      5          1           0        4.550670    0.999361    0.575990
      6          1           0        3.469980   -1.527839   -0.765036
      7          1           0        3.794267   -1.353361    0.956009
      8          1           0        6.229534   -0.951348    0.461503
      9          1           0        5.903404   -1.126818   -1.269321
     10          1           0        5.702366   -2.514184   -0.185759
     11          6           0        2.455067    0.914850    0.078479
     12          6           0        2.241401    2.424686   -0.034327
     13          6           0        0.786933    2.834898    0.198143
     14          1           0        1.808504    0.404705   -0.648916
     15          1           0        2.132286    0.578585    1.073308
     16          1           0        2.564907    2.757426   -1.028935
     17          1           0        2.889194    2.931904    0.692110
     18          1           0        0.455769    2.530883    1.196395
     19          1           0        0.129640    2.355414   -0.534428
     20          1           0        0.656808    3.918249    0.112833
     21          6           0       -2.489294   -0.759976    0.358286
     22          6           0       -1.676194   -1.946562   -0.160240
     23          6           0       -0.297604   -2.049130    0.493030
     24          1           0       -1.927573    0.167182    0.179978
     25          1           0       -2.604409   -0.851179    1.447241
     26          1           0       -1.563826   -1.853872   -1.248082
     27          1           0       -2.240000   -2.870984    0.019149
     28          1           0       -0.392890   -2.166171    1.577384
     29          1           0        0.287126   -1.143279    0.302953
     30          1           0        0.266596   -2.904188    0.107786
     31          6           0       -3.869880   -0.644089   -0.285360
     32          6           0       -4.682980    0.542496    0.233166
     33          6           0       -6.061570    0.645064   -0.420104
     34          1           0       -3.754764   -0.552886   -1.374316
     35          1           0       -4.431600   -1.571247   -0.107052
     36          1           0       -4.119173    1.466919    0.053777
     37          1           0       -4.795347    0.449808    1.321008
     38          1           0       -6.646299   -0.260785   -0.230027
     39          1           0       -5.966283    0.762106   -1.504458
     40          1           0       -6.625769    1.500123   -0.034860
 ---------------------------------------------------------------------

 SCF Done:  E(RHF) =  -470.732914642     A.U. after   11 cycles
 E2 =    -0.1583556920D+01 EUMP2 =    -0.47231647156246D+03

 The electronic state is 1-A.
 Alpha  occ. eigenvalues --  -11.21657 -11.21585 -11.21555 -11.21516 -11.21439
 Alpha  occ. eigenvalues --  -11.21376 -11.21345 -11.21281 -11.21149 -11.21064
 Alpha  occ. eigenvalues --  -11.21037 -11.20871  -1.08474  -1.08361  -1.03561
 Alpha  occ. eigenvalues --   -1.03454  -0.96029  -0.95891  -0.87046  -0.86907
 Alpha  occ. eigenvalues --   -0.79643  -0.79521  -0.78341  -0.78120  -0.65118
 Alpha  occ. eigenvalues --   -0.64980  -0.60962  -0.60857  -0.59401  -0.59251
 Alpha  occ. eigenvalues --   -0.57719  -0.57449  -0.55344  -0.55165  -0.52725
 Alpha  occ. eigenvalues --   -0.52585  -0.52557  -0.52206  -0.49989  -0.49825
 Alpha  occ. eigenvalues --   -0.48061  -0.47775  -0.46711  -0.46624  -0.45938
 Alpha  occ. eigenvalues --   -0.45759  -0.45669  -0.45274  -0.43816  -0.43709
 Alpha virt. eigenvalues --    0.21122   0.23058   0.23810   0.24454   0.26003
 Alpha virt. eigenvalues --    0.26211   0.26714   0.27234   0.28784   0.29648
 Alpha virt. eigenvalues --    0.30805   0.31432   0.31592   0.31825   0.31986

 Mulliken charges:
               1
     1  C   -0.297684
     2  C   -0.300350
     3  C   -0.475746
     4  H    0.149427
     5  H    0.149561
     6  H    0.152734
     7  H    0.152976
     8  H    0.155101
     9  H    0.154999
    10  H    0.160389
    11  C   -0.303415
    12  C   -0.298906
    13  C   -0.478008
    14  H    0.152143
    15  H    0.152331
    16  H    0.151937
    17  H    0.152302
    18  H    0.156492
    19  H    0.155280
    20  H    0.160895
    21  C   -0.300690
    22  C   -0.299096
    23  C   -0.484885
    24  H    0.152026
    25  H    0.149238
    26  H    0.150596
    27  H    0.151403
    28  H    0.153674
    29  H    0.166599
    30  H    0.159172
    31  C   -0.298090
    32  C   -0.299702
    33  C   -0.475651
    34  H    0.149077
    35  H    0.149523
    36  H    0.152300
    37  H    0.151810
    38  H    0.155058
    39  H    0.155027
    40  H    0.160150
 Sum of Mulliken charges =  -0.00000

 Dipole moment (field-independent basis, Debye):
    X=              0.0670    Y=              0.0469    Z=              0.0128  Tot=              0.0828
 Quadrupole moment (field-independent basis, Debye-Ang):
   XX=            -86.7173   YY=            -84.7580   ZZ=            -83.3866
   XY=              0.8843   XZ=             -0.3345   YZ=             -0.3033

 Normal termination of Gaussian 16 at Wed May  5 23:14:59 2021.
