 Gaussian 16, Revision A.03,
 Gaussian 16:  EM64L-G16RevA.03 25-Dec-2016

 -------------
 #p 6-31g* mp2
 -------------

 ------------------------------------------------------
 Input file generated by CHIRIPA (05-May-2021 14:53:17)
 ------------------------------------------------------
 Symbolic Z-matrix:
 Charge =  0 Multiplicity = 1

                         Standard orientation:
 ---------------------------------------------------------------------
 Center     Atomic      Atomic             Coordinates (Angstroms)
 Number     Number       Type             X           Y           Z
 ---------------------------------------------------------------------
      1          6           0       -3.514792    0.931012   -0.312205
      2          6           0       -2.595537    1.798618    0.548153
      3          6           0       -2.075836    3.028550   -0.196812
      4          1           0       -2.971616    0.613575   -1.212838
      5          1           0       -4.363524    1.537937   -0.656719
      6          1           0       -1.749514    1.189870    0.892080
      7          1           0       -3.140903    2.113868    1.446935
      8          1           0       -2.907739    3.659408   -0.526290
      9          1           0       -1.508445    2.730160   -1.084298
     10          1           0       -1.420727    3.634574    0.436770
     11          6           0       -4.042412   -0.302364    0.418637
     12          6           0       -4.961666   -1.169970   -0.441721
     13          6           0       -5.481368   -2.399902    0.303243
     14          1           0       -3.193680   -0.909290    0.763150
     15          1           0       -4.585587    0.015073    1.319269
     16          1           0       -4.416301   -1.485220   -1.340504
     17          1           0       -5.807690   -0.561222   -0.785648
     18          1           0       -6.048759   -2.101512    1.190729
     19          1           0       -4.649464   -3.030760    0.632722
     20          1           0       -6.136477   -3.005927   -0.330339
     21          6           0        2.774990    2.271155   -0.015240
     22          6           0        1.654472    1.493817   -0.326214
     23          6           0        1.740979    0.098556   -0.343815
     24          6           0        2.969148   -0.488873   -0.044120
     25          6           0        4.103432    0.258328    0.269538
     26          6           0        3.993745    1.652021    0.281122
     27          1           0        2.698786    3.354419   -0.003905
     28          1           0        0.706685    1.971923   -0.556781
     29          1           0        0.889291   -0.527307   -0.581183
     30          1           0        5.034691   -0.246953    0.495070
     31          1           0        4.865609    2.253190    0.522982
     32          7           0        3.072999   -1.965144   -0.059568
     33          8           0        4.166450   -2.458454    0.208101
     34          8           0        2.058979   -2.600982   -0.339053
 ---------------------------------------------------------------------

 SCF Done:  E(RHF) =  -669.535522673     A.U. after   15 cycles
 E2 =    -0.2091513446D+01 EUMP2 =    -0.67162703611883D+03

 The electronic state is 1-A.
 Alpha  occ. eigenvalues --  -20.60755 -20.60749 -15.85807 -11.31159 -11.27726
 Alpha  occ. eigenvalues --  -11.27718 -11.27450 -11.26740 -11.26664 -11.22412
 Alpha  occ. eigenvalues --  -11.22180 -11.21964 -11.21802 -11.21704 -11.21136
 Alpha  occ. eigenvalues --   -1.59830  -1.39384  -1.19325  -1.08943  -1.08720
 Alpha  occ. eigenvalues --   -1.04728  -1.04064  -0.96531  -0.95561  -0.87552
 Alpha  occ. eigenvalues --   -0.86119  -0.82394  -0.80143  -0.78680  -0.77448
 Alpha  occ. eigenvalues --   -0.72026  -0.71153  -0.70436  -0.65638  -0.64974
 Alpha  occ. eigenvalues --   -0.64725  -0.62193  -0.61343  -0.59933  -0.58099
 Alpha  occ. eigenvalues --   -0.55868  -0.55197  -0.53253  -0.53057  -0.52942
 Alpha  occ. eigenvalues --   -0.52762  -0.50452  -0.48783  -0.48778  -0.48441
 Alpha  occ. eigenvalues --   -0.47181  -0.46233  -0.46122  -0.44793  -0.44294
 Alpha  occ. eigenvalues --   -0.37304  -0.36325
 Alpha virt. eigenvalues --    0.05074   0.11307   0.16520   0.19347   0.22924
 Alpha virt. eigenvalues --    0.23861   0.25709   0.26372   0.27146   0.28495
 Alpha virt. eigenvalues --    0.29211   0.30307   0.31034   0.31549   0.32538

 Mulliken charges:
               1
     1  C   -0.298602
     2  C   -0.302825
     3  C   -0.482724
     4  H    0.147906
     5  H    0.151610
     6  H    0.150700
     7  H    0.157106
     8  H    0.163550
     9  H    0.148325
    10  H    0.158721
    11  C   -0.299361
    12  C   -0.300160
    13  C   -0.476513
    14  H    0.152145
    15  H    0.150730
    16  H    0.153373
    17  H    0.151651
    18  H    0.154959
    19  H    0.158477
    20  H    0.161513
    21  C   -0.173660
    22  C   -0.226752
    23  C   -0.174698
    24  C    0.159004
    25  C   -0.171298
    26  C   -0.218330
    27  H    0.226100
    28  H    0.238750
    29  H    0.274850
    30  H    0.275437
    31  H    0.223245
    32  N    0.488150
    33  O   -0.460492
    34  O   -0.460889
 Sum of Mulliken charges =  -0.00000

 Dipole moment (field-independent basis, Debye):
    X=             -0.5606    Y=              5.1877    Z=              0.0989  Tot=              5.2189
 Quadrupole moment (field-independent basis, Debye-Ang):
   XX=            -91.0801   YY=           -100.8818   ZZ=            -95.3778
   XY=             15.3092   XZ=              1.4223   YZ=              0.4448

 Normal termination of Gaussian 16 at Thu May  6 07:34:06 2021.
