 Gaussian 16, Revision A.03,
 Gaussian 16:  EM64L-G16RevA.03 25-Dec-2016

 -------------
 #p 6-31g* mp2
 -------------

 ------------------------------------------------------
 Input file generated by CHIRIPA (05-May-2021 14:55:19)
 ------------------------------------------------------
 Symbolic Z-matrix:
 Charge =  0 Multiplicity = 1

                         Standard orientation:
 ---------------------------------------------------------------------
 Center     Atomic      Atomic             Coordinates (Angstroms)
 Number     Number       Type             X           Y           Z
 ---------------------------------------------------------------------
      1          6           0       -2.048159    1.614845    0.027919
      2          6           0       -1.884230    0.237643    0.209476
      3          6           0       -2.987294   -0.620291    0.167666
      4          6           0       -4.245523   -0.064547   -0.058825
      5          6           0       -4.441203    1.303277   -0.243371
      6          6           0       -3.323874    2.142336   -0.197528
      7          1           0       -1.185732    2.273977    0.061964
      8          1           0       -0.894677   -0.174806    0.384734
      9          1           0       -2.888933   -1.690283    0.304996
     10          1           0       -5.440110    1.685003   -0.416251
     11          1           0       -3.454176    3.211490   -0.338866
     12          7           0       -5.420838   -0.962813   -0.105222
     13          8           0       -6.518811   -0.448361   -0.306303
     14          8           0       -5.221824   -2.164315    0.060371
     15          6           0        4.460663   -0.179734   -0.161511
     16          6           0        3.446640    0.209481    0.914710
     17          6           0        1.999285    0.058391    0.445527
     18          1           0        4.296024    0.440823   -1.052999
     19          1           0        4.279875   -1.219681   -0.466833
     20          1           0        3.630168    1.247942    1.218901
     21          1           0        3.613836   -0.411943    1.803808
     22          1           0        1.792905   -0.978352    0.160619
     23          1           0        1.809330    0.690965   -0.427611
     24          1           0        1.291152    0.341929    1.230392
     25          6           0        5.911988   -0.034020    0.292528
     26          6           0        6.926011   -0.423235   -0.783693
     27          6           0        8.373365   -0.272145   -0.314510
     28          1           0        6.092776    1.005927    0.597850
     29          1           0        6.076627   -0.654577    1.184014
     30          1           0        6.758815    0.198189   -1.672791
     31          1           0        6.742483   -1.461695   -1.087885
     32          1           0        8.563320   -0.904719    0.558627
     33          1           0        8.579746    0.764597   -0.029602
     34          1           0        9.081498   -0.555682   -1.099376
 ---------------------------------------------------------------------

 SCF Done:  E(RHF) =  -669.535485015     A.U. after   15 cycles
 E2 =    -0.2091084467D+01 EUMP2 =    -0.67162656948239D+03

 The electronic state is 1-A.
 Alpha  occ. eigenvalues --  -20.60684 -20.60679 -15.85735 -11.31077 -11.27645
 Alpha  occ. eigenvalues --  -11.27618 -11.27363 -11.26663 -11.26552 -11.22571
 Alpha  occ. eigenvalues --  -11.22432 -11.22129 -11.22079 -11.21954 -11.21466
 Alpha  occ. eigenvalues --   -1.59760  -1.39314  -1.19240  -1.09147  -1.08639
 Alpha  occ. eigenvalues --   -1.04639  -1.04300  -0.96790  -0.95480  -0.87837
 Alpha  occ. eigenvalues --   -0.86027  -0.82312  -0.80390  -0.78905  -0.77361
 Alpha  occ. eigenvalues --   -0.71954  -0.71082  -0.70352  -0.65770  -0.64889
 Alpha  occ. eigenvalues --   -0.64666  -0.62027  -0.61692  -0.60158  -0.58356
 Alpha  occ. eigenvalues --   -0.56069  -0.55139  -0.53634  -0.53212  -0.52964
 Alpha  occ. eigenvalues --   -0.52574  -0.50717  -0.48712  -0.48710  -0.48684
 Alpha  occ. eigenvalues --   -0.47380  -0.46461  -0.46349  -0.44725  -0.44532
 Alpha  occ. eigenvalues --   -0.37223  -0.36239
 Alpha virt. eigenvalues --    0.05162   0.11375   0.16662   0.20434   0.22320
 Alpha virt. eigenvalues --    0.23748   0.25825   0.25924   0.26878   0.27854
 Alpha virt. eigenvalues --    0.29020   0.29999   0.30718   0.31283   0.31842

 Mulliken charges:
               1
     1  C   -0.174676
     2  C   -0.227507
     3  C   -0.173063
     4  C    0.159073
     5  C   -0.171673
     6  C   -0.218422
     7  H    0.225374
     8  H    0.240061
     9  H    0.275527
    10  H    0.275089
    11  H    0.222764
    12  N    0.487956
    13  O   -0.460833
    14  O   -0.460688
    15  C   -0.299443
    16  C   -0.299115
    17  C   -0.485571
    18  H    0.150210
    19  H    0.151363
    20  H    0.153628
    21  H    0.155843
    22  H    0.158094
    23  H    0.156057
    24  H    0.155488
    25  C   -0.299029
    26  C   -0.300157
    27  C   -0.476093
    28  H    0.150096
    29  H    0.151034
    30  H    0.152363
    31  H    0.152975
    32  H    0.155977
    33  H    0.155529
    34  H    0.161768
 Sum of Mulliken charges =  -0.00000

 Dipole moment (field-independent basis, Debye):
    X=              4.4557    Y=              3.1402    Z=              0.1642  Tot=              5.4535
 Quadrupole moment (field-independent basis, Debye-Ang):
   XX=           -128.9564   YY=            -91.3919   ZZ=            -95.4466
   XY=            -16.6041   XZ=             -0.5396   YZ=             -1.3350

 Normal termination of Gaussian 16 at Thu May  6 02:51:38 2021.
