 Gaussian 16, Revision A.03,
 Gaussian 16:  EM64L-G16RevA.03 25-Dec-2016

 -------------
 #p 6-31g* mp2
 -------------

 ------------------------------------------------------
 Input file generated by CHIRIPA (05-May-2021 14:57:26)
 ------------------------------------------------------
 Symbolic Z-matrix:
 Charge =  0 Multiplicity = 1

                         Standard orientation:
 ---------------------------------------------------------------------
 Center     Atomic      Atomic             Coordinates (Angstroms)
 Number     Number       Type             X           Y           Z
 ---------------------------------------------------------------------
      1          6           0        3.065782    2.256043    0.938253
      2          6           0        2.123422    2.234592   -0.095197
      3          6           0        1.776024    1.030251   -0.714409
      4          6           0        2.393339   -0.139121   -0.273068
      5          6           0        3.335818   -0.150297    0.754015
      6          6           0        3.667911    1.065629    1.358819
      7          1           0        3.329704    3.196104    1.413675
      8          1           0        1.654192    3.157542   -0.423879
      9          1           0        1.049642    0.984926   -1.516738
     10          1           0        3.786613   -1.086582    1.059908
     11          1           0        4.400091    1.079277    2.161172
     12          7           0        2.033666   -1.420236   -0.920974
     13          8           0        2.591837   -2.436740   -0.513786
     14          8           0        1.200394   -1.383611   -1.823721
     15          6           0       -1.946319   -2.267512    1.301806
     16          6           0       -1.766886   -2.135919   -0.079139
     17          6           0       -2.044249   -0.924163   -0.718876
     18          6           0       -2.501565    0.140230    0.056508
     19          6           0       -2.690388    0.040344    1.434062
     20          6           0       -2.406684   -1.180876    2.052675
     21          1           0       -1.728394   -3.212510    1.790564
     22          1           0       -1.409485   -2.978127   -0.664797
     23          1           0       -1.914207   -0.794738   -1.786470
     24          1           0       -3.047986    0.897685    1.991296
     25          1           0       -2.546963   -1.280185    3.125291
     26          7           0       -2.798552    1.428072   -0.609572
     27          8           0       -3.200330    2.350788    0.095983
     28          8           0       -2.623931    1.490381   -1.824587
 ---------------------------------------------------------------------

 SCF Done:  E(RHF) =  -868.340948603     A.U. after   16 cycles
 E2 =    -0.2600630389D+01 EUMP2 =    -0.87094157899217D+03

 The electronic state is 1-A.
 Alpha  occ. eigenvalues --  -20.61258 -20.61253 -20.60702 -20.60695 -15.86267
 Alpha  occ. eigenvalues --  -15.85731 -11.31318 -11.30766 -11.27887 -11.27781
 Alpha  occ. eigenvalues --  -11.27537 -11.27364 -11.27163 -11.26965 -11.26843
 Alpha  occ. eigenvalues --  -11.26724 -11.26326 -11.26048  -1.60315  -1.59785
 Alpha  occ. eigenvalues --   -1.39881  -1.39343  -1.19461  -1.18913  -1.08919
 Alpha  occ. eigenvalues --   -1.08374  -1.04810  -1.04224  -0.95809  -0.95253
 Alpha  occ. eigenvalues --   -0.86225  -0.85650  -0.82660  -0.82068  -0.77737
 Alpha  occ. eigenvalues --   -0.77153  -0.72527  -0.71950  -0.71617  -0.71115
 Alpha  occ. eigenvalues --   -0.70564  -0.69996  -0.65118  -0.64804  -0.64538
 Alpha  occ. eigenvalues --   -0.64194  -0.62151  -0.61545  -0.55332  -0.54760
 Alpha  occ. eigenvalues --   -0.53170  -0.52893  -0.52626  -0.52284  -0.49277
 Alpha  occ. eigenvalues --   -0.49243  -0.48724  -0.48680  -0.45367  -0.44815
 Alpha  occ. eigenvalues --   -0.37435  -0.36940  -0.36379  -0.35762
 Alpha virt. eigenvalues --    0.04697   0.05358   0.11182   0.11854   0.16252
 Alpha virt. eigenvalues --    0.16939   0.21352   0.22100   0.27169   0.27756
 Alpha virt. eigenvalues --    0.28357   0.29045   0.30975   0.31552   0.32085

 Mulliken charges:
               1
     1  C   -0.170250
     2  C   -0.219556
     3  C   -0.173506
     4  C    0.158884
     5  C   -0.171841
     6  C   -0.219061
     7  H    0.227161
     8  H    0.231097
     9  H    0.280919
    10  H    0.273500
    11  H    0.222982
    12  N    0.489750
    13  O   -0.462175
    14  O   -0.466401
    15  C   -0.172884
    16  C   -0.219181
    17  C   -0.167323
    18  C    0.152698
    19  C   -0.173178
    20  C   -0.219625
    21  H    0.226508
    22  H    0.237339
    23  H    0.281749
    24  H    0.271673
    25  H    0.220483
    26  N    0.486960
    27  O   -0.463569
    28  O   -0.463152
 Sum of Mulliken charges =  -0.00000

 Dipole moment (field-independent basis, Debye):
    X=              2.4573    Y=             -0.1074    Z=              4.4960  Tot=              5.1248
 Quadrupole moment (field-independent basis, Debye-Ang):
   XX=           -103.3577   YY=           -105.8519   ZZ=           -100.9392
   XY=             20.6924   XZ=              0.5710   YZ=             -1.0049

 Normal termination of Gaussian 16 at Fri May  7 03:35:12 2021.
