 Gaussian 16, Revision A.03,
 Gaussian 16:  EM64L-G16RevA.03 25-Dec-2016

 -------------
 #p 6-31g* mp2
 -------------

 ------------------------------------------------------
 Input file generated by CHIRIPA (05-May-2021 14:55:20)
 ------------------------------------------------------
 Symbolic Z-matrix:
 Charge =  0 Multiplicity = 1

                         Standard orientation:
 ---------------------------------------------------------------------
 Center     Atomic      Atomic             Coordinates (Angstroms)
 Number     Number       Type             X           Y           Z
 ---------------------------------------------------------------------
      1          6           0        6.079160   -0.333678    0.882127
      2          6           0        5.620105   -1.279282   -0.040707
      3          6           0        4.327480   -1.189656   -0.565717
      4          6           0        3.517015   -0.136762   -0.143994
      5          6           0        3.945491    0.820912    0.773916
      6          6           0        5.241864    0.711558    1.285781
      7          1           0        7.084758   -0.410965    1.284861
      8          1           0        6.268163   -2.092090   -0.355999
      9          1           0        3.946601   -1.907994   -1.281496
     10          1           0        3.276325    1.619953    1.069160
     11          1           0        5.595700    1.447364    2.002325
     12          7           0        2.146586   -0.031436   -0.692841
     13          8           0        1.452110    0.905627   -0.305215
     14          8           0        1.792870   -0.887938   -1.500260
     15          6           0       -4.438503    0.789129   -0.261576
     16          6           0       -2.936127    0.833815    0.019238
     17          6           0       -2.245171    2.023485   -0.647890
     18          1           0       -4.601062    0.747775   -1.347305
     19          1           0       -4.897737    1.724226    0.087843
     20          1           0       -2.480083   -0.101666   -0.329352
     21          1           0       -2.777122    0.874874    1.104433
     22          1           0       -2.673042    2.966441   -0.292418
     23          1           0       -2.374315    1.984352   -1.734349
     24          1           0       -1.171869    2.035996   -0.434054
     25          6           0       -5.143264   -0.394580    0.398632
     26          6           0       -6.645639   -0.439267    0.117818
     27          6           0       -7.336595   -1.628936    0.784946
     28          1           0       -4.684031   -1.329677    0.049214
     29          1           0       -4.980705   -0.353226    1.484362
     30          1           0       -6.804645   -0.480325   -0.967376
     31          1           0       -7.101684    0.496215    0.466409
     32          1           0       -7.207451   -1.589804    1.871405
     33          1           0       -6.908724   -2.571892    0.429474
     34          1           0       -8.409897   -1.641448    0.571110
 ---------------------------------------------------------------------

 SCF Done:  E(RHF) =  -669.536235105     A.U. after   15 cycles
 E2 =    -0.2090742071D+01 EUMP2 =    -0.67162697717620D+03

 The electronic state is 1-A.
 Alpha  occ. eigenvalues --  -20.60972 -20.60961 -15.86007 -11.31312 -11.27872
 Alpha  occ. eigenvalues --  -11.27869 -11.27608 -11.26877 -11.26867 -11.20923
 Alpha  occ. eigenvalues --  -11.20536 -11.20512 -11.20322 -11.20198 -11.19340
 Alpha  occ. eigenvalues --   -1.60028  -1.39585  -1.19478  -1.08885  -1.07449
 Alpha  occ. eigenvalues --   -1.04872  -1.02460  -0.95730  -0.94906  -0.86273
 Alpha  occ. eigenvalues --   -0.85932  -0.82564  -0.78576  -0.77618  -0.77218
 Alpha  occ. eigenvalues --   -0.72233  -0.71341  -0.70587  -0.65135  -0.64875
 Alpha  occ. eigenvalues --   -0.64092  -0.62220  -0.59872  -0.58322  -0.56474
 Alpha  occ. eigenvalues --   -0.55376  -0.54224  -0.53204  -0.52965  -0.51566
 Alpha  occ. eigenvalues --   -0.51345  -0.48978  -0.48957  -0.48881  -0.46852
 Alpha  occ. eigenvalues --   -0.45640  -0.45002  -0.44765  -0.44668  -0.42690
 Alpha  occ. eigenvalues --   -0.37456  -0.36473
 Alpha virt. eigenvalues --    0.04917   0.11183   0.16420   0.21312   0.23772
 Alpha virt. eigenvalues --    0.25441   0.27237   0.27576   0.28155   0.28443
 Alpha virt. eigenvalues --    0.29136   0.30880   0.32373   0.32394   0.32655

 Mulliken charges:
               1
     1  C   -0.170551
     2  C   -0.218611
     3  C   -0.170387
     4  C    0.157454
     5  C   -0.170733
     6  C   -0.218542
     7  H    0.226052
     8  H    0.223866
     9  H    0.275890
    10  H    0.275750
    11  H    0.223897
    12  N    0.492699
    13  O   -0.463816
    14  O   -0.458958
    15  C   -0.297421
    16  C   -0.297963
    17  C   -0.485050
    18  H    0.148422
    19  H    0.145843
    20  H    0.158219
    21  H    0.146725
    22  H    0.144167
    23  H    0.151456
    24  H    0.187477
    25  C   -0.297490
    26  C   -0.298835
    27  C   -0.475147
    28  H    0.149742
    29  H    0.147434
    30  H    0.151332
    31  H    0.150375
    32  H    0.153886
    33  H    0.154731
    34  H    0.158088
 Sum of Mulliken charges =  -0.00000

 Dipole moment (field-independent basis, Debye):
    X=              5.2389    Y=             -0.4192    Z=              1.8966  Tot=              5.5874
 Quadrupole moment (field-independent basis, Debye-Ang):
   XX=            -63.0941   YY=            -92.1618   ZZ=            -93.9619
   XY=             -3.1856   XZ=              6.0622   YZ=              3.3506

 Normal termination of Gaussian 16 at Thu May  6 15:46:39 2021.
