 Gaussian 16, Revision A.03,
 Gaussian 16:  EM64L-G16RevA.03 25-Dec-2016

 -------------
 #p 6-31g* mp2
 -------------

 ------------------------------------------------------
 Input file generated by CHIRIPA (05-May-2021 14:55:19)
 ------------------------------------------------------
 Symbolic Z-matrix:
 Charge =  0 Multiplicity = 1

                         Standard orientation:
 ---------------------------------------------------------------------
 Center     Atomic      Atomic             Coordinates (Angstroms)
 Number     Number       Type             X           Y           Z
 ---------------------------------------------------------------------
      1          6           0       -1.877780    2.089222    0.453313
      2          6           0       -2.674701    2.122794   -0.695735
      3          6           0       -3.563700    1.080283   -0.973939
      4          6           0       -3.630404    0.014873   -0.077421
      5          6           0       -2.849615   -0.047472    1.075736
      6          6           0       -1.967623    1.006105    1.333829
      7          1           0       -1.189905    2.903368    0.661617
      8          1           0       -2.607037    2.962687   -1.381334
      9          1           0       -4.192300    1.080776   -1.856141
     10          1           0       -2.939294   -0.898096    1.740428
     11          1           0       -1.349945    0.977360    2.226966
     12          7           0       -4.567839   -1.094644   -0.361298
     13          8           0       -4.607838   -2.021977    0.444364
     14          8           0       -5.244851   -1.015942   -1.384087
     15          6           0        5.182920   -0.161744    0.230723
     16          6           0        6.137871   -0.268720   -0.958651
     17          6           0        7.602212   -0.083746   -0.559545
     18          1           0        5.312817    0.818181    0.710116
     19          1           0        5.457397   -0.915783    0.981378
     20          1           0        5.860813    0.484380   -1.707446
     21          1           0        6.005549   -1.248431   -1.435383
     22          1           0        7.901490   -0.843066    0.170157
     23          1           0        7.755932    0.899590   -0.103451
     24          1           0        8.267410   -0.164058   -1.424948
     25          6           0        3.715392   -0.344459   -0.152297
     26          6           0        2.760441   -0.237483    1.037076
     27          6           0        1.296101   -0.422457    0.637971
     28          1           0        3.440915    0.409581   -0.902952
     29          1           0        3.585495   -1.324385   -0.631690
     30          1           0        2.892763    0.742228    1.513809
     31          1           0        3.037499   -0.990583    1.785872
     32          1           0        1.142381   -1.405793    0.181877
     33          1           0        0.996822    0.336863   -0.091733
     34          1           0        0.630902   -0.342145    1.503372
 ---------------------------------------------------------------------

 SCF Done:  E(RHF) =  -669.534552565     A.U. after   15 cycles
 E2 =    -0.2091965368D+01 EUMP2 =    -0.67162651793320D+03

 The electronic state is 1-A.
 Alpha  occ. eigenvalues --  -20.60742 -20.60736 -15.85794 -11.31163 -11.27717
 Alpha  occ. eigenvalues --  -11.27709 -11.27464 -11.26761 -11.26740 -11.22098
 Alpha  occ. eigenvalues --  -11.21897 -11.21800 -11.21716 -11.21577 -11.21329
 Alpha  occ. eigenvalues --   -1.59816  -1.39370  -1.19334  -1.08827  -1.08730
 Alpha  occ. eigenvalues --   -1.04746  -1.03927  -0.96379  -0.95564  -0.87405
 Alpha  occ. eigenvalues --   -0.86134  -0.82402  -0.79993  -0.78626  -0.77447
 Alpha  occ. eigenvalues --   -0.72014  -0.71138  -0.70442  -0.65456  -0.64989
 Alpha  occ. eigenvalues --   -0.64780  -0.62124  -0.61325  -0.59760  -0.57989
 Alpha  occ. eigenvalues --   -0.55668  -0.55246  -0.53452  -0.52985  -0.52738
 Alpha  occ. eigenvalues --   -0.52598  -0.50298  -0.48774  -0.48768  -0.48303
 Alpha  occ. eigenvalues --   -0.47024  -0.46168  -0.46091  -0.44775  -0.44194
 Alpha  occ. eigenvalues --   -0.37284  -0.36282
 Alpha virt. eigenvalues --    0.05069   0.11304   0.16479   0.20679   0.22614
 Alpha virt. eigenvalues --    0.23991   0.26216   0.26306   0.27126   0.27999
 Alpha virt. eigenvalues --    0.28636   0.29976   0.31058   0.31615   0.32301

 Mulliken charges:
               1
     1  C   -0.171967
     2  C   -0.218883
     3  C   -0.171198
     4  C    0.158881
     5  C   -0.171781
     6  C   -0.211422
     7  H    0.225316
     8  H    0.223213
     9  H    0.275412
    10  H    0.275382
    11  H    0.223107
    12  N    0.488056
    13  O   -0.460429
    14  O   -0.460534
    15  C   -0.298359
    16  C   -0.299883
    17  C   -0.475865
    18  H    0.148610
    19  H    0.150470
    20  H    0.151613
    21  H    0.153167
    22  H    0.155806
    23  H    0.154815
    24  H    0.161183
    25  C   -0.298524
    26  C   -0.300380
    27  C   -0.473970
    28  H    0.148519
    29  H    0.152068
    30  H    0.147730
    31  H    0.153312
    32  H    0.160028
    33  H    0.155409
    34  H    0.151099
 Sum of Mulliken charges =  -0.00000

 Dipole moment (field-independent basis, Debye):
    X=              3.3560    Y=              3.8788    Z=              0.9590  Tot=              5.2180
 Quadrupole moment (field-independent basis, Debye-Ang):
   XX=           -120.1582   YY=            -93.0819   ZZ=            -91.7395
   XY=            -15.3498   XZ=             -2.7412   YZ=             -2.7022

 Normal termination of Gaussian 16 at Thu May  6 01:19:18 2021.
