 Gaussian 16, Revision A.03,
 Gaussian 16:  EM64L-G16RevA.03 25-Dec-2016

 -------------
 #p 6-31g* mp2
 -------------

 ------------------------------------------------------
 Input file generated by CHIRIPA (05-May-2021 14:51:10)
 ------------------------------------------------------
 Symbolic Z-matrix:
 Charge =  0 Multiplicity = 1

                         Standard orientation:
 ---------------------------------------------------------------------
 Center     Atomic      Atomic             Coordinates (Angstroms)
 Number     Number       Type             X           Y           Z
 ---------------------------------------------------------------------
      1          6           0       -3.764240   -0.369578   -0.194319
      2          6           0       -4.326635    0.951810    0.330686
      3          6           0       -5.794199    1.160236   -0.044291
      4          1           0       -3.872593   -0.398437   -1.287192
      5          1           0       -4.366181   -1.199280    0.201480
      6          1           0       -3.722967    1.778690   -0.064876
      7          1           0       -4.216755    0.977608    1.422417
      8          1           0       -6.414101    0.355290    0.363612
      9          1           0       -5.917507    1.160924   -1.132131
     10          1           0       -6.175904    2.110870    0.341010
     11          6           0       -2.298096   -0.592323    0.172474
     12          6           0       -1.735701   -1.913711   -0.352531
     13          6           0       -0.268137   -2.122137    0.022445
     14          1           0       -1.696156    0.237379   -0.223325
     15          1           0       -2.189743   -0.563464    1.265347
     16          1           0       -1.845581   -1.939509   -1.444262
     17          1           0       -2.339369   -2.740591    0.043031
     18          1           0       -0.144829   -2.122825    1.110285
     19          1           0        0.351765   -1.317191   -0.385458
     20          1           0        0.113568   -3.072771   -0.362855
     21          6           0        3.011466    1.138044   -0.378015
     22          6           0        2.696939    2.351618    0.497369
     23          6           0        2.661017    3.658734   -0.295063
     24          1           0        3.978536    1.293565   -0.875542
     25          1           0        2.258348    1.064321   -1.174741
     26          1           0        3.449633    2.422227    1.293032
     27          1           0        1.730595    2.193103    0.993019
     28          1           0        1.897721    3.613372   -1.078595
     29          1           0        3.626526    3.843797   -0.776877
     30          1           0        2.434512    4.513279    0.350156
     31          6           0        3.050871   -0.176143    0.399861
     32          6           0        3.365398   -1.389716   -0.475523
     33          6           0        3.401319   -2.696833    0.316909
     34          1           0        3.803989   -0.102420    1.196587
     35          1           0        2.083799   -0.331665    0.897388
     36          1           0        4.331741   -1.231203   -0.971173
     37          1           0        2.612703   -1.460326   -1.271187
     38          1           0        2.435810   -2.881896    0.798722
     39          1           0        4.164616   -2.651471    1.100441
     40          1           0        3.627824   -3.551379   -0.328311
 ---------------------------------------------------------------------

 SCF Done:  E(RHF) =  -470.731496096     A.U. after   11 cycles
 E2 =    -0.1584645327D+01 EUMP2 =    -0.47231614142341D+03

 The electronic state is 1-A.
 Alpha  occ. eigenvalues --  -11.21659 -11.21642 -11.21576 -11.21472 -11.21471
 Alpha  occ. eigenvalues --  -11.21407 -11.21355 -11.21228 -11.21130 -11.21102
 Alpha  occ. eigenvalues --  -11.21060 -11.20886  -1.08506  -1.08358  -1.03637
 Alpha  occ. eigenvalues --   -1.03420  -0.96073  -0.95891  -0.87090  -0.86925
 Alpha  occ. eigenvalues --   -0.79700  -0.79513  -0.78324  -0.78161  -0.65238
 Alpha  occ. eigenvalues --   -0.64952  -0.61128  -0.60780  -0.59424  -0.59277
 Alpha  occ. eigenvalues --   -0.57657  -0.57516  -0.55383  -0.55181  -0.52733
 Alpha  occ. eigenvalues --   -0.52600  -0.52482  -0.52291  -0.50188  -0.49647
 Alpha  occ. eigenvalues --   -0.48061  -0.47765  -0.46779  -0.46461  -0.45977
 Alpha  occ. eigenvalues --   -0.45795  -0.45626  -0.45457  -0.43823  -0.43706
 Alpha virt. eigenvalues --    0.20973   0.23057   0.23780   0.24769   0.26115
 Alpha virt. eigenvalues --    0.26250   0.27286   0.27332   0.28088   0.29635
 Alpha virt. eigenvalues --    0.30759   0.31375   0.31646   0.31922   0.32462

 Mulliken charges:
               1
     1  C   -0.298270
     2  C   -0.299691
     3  C   -0.475749
     4  H    0.149776
     5  H    0.149791
     6  H    0.151934
     7  H    0.152021
     8  H    0.155267
     9  H    0.155247
    10  H    0.160430
    11  C   -0.298668
    12  C   -0.300688
    13  C   -0.482012
    14  H    0.148824
    15  H    0.149677
    16  H    0.151958
    17  H    0.152141
    18  H    0.154668
    19  H    0.163190
    20  H    0.162402
    21  C   -0.298666
    22  C   -0.299630
    23  C   -0.475567
    24  H    0.149894
    25  H    0.147837
    26  H    0.152071
    27  H    0.152097
    28  H    0.154676
    29  H    0.155201
    30  H    0.160214
    31  C   -0.304114
    32  C   -0.300602
    33  C   -0.480514
    34  H    0.149769
    35  H    0.154602
    36  H    0.151838
    37  H    0.152389
    38  H    0.163594
    39  H    0.154011
    40  H    0.158651
 Sum of Mulliken charges =  -0.00000

 Dipole moment (field-independent basis, Debye):
    X=             -0.0563    Y=             -0.0272    Z=              0.0154  Tot=              0.0644
 Quadrupole moment (field-independent basis, Debye-Ang):
   XX=            -85.0724   YY=            -85.7021   ZZ=            -84.2390
   XY=              0.6914   XZ=             -0.2743   YZ=              0.1127

 Normal termination of Gaussian 16 at Wed May  5 18:13:36 2021.
