 Gaussian 16, Revision A.03,
 Gaussian 16:  EM64L-G16RevA.03 25-Dec-2016

 -------------
 #p 6-31g* mp2
 -------------

 ------------------------------------------------------
 Input file generated by CHIRIPA (05-May-2021 14:55:19)
 ------------------------------------------------------
 Symbolic Z-matrix:
 Charge =  0 Multiplicity = 1

                         Standard orientation:
 ---------------------------------------------------------------------
 Center     Atomic      Atomic             Coordinates (Angstroms)
 Number     Number       Type             X           Y           Z
 ---------------------------------------------------------------------
      1          6           0       -1.001240    0.326826    2.107079
      2          6           0       -1.369799   -1.004068    1.884805
      3          6           0       -2.285893   -1.328756    0.879869
      4          6           0       -2.816200   -0.292787    0.112515
      5          6           0       -2.468873    1.042800    0.309645
      6          6           0       -1.550984    1.344219    1.320177
      7          1           0       -0.288899    0.570014    2.889912
      8          1           0       -0.944472   -1.796252    2.494383
      9          1           0       -2.588758   -2.350633    0.686327
     10          1           0       -2.909833    1.810741   -0.314245
     11          1           0       -1.266594    2.378695    1.490548
     12          7           0       -3.786978   -0.624203   -0.954328
     13          8           0       -4.239850    0.306849   -1.616663
     14          8           0       -4.076620   -1.808743   -1.107984
     15          6           0        2.779225    0.658989   -0.638765
     16          6           0        2.620470    2.086963   -0.115629
     17          6           0        1.374101    2.782325   -0.664107
     18          1           0        2.822411    0.680045   -1.736324
     19          1           0        1.886209    0.076869   -0.372203
     20          1           0        3.514125    2.665841   -0.381896
     21          1           0        2.577849    2.062522    0.980820
     22          1           0        0.470868    2.229441   -0.386456
     23          1           0        1.412463    2.836187   -1.756915
     24          1           0        1.280169    3.801834   -0.277276
     25          6           0        4.020659   -0.049285   -0.099395
     26          6           0        4.179413   -1.477259   -0.622531
     27          6           0        5.425783   -2.172622   -0.074053
     28          1           0        4.913674    0.532835   -0.365958
     29          1           0        3.977472   -0.070341    0.998165
     30          1           0        4.222035   -1.452819   -1.718980
     31          1           0        3.285759   -2.056138   -0.356264
     32          1           0        5.387421   -2.226483    1.018755
     33          1           0        6.329015   -1.619737   -0.351704
     34          1           0        5.519715   -3.192130   -0.460885
 ---------------------------------------------------------------------

 SCF Done:  E(RHF) =  -669.535123569     A.U. after   15 cycles
 E2 =    -0.2092611778D+01 EUMP2 =    -0.67162773534742D+03

 The electronic state is 1-A.
 Alpha  occ. eigenvalues --  -20.60825 -20.60820 -15.85880 -11.31288 -11.27854
 Alpha  occ. eigenvalues --  -11.27848 -11.27615 -11.26895 -11.26860 -11.22119
 Alpha  occ. eigenvalues --  -11.21946 -11.21798 -11.21732 -11.21492 -11.21396
 Alpha  occ. eigenvalues --   -1.59899  -1.39451  -1.19473  -1.08875  -1.08822
 Alpha  occ. eigenvalues --   -1.04886  -1.03943  -0.96391  -0.95681  -0.87417
 Alpha  occ. eigenvalues --   -0.86267  -0.82513  -0.80012  -0.78641  -0.77550
 Alpha  occ. eigenvalues --   -0.72097  -0.71222  -0.70564  -0.65499  -0.65120
 Alpha  occ. eigenvalues --   -0.64871  -0.62244  -0.61338  -0.59761  -0.58001
 Alpha  occ. eigenvalues --   -0.55730  -0.55358  -0.53277  -0.53111  -0.52952
 Alpha  occ. eigenvalues --   -0.52730  -0.50309  -0.48859  -0.48849  -0.48317
 Alpha  occ. eigenvalues --   -0.47044  -0.46186  -0.46103  -0.44847  -0.44198
 Alpha  occ. eigenvalues --   -0.37435  -0.36416
 Alpha virt. eigenvalues --    0.04965   0.11121   0.16376   0.20735   0.22666
 Alpha virt. eigenvalues --    0.23997   0.26170   0.26609   0.26984   0.28305
 Alpha virt. eigenvalues --    0.28418   0.30709   0.31170   0.31589   0.31841

 Mulliken charges:
               1
     1  C   -0.171829
     2  C   -0.218997
     3  C   -0.170750
     4  C    0.159145
     5  C   -0.171037
     6  C   -0.219635
     7  H    0.226429
     8  H    0.223966
     9  H    0.276100
    10  H    0.276926
    11  H    0.227838
    12  N    0.488099
    13  O   -0.459812
    14  O   -0.460149
    15  C   -0.300367
    16  C   -0.297282
    17  C   -0.485959
    18  H    0.152534
    19  H    0.151639
    20  H    0.153976
    21  H    0.144208
    22  H    0.160188
    23  H    0.159477
    24  H    0.155849
    25  C   -0.297933
    26  C   -0.299711
    27  C   -0.475768
    28  H    0.150672
    29  H    0.145803
    30  H    0.154268
    31  H    0.150899
    32  H    0.153500
    33  H    0.156144
    34  H    0.161570
 Sum of Mulliken charges =  -0.00000

 Dipole moment (field-independent basis, Debye):
    X=              3.3722    Y=              1.1026    Z=              3.7132  Tot=              5.1356
 Quadrupole moment (field-independent basis, Debye-Ang):
   XX=           -115.1101   YY=            -91.2592   ZZ=            -93.6791
   XY=             -4.1801   XZ=            -11.1139   YZ=             -2.3860

 Normal termination of Gaussian 16 at Thu May  6 15:43:33 2021.
