 Gaussian 16, Revision A.03,
 Gaussian 16:  EM64L-G16RevA.03 25-Dec-2016

 -------------
 #p 6-31g* mp2
 -------------

 ------------------------------------------------------
 Input file generated by CHIRIPA (05-May-2021 14:55:22)
 ------------------------------------------------------
 Symbolic Z-matrix:
 Charge =  0 Multiplicity = 1

                         Standard orientation:
 ---------------------------------------------------------------------
 Center     Atomic      Atomic             Coordinates (Angstroms)
 Number     Number       Type             X           Y           Z
 ---------------------------------------------------------------------
      1          6           0        5.296938   -1.448343    0.748893
      2          6           0        3.986049   -1.758724    1.125400
      3          6           0        2.909480   -1.022696    0.621605
      4          6           0        3.181344    0.021825   -0.260639
      5          6           0        4.476216    0.355438   -0.654718
      6          6           0        5.537413   -0.394111   -0.138399
      7          1           0        6.127272   -2.025359    1.145118
      8          1           0        3.796308   -2.576914    1.814317
      9          1           0        1.884753   -1.241477    0.896357
     10          1           0        4.633908    1.176738   -1.343207
     11          1           0        6.554431   -0.150811   -0.432552
     12          7           0        2.049765    0.808182   -0.800614
     13          8           0        2.315830    1.723605   -1.576401
     14          8           0        0.918194    0.494215   -0.437834
     15          6           0       -4.935195   -0.292188    0.312381
     16          6           0       -5.228083   -1.201104   -0.881802
     17          6           0       -6.480197   -2.055411   -0.681393
     18          1           0       -4.819805   -0.908463    1.214509
     19          1           0       -5.801313    0.360663    0.488503
     20          1           0       -4.361122   -1.851090   -1.056481
     21          1           0       -5.342598   -0.582608   -1.781227
     22          1           0       -7.359271   -1.420809   -0.529378
     23          1           0       -6.372218   -2.696498    0.199487
     24          1           0       -6.670883   -2.697501   -1.546969
     25          6           0       -3.686480    0.568094    0.127031
     26          6           0       -3.393592    1.477010    1.321214
     27          6           0       -2.141478    2.331317    1.120805
     28          1           0       -2.820361   -0.084757   -0.049092
     29          1           0       -3.801869    1.184369   -0.775097
     30          1           0       -3.279076    0.858514    2.220639
     31          1           0       -4.260552    2.126996    1.495893
     32          1           0       -2.249456    2.972404    0.239925
     33          1           0       -1.262404    1.696715    0.968790
     34          1           0       -1.950791    2.973406    1.986381
 ---------------------------------------------------------------------

 SCF Done:  E(RHF) =  -669.536104717     A.U. after   15 cycles
 E2 =    -0.2090851744D+01 EUMP2 =    -0.67162695646081D+03

 The electronic state is 1-A.
 Alpha  occ. eigenvalues --  -20.60955 -20.60943 -15.85988 -11.31306 -11.27872
 Alpha  occ. eigenvalues --  -11.27864 -11.27605 -11.26876 -11.26866 -11.20965
 Alpha  occ. eigenvalues --  -11.20628 -11.20580 -11.20548 -11.20324 -11.19590
 Alpha  occ. eigenvalues --   -1.60009  -1.39567  -1.19473  -1.08877  -1.07552
 Alpha  occ. eigenvalues --   -1.04870  -1.02625  -0.95721  -0.95053  -0.86271
 Alpha  occ. eigenvalues --   -0.86064  -0.82556  -0.78717  -0.77611  -0.77318
 Alpha  occ. eigenvalues --   -0.72213  -0.71322  -0.70583  -0.65131  -0.64873
 Alpha  occ. eigenvalues --   -0.64192  -0.62219  -0.60027  -0.58474  -0.56657
 Alpha  occ. eigenvalues --   -0.55374  -0.54332  -0.53201  -0.52963  -0.51777
 Alpha  occ. eigenvalues --   -0.51454  -0.49088  -0.48965  -0.48855  -0.47002
 Alpha  occ. eigenvalues --   -0.45775  -0.45002  -0.44859  -0.44704  -0.42890
 Alpha  occ. eigenvalues --   -0.37451  -0.36471
 Alpha virt. eigenvalues --    0.04898   0.11184   0.16376   0.21296   0.23675
 Alpha virt. eigenvalues --    0.25235   0.27222   0.27455   0.28065   0.28454
 Alpha virt. eigenvalues --    0.29048   0.30854   0.32142   0.32463   0.32636

 Mulliken charges:
               1
     1  C   -0.170595
     2  C   -0.218495
     3  C   -0.170599
     4  C    0.157920
     5  C   -0.170590
     6  C   -0.218551
     7  H    0.226040
     8  H    0.223815
     9  H    0.275152
    10  H    0.275964
    11  H    0.223881
    12  N    0.491276
    13  O   -0.458227
    14  O   -0.463104
    15  C   -0.297638
    16  C   -0.298880
    17  C   -0.475121
    18  H    0.146212
    19  H    0.147300
    20  H    0.151668
    21  H    0.152387
    22  H    0.154286
    23  H    0.153248
    24  H    0.158435
    25  C   -0.298538
    26  C   -0.298873
    27  C   -0.483847
    28  H    0.156671
    29  H    0.150544
    30  H    0.145876
    31  H    0.146940
    32  H    0.155712
    33  H    0.178488
    34  H    0.151244
 Sum of Mulliken charges =  -0.00000

 Dipole moment (field-independent basis, Debye):
    X=              4.3332    Y=             -2.7784    Z=              1.7882  Tot=              5.4492
 Quadrupole moment (field-independent basis, Debye-Ang):
   XX=            -69.2100   YY=            -94.0496   ZZ=            -95.1038
   XY=             -7.8371   XZ=              3.7870   YZ=             -1.6721

 Normal termination of Gaussian 16 at Thu May  6 06:15:49 2021.
