 Gaussian 16, Revision A.03,
 Gaussian 16:  EM64L-G16RevA.03 25-Dec-2016

 -------------
 #p 6-31g* mp2
 -------------

 ------------------------------------------------------
 Input file generated by CHIRIPA (05-May-2021 14:53:15)
 ------------------------------------------------------
 Symbolic Z-matrix:
 Charge =  0 Multiplicity = 1

                         Standard orientation:
 ---------------------------------------------------------------------
 Center     Atomic      Atomic             Coordinates (Angstroms)
 Number     Number       Type             X           Y           Z
 ---------------------------------------------------------------------
      1          6           0       -3.368113   -0.427110    0.238974
      2          6           0       -3.237335   -1.645790   -0.675194
      3          6           0       -3.317504   -2.968399    0.087743
      4          1           0       -2.576969   -0.461331    1.000462
      5          1           0       -4.323778   -0.482968    0.778399
      6          1           0       -2.282824   -1.586942   -1.213767
      7          1           0       -4.028766   -1.608564   -1.434712
      8          1           0       -4.274911   -3.053348    0.611916
      9          1           0       -2.519048   -3.031603    0.834117
     10          1           0       -3.221746   -3.826373   -0.584990
     11          6           0       -3.289910    0.902543   -0.509114
     12          6           0       -3.420688    2.121222    0.405054
     13          6           0       -3.340519    3.443831   -0.357884
     14          1           0       -2.334246    0.958400   -1.048540
     15          1           0       -4.081055    0.936763   -1.270603
     16          1           0       -2.629257    2.083996    1.164571
     17          1           0       -4.375200    2.062374    0.943626
     18          1           0       -4.138975    3.507035   -1.104257
     19          1           0       -2.383113    3.528780   -0.882057
     20          1           0       -3.436277    4.301805    0.314850
     21          6           0        4.851042    0.767814   -0.521431
     22          6           0        4.362386    0.924353    0.779811
     23          6           0        3.116899    0.400190    1.138368
     24          6           0        2.383245   -0.277900    0.166135
     25          6           0        2.842909   -0.450328   -1.138575
     26          6           0        4.091084    0.082181   -1.474790
     27          1           0        5.819610    1.178238   -0.791290
     28          1           0        4.950404    1.456361    1.522271
     29          1           0        2.714600    0.506852    2.138467
     30          1           0        2.233829   -0.985554   -1.856887
     31          1           0        4.468066   -0.040913   -2.486115
     32          7           0        1.063280   -0.837225    0.533898
     33          8           0        0.436274   -1.430490   -0.341052
     34          8           0        0.680692   -0.671769    1.690136
 ---------------------------------------------------------------------

 SCF Done:  E(RHF) =  -669.536916347     A.U. after   15 cycles
 E2 =    -0.2091974398D+01 EUMP2 =    -0.67162889074554D+03

 The electronic state is 1-A.
 Alpha  occ. eigenvalues --  -20.61164 -20.61159 -15.86167 -11.31416 -11.27967
 Alpha  occ. eigenvalues --  -11.27963 -11.27691 -11.26956 -11.26946 -11.20655
 Alpha  occ. eigenvalues --  -11.20399 -11.20193 -11.19825 -11.19731 -11.19415
 Alpha  occ. eigenvalues --   -1.60202  -1.39761  -1.19574  -1.08993  -1.07078
 Alpha  occ. eigenvalues --   -1.04958  -1.02214  -0.95845  -0.94710  -0.86362
 Alpha  occ. eigenvalues --   -0.85734  -0.82683  -0.78348  -0.77745  -0.76820
 Alpha  occ. eigenvalues --   -0.72385  -0.71509  -0.70681  -0.65232  -0.64963
 Alpha  occ. eigenvalues --   -0.63686  -0.62305  -0.59585  -0.58139  -0.56309
 Alpha  occ. eigenvalues --   -0.55463  -0.53988  -0.53293  -0.53048  -0.51463
 Alpha  occ. eigenvalues --   -0.51135  -0.49173  -0.49142  -0.48607  -0.46655
 Alpha  occ. eigenvalues --   -0.45388  -0.45209  -0.44364  -0.44137  -0.42467
 Alpha  occ. eigenvalues --   -0.37548  -0.36555
 Alpha virt. eigenvalues --    0.04756   0.11101   0.16258   0.21228   0.24119
 Alpha virt. eigenvalues --    0.25662   0.27170   0.27803   0.28349   0.28797
 Alpha virt. eigenvalues --    0.29195   0.30851   0.32297   0.32668   0.32856

 Mulliken charges:
               1
     1  C   -0.302647
     2  C   -0.300832
     3  C   -0.476210
     4  H    0.167219
     5  H    0.141637
     6  H    0.169648
     7  H    0.140211
     8  H    0.146590
     9  H    0.167005
    10  H    0.153253
    11  C   -0.297116
    12  C   -0.299651
    13  C   -0.474481
    14  H    0.148408
    15  H    0.144442
    16  H    0.154269
    17  H    0.149909
    18  H    0.153368
    19  H    0.151758
    20  H    0.156779
    21  C   -0.170281
    22  C   -0.218593
    23  C   -0.170373
    24  C    0.157777
    25  C   -0.170637
    26  C   -0.218559
    27  H    0.226510
    28  H    0.224296
    29  H    0.276082
    30  H    0.275949
    31  H    0.224327
    32  N    0.491088
    33  O   -0.461582
    34  O   -0.459562
 Sum of Mulliken charges =  -0.00000

 Dipole moment (field-independent basis, Debye):
    X=              5.1231    Y=              1.8826    Z=             -1.2063  Tot=              5.5898
 Quadrupole moment (field-independent basis, Debye-Ang):
   XX=            -73.5574   YY=            -97.8422   ZZ=            -91.1052
   XY=              3.7674   XZ=             -1.9862   YZ=              3.0014

 Normal termination of Gaussian 16 at Thu May  6 10:37:15 2021.
