 Gaussian 16, Revision A.03,
 Gaussian 16:  EM64L-G16RevA.03 25-Dec-2016

 -------------
 #p 6-31g* mp2
 -------------

 ------------------------------------------------------
 Input file generated by CHIRIPA (05-May-2021 14:57:27)
 ------------------------------------------------------
 Symbolic Z-matrix:
 Charge =  0 Multiplicity = 1

                         Standard orientation:
 ---------------------------------------------------------------------
 Center     Atomic      Atomic             Coordinates (Angstroms)
 Number     Number       Type             X           Y           Z
 ---------------------------------------------------------------------
      1          6           0        0.944075   -1.517850   -0.695703
      2          6           0        0.880696   -0.482723    0.242922
      3          6           0        2.032982    0.224379    0.598999
      4          6           0        3.237367   -0.131738   -0.005922
      5          6           0        3.332815   -1.158118   -0.944391
      6          6           0        2.167775   -1.851655   -1.285324
      7          1           0        0.043997   -2.061875   -0.966430
      8          1           0       -0.068275   -0.221309    0.702446
      9          1           0        2.012419    1.030100    1.322745
     10          1           0        4.293238   -1.395769   -1.385444
     11          1           0        2.219984   -2.655091   -2.014577
     12          7           0        4.463992    0.609659    0.363025
     13          8           0        5.512863    0.276552   -0.184283
     14          8           0        4.353323    1.509834    1.192527
     15          6           0       -3.381238   -2.019425    1.105016
     16          6           0       -2.930544   -0.952774    1.889651
     17          6           0       -2.735297    0.311178    1.324981
     18          6           0       -3.001751    0.473709   -0.033649
     19          6           0       -3.451708   -0.569330   -0.841670
     20          6           0       -3.639925   -1.824642   -0.255742
     21          1           0       -3.530181   -2.997937    1.551924
     22          1           0       -2.728839   -1.101129    2.946699
     23          1           0       -2.387196    1.154318    1.909239
     24          1           0       -3.644283   -0.390709   -1.892588
     25          1           0       -3.990026   -2.651196   -0.867529
     26          7           0       -2.798772    1.807225   -0.642693
     27          8           0       -3.040690    1.924468   -1.842012
     28          8           0       -2.401603    2.709941    0.090789
 ---------------------------------------------------------------------

 SCF Done:  E(RHF) =  -868.337073671     A.U. after   16 cycles
 E2 =    -0.2602139295D+01 EUMP2 =    -0.87093921296554D+03

 The electronic state is 1-A.
 Alpha  occ. eigenvalues --  -20.61670 -20.61664 -20.60599 -20.60591 -15.86734
 Alpha  occ. eigenvalues --  -15.85650 -11.32378 -11.31024 -11.28936 -11.28922
 Alpha  occ. eigenvalues --  -11.28676 -11.28001 -11.27983 -11.27612 -11.27567
 Alpha  occ. eigenvalues --  -11.27352 -11.26647 -11.26505  -1.60742  -1.59672
 Alpha  occ. eigenvalues --   -1.40288  -1.39226  -1.20586  -1.19197  -1.09889
 Alpha  occ. eigenvalues --   -1.08597  -1.06004  -1.04602  -0.96680  -0.95430
 Alpha  occ. eigenvalues --   -0.87354  -0.86007  -0.83491  -0.82265  -0.78511
 Alpha  occ. eigenvalues --   -0.77312  -0.72933  -0.72090  -0.71869  -0.71596
 Alpha  occ. eigenvalues --   -0.70994  -0.70325  -0.66183  -0.65930  -0.64851
 Alpha  occ. eigenvalues --   -0.64658  -0.63298  -0.61988  -0.56410  -0.55134
 Alpha  occ. eigenvalues --   -0.54418  -0.54026  -0.52935  -0.52577  -0.49716
 Alpha  occ. eigenvalues --   -0.49681  -0.48629  -0.48624  -0.45628  -0.44629
 Alpha  occ. eigenvalues --   -0.38565  -0.37626  -0.37168  -0.36193
 Alpha virt. eigenvalues --    0.03974   0.05228   0.09933   0.11436   0.15446
 Alpha virt. eigenvalues --    0.16723   0.20333   0.21652   0.26138   0.27132
 Alpha virt. eigenvalues --    0.27789   0.28240   0.30015   0.31068   0.31721

 Mulliken charges:
               1
     1  C   -0.175138
     2  C   -0.224209
     3  C   -0.172179
     4  C    0.159098
     5  C   -0.171178
     6  C   -0.218192
     7  H    0.222522
     8  H    0.230708
     9  H    0.276617
    10  H    0.275063
    11  H    0.221458
    12  N    0.488113
    13  O   -0.461169
    14  O   -0.459717
    15  C   -0.172925
    16  C   -0.215918
    17  C   -0.192643
    18  C    0.164560
    19  C   -0.173741
    20  C   -0.221864
    21  H    0.230352
    22  H    0.229392
    23  H    0.279430
    24  H    0.279524
    25  H    0.227284
    26  N    0.488640
    27  O   -0.456263
    28  O   -0.457627
 Sum of Mulliken charges =  -0.00000

 Dipole moment (field-independent basis, Debye):
    X=             -5.3483    Y=             -7.2367    Z=              0.8578  Tot=              9.0394
 Quadrupole moment (field-independent basis, Debye-Ang):
   XX=           -127.1048   YY=           -107.1827   ZZ=            -99.3842
   XY=              5.1011   XZ=            -11.1346   YZ=              5.1174

 Normal termination of Gaussian 16 at Thu May  6 14:50:07 2021.
