 Gaussian 16, Revision A.03,
 Gaussian 16:  EM64L-G16RevA.03 25-Dec-2016

 -------------
 #p 6-31g* mp2
 -------------

 ------------------------------------------------------
 Input file generated by CHIRIPA (05-May-2021 14:55:23)
 ------------------------------------------------------
 Symbolic Z-matrix:
 Charge =  0 Multiplicity = 1

                         Standard orientation:
 ---------------------------------------------------------------------
 Center     Atomic      Atomic             Coordinates (Angstroms)
 Number     Number       Type             X           Y           Z
 ---------------------------------------------------------------------
      1          6           0       -5.004449   -1.031307   -0.701591
      2          6           0       -4.462492    0.104978   -1.311230
      3          6           0       -3.265331    0.657437   -0.846319
      4          6           0       -2.633827    0.045206    0.235192
      5          6           0       -3.148652   -1.087580    0.863716
      6          6           0       -4.346958   -1.622917    0.382025
      7          1           0       -5.934877   -1.453820   -1.069263
      8          1           0       -4.970928    0.566538   -2.152955
      9          1           0       -2.823584    1.536514   -1.299640
     10          1           0       -2.618848   -1.525470    1.700960
     11          1           0       -4.765524   -2.505434    0.857433
     12          7           0       -1.365841    0.621006    0.736255
     13          8           0       -0.828879    0.062873    1.690612
     14          8           0       -0.932964    1.619548    0.165144
     15          6           0        3.737390   -0.601243   -0.558225
     16          6           0        4.574596   -1.606057    0.233874
     17          6           0        4.763026   -2.931230   -0.505182
     18          1           0        2.755811   -1.043393   -0.777205
     19          1           0        4.220082   -0.415993   -1.527805
     20          1           0        4.091194   -1.788305    1.202237
     21          1           0        5.554226   -1.161392    0.451159
     22          1           0        5.266108   -2.769441   -1.464001
     23          1           0        3.794764   -3.399916   -0.708656
     24          1           0        5.364393   -3.634741    0.079017
     25          6           0        3.540196    0.728458    0.167540
     26          6           0        2.702990    1.733272   -0.624559
     27          6           0        2.514559    3.058444    0.114497
     28          1           0        3.057503    0.543208    1.137120
     29          1           0        4.521774    1.170607    0.386520
     30          1           0        1.723359    1.288607   -0.841845
     31          1           0        3.186392    1.915520   -1.592922
     32          1           0        3.482822    3.527130    0.317972
     33          1           0        2.011478    2.896655    1.073316
     34          1           0        1.913193    3.761956   -0.469702
 ---------------------------------------------------------------------

 SCF Done:  E(RHF) =  -669.536434905     A.U. after   15 cycles
 E2 =    -0.2091530825D+01 EUMP2 =    -0.67162796573007D+03

 The electronic state is 1-A.
 Alpha  occ. eigenvalues --  -20.61080 -20.61058 -15.86083 -11.31367 -11.27923
 Alpha  occ. eigenvalues --  -11.27920 -11.27653 -11.26920 -11.26910 -11.20752
 Alpha  occ. eigenvalues --  -11.20431 -11.20345 -11.19997 -11.19912 -11.19337
 Alpha  occ. eigenvalues --   -1.60123  -1.39679  -1.19530  -1.08942  -1.07219
 Alpha  occ. eigenvalues --   -1.04919  -1.02281  -0.95790  -0.94760  -0.86321
 Alpha  occ. eigenvalues --   -0.85789  -0.82624  -0.78418  -0.77684  -0.76977
 Alpha  occ. eigenvalues --   -0.72303  -0.71434  -0.70638  -0.65186  -0.64923
 Alpha  occ. eigenvalues --   -0.63836  -0.62266  -0.59654  -0.58202  -0.56359
 Alpha  occ. eigenvalues --   -0.55425  -0.54045  -0.53253  -0.53009  -0.51484
 Alpha  occ. eigenvalues --   -0.51197  -0.49071  -0.49053  -0.48687  -0.46727
 Alpha  occ. eigenvalues --   -0.45526  -0.45109  -0.44512  -0.44272  -0.42554
 Alpha  occ. eigenvalues --   -0.37505  -0.36518
 Alpha virt. eigenvalues --    0.04813   0.11138   0.16308   0.21272   0.24010
 Alpha virt. eigenvalues --    0.25603   0.27201   0.27785   0.28227   0.28683
 Alpha virt. eigenvalues --    0.29146   0.30852   0.32349   0.32629   0.32817

 Mulliken charges:
               1
     1  C   -0.170410
     2  C   -0.218549
     3  C   -0.170689
     4  C    0.158025
     5  C   -0.170698
     6  C   -0.218579
     7  H    0.226303
     8  H    0.224151
     9  H    0.276081
    10  H    0.275878
    11  H    0.224082
    12  N    0.488244
    13  O   -0.459700
    14  O   -0.458496
    15  C   -0.296557
    16  C   -0.299180
    17  C   -0.474826
    18  H    0.148230
    19  H    0.145258
    20  H    0.153630
    21  H    0.150045
    22  H    0.153219
    23  H    0.153170
    24  H    0.157523
    25  C   -0.299928
    26  C   -0.301001
    27  C   -0.470921
    28  H    0.158575
    29  H    0.143561
    30  H    0.165388
    31  H    0.141057
    32  H    0.143741
    33  H    0.166907
    34  H    0.156464
 Sum of Mulliken charges =  -0.00000

 Dipole moment (field-independent basis, Debye):
    X=             -4.8924    Y=             -2.0152    Z=             -1.6403  Tot=              5.5396
 Quadrupole moment (field-independent basis, Debye-Ang):
   XX=            -72.4892   YY=            -94.2399   ZZ=            -93.6180
   XY=              5.5643   XZ=              4.1217   YZ=             -3.9647

 Normal termination of Gaussian 16 at Thu May  6 19:17:26 2021.
