 Gaussian 16, Revision A.03,
 Gaussian 16:  EM64L-G16RevA.03 25-Dec-2016

 -------------
 #p 6-31g* mp2
 -------------

 ------------------------------------------------------
 Input file generated by CHIRIPA (05-May-2021 14:51:14)
 ------------------------------------------------------
 Symbolic Z-matrix:
 Charge =  0 Multiplicity = 1

                         Standard orientation:
 ---------------------------------------------------------------------
 Center     Atomic      Atomic             Coordinates (Angstroms)
 Number     Number       Type             X           Y           Z
 ---------------------------------------------------------------------
      1          6           0       -3.099665   -0.338529    0.292835
      2          6           0       -2.178504    0.806431    0.715344
      3          6           0       -0.735813    0.352423    0.939647
      4          1           0       -3.075898   -1.122664    1.061933
      5          1           0       -2.709714   -0.792607   -0.628657
      6          1           0       -2.570837    1.259107    1.635005
      7          1           0       -2.204615    1.588017   -0.054758
      8          1           0       -0.321302   -0.080423    0.023444
      9          1           0       -0.689605   -0.411202    1.722808
     10          1           0       -0.094653    1.186669    1.240991
     11          6           0       -4.545267    0.099614    0.064814
     12          6           0       -5.466427   -1.045346   -0.357695
     13          6           0       -6.909119   -0.591338   -0.581998
     14          1           0       -4.935217    0.553692    0.986305
     15          1           0       -4.569034    0.883749   -0.704284
     16          1           0       -5.440317   -1.826932    0.412407
     17          1           0       -5.074094   -1.498022   -1.277356
     18          1           0       -6.955326    0.172287   -1.365159
     19          1           0       -7.323629   -0.158492    0.334204
     20          1           0       -7.550279   -1.425584   -0.883342
     21          6           0        3.232627    0.567452   -0.365433
     22          6           0        3.480509    2.048244   -0.075961
     23          6           0        2.291451    2.931729   -0.454627
     24          1           0        3.006110    0.442011   -1.433094
     25          1           0        2.340073    0.237959    0.184274
     26          1           0        4.373131    2.374497   -0.624960
     27          1           0        3.706650    2.170150    0.991098
     28          1           0        1.397445    2.634161    0.102873
     29          1           0        2.067714    2.839669   -1.522367
     30          1           0        2.490175    3.986251   -0.239329
     31          6           0        4.412304   -0.328537    0.007784
     32          6           0        4.164423   -1.809329   -0.281688
     33          6           0        5.353480   -2.692815    0.096979
     34          1           0        5.304858    0.000956   -0.541922
     35          1           0        4.638821   -0.203096    1.075445
     36          1           0        3.938282   -1.931235   -1.348748
     37          1           0        3.271800   -2.135582    0.267311
     38          1           0        5.577218   -2.600754    1.164718
     39          1           0        6.247487   -2.395246   -0.460523
     40          1           0        5.154756   -3.747336   -0.118319
 ---------------------------------------------------------------------

 SCF Done:  E(RHF) =  -470.732816858     A.U. after   11 cycles
 E2 =    -0.1583106055D+01 EUMP2 =    -0.47231592291345D+03

 The electronic state is 1-A.
 Alpha  occ. eigenvalues --  -11.21635 -11.21612 -11.21552 -11.21539 -11.21424
 Alpha  occ. eigenvalues --  -11.21364 -11.21323 -11.21244 -11.21121 -11.21078
 Alpha  occ. eigenvalues --  -11.21034 -11.20995  -1.08454  -1.08360  -1.03569
 Alpha  occ. eigenvalues --   -1.03465  -0.96019  -0.95919  -0.87042  -0.86938
 Alpha  occ. eigenvalues --   -0.79667  -0.79504  -0.78276  -0.78153  -0.65095
 Alpha  occ. eigenvalues --   -0.64989  -0.61002  -0.60871  -0.59450  -0.59223
 Alpha  occ. eigenvalues --   -0.57712  -0.57457  -0.55299  -0.55217  -0.52764
 Alpha  occ. eigenvalues --   -0.52617  -0.52526  -0.52242  -0.49967  -0.49862
 Alpha  occ. eigenvalues --   -0.47946  -0.47826  -0.46699  -0.46534  -0.45854
 Alpha  occ. eigenvalues --   -0.45751  -0.45689  -0.45543  -0.43759  -0.43707
 Alpha virt. eigenvalues --    0.21621   0.22979   0.23581   0.24972   0.25920
 Alpha virt. eigenvalues --    0.26629   0.26887   0.27240   0.27968   0.29322
 Alpha virt. eigenvalues --    0.30036   0.31321   0.31631   0.31832   0.32060

 Mulliken charges:
               1
     1  C   -0.298678
     2  C   -0.300559
     3  C   -0.481248
     4  H    0.149634
     5  H    0.149840
     6  H    0.151913
     7  H    0.152959
     8  H    0.157980
     9  H    0.154970
    10  H    0.163653
    11  C   -0.298332
    12  C   -0.299666
    13  C   -0.475721
    14  H    0.149556
    15  H    0.149834
    16  H    0.151924
    17  H    0.151991
    18  H    0.155241
    19  H    0.155192
    20  H    0.160290
    21  C   -0.305506
    22  C   -0.299024
    23  C   -0.481152
    24  H    0.148428
    25  H    0.159280
    26  H    0.151579
    27  H    0.151296
    28  H    0.160641
    29  H    0.154691
    30  H    0.159712
    31  C   -0.297842
    32  C   -0.299714
    33  C   -0.475628
    34  H    0.149123
    35  H    0.149386
    36  H    0.151567
    37  H    0.152174
    38  H    0.155111
    39  H    0.155067
    40  H    0.160038
 Sum of Mulliken charges =  -0.00000

 Dipole moment (field-independent basis, Debye):
    X=             -0.0520    Y=             -0.0144    Z=              0.0103  Tot=              0.0549
 Quadrupole moment (field-independent basis, Debye-Ang):
   XX=            -86.5700   YY=            -85.4783   ZZ=            -83.0127
   XY=              0.8117   XZ=             -0.9122   YZ=             -0.0838

 Normal termination of Gaussian 16 at Thu May  6 02:25:50 2021.
