 Gaussian 16, Revision A.03,
 Gaussian 16:  EM64L-G16RevA.03 25-Dec-2016

 -------------
 #p 6-31g* mp2
 -------------

 ------------------------------------------------------
 Input file generated by CHIRIPA (05-May-2021 14:57:24)
 ------------------------------------------------------
 Symbolic Z-matrix:
 Charge =  0 Multiplicity = 1

                         Standard orientation:
 ---------------------------------------------------------------------
 Center     Atomic      Atomic             Coordinates (Angstroms)
 Number     Number       Type             X           Y           Z
 ---------------------------------------------------------------------
      1          6           0        3.148341    2.595695    0.734568
      2          6           0        4.364588    2.227779    0.149844
      3          6           0        4.600284    0.901347   -0.223753
      4          6           0        3.593198   -0.035492    0.002961
      5          6           0        2.370998    0.299996    0.583448
      6          6           0        2.157175    1.632328    0.949125
      7          1           0        2.973743    3.628391    1.021711
      8          1           0        5.136150    2.973816   -0.017981
      9          1           0        5.532665    0.589098   -0.678269
     10          1           0        1.620932   -0.466094    0.738129
     11          1           0        1.211658    1.915183    1.403036
     12          7           0        3.831140   -1.442848   -0.388358
     13          8           0        2.927799   -2.249290   -0.177971
     14          8           0        4.916476   -1.712844   -0.898050
     15          6           0       -1.958685   -2.086042    0.432966
     16          6           0       -1.523305   -0.978430   -0.301989
     17          6           0       -2.398535    0.074342   -0.585172
     18          6           0       -3.708209   -0.013780   -0.115834
     19          6           0       -4.171890   -1.103957    0.618881
     20          6           0       -3.279260   -2.145167    0.890249
     21          1           0       -1.272027   -2.899370    0.648360
     22          1           0       -0.498288   -0.929811   -0.658392
     23          1           0       -2.087862    0.943612   -1.151980
     24          1           0       -5.199571   -1.123950    0.960773
     25          1           0       -3.620148   -3.004117    1.461252
     26          7           0       -4.643986    1.094622   -0.409372
     27          8           0       -5.792835    0.992950    0.015416
     28          8           0       -4.210881    2.044073   -1.058680
 ---------------------------------------------------------------------

 SCF Done:  E(RHF) =  -868.338782260     A.U. after   16 cycles
 E2 =    -0.2599421918D+01 EUMP2 =    -0.87093820417763D+03

 The electronic state is 1-A.
 Alpha  occ. eigenvalues --  -20.61564 -20.61513 -20.60969 -20.60957 -15.86587
 Alpha  occ. eigenvalues --  -15.86019 -11.31863 -11.31360 -11.28457 -11.28355
 Alpha  occ. eigenvalues --  -11.28054 -11.27959 -11.27920 -11.27584 -11.27385
 Alpha  occ. eigenvalues --  -11.27343 -11.26905 -11.26875  -1.60608  -1.60043
 Alpha  occ. eigenvalues --   -1.40170  -1.39597  -1.20004  -1.19527  -1.09401
 Alpha  occ. eigenvalues --   -1.08905  -1.05395  -1.04930  -0.96262  -0.95745
 Alpha  occ. eigenvalues --   -0.86795  -0.86311  -0.83099  -0.82583  -0.78186
 Alpha  occ. eigenvalues --   -0.77647  -0.72808  -0.72234  -0.71926  -0.71369
 Alpha  occ. eigenvalues --   -0.71101  -0.70572  -0.65651  -0.65422  -0.65164
 Alpha  occ. eigenvalues --   -0.64888  -0.62791  -0.62219  -0.55857  -0.55345
 Alpha  occ. eigenvalues --   -0.53727  -0.53513  -0.53252  -0.52950  -0.49579
 Alpha  occ. eigenvalues --   -0.49540  -0.48995  -0.48988  -0.45594  -0.45009
 Alpha  occ. eigenvalues --   -0.37949  -0.37481  -0.37004  -0.36547
 Alpha virt. eigenvalues --    0.04321   0.04888   0.10576   0.11012   0.15885
 Alpha virt. eigenvalues --    0.16371   0.19990   0.21863   0.25682   0.27239
 Alpha virt. eigenvalues --    0.28034   0.28898   0.30426   0.30967   0.31673

 Mulliken charges:
               1
     1  C   -0.170141
     2  C   -0.217679
     3  C   -0.170445
     4  C    0.160049
     5  C   -0.178253
     6  C   -0.219715
     7  H    0.229583
     8  H    0.226434
     9  H    0.277285
    10  H    0.270213
    11  H    0.227449
    12  N    0.488914
    13  O   -0.468170
    14  O   -0.455730
    15  C   -0.172703
    16  C   -0.228839
    17  C   -0.173654
    18  C    0.158273
    19  C   -0.170650
    20  C   -0.218876
    21  H    0.235026
    22  H    0.229265
    23  H    0.274349
    24  H    0.276110
    25  H    0.225265
    26  N    0.488078
    27  O   -0.459658
    28  O   -0.461780
 Sum of Mulliken charges =  -0.00000

 Dipole moment (field-independent basis, Debye):
    X=              2.6179    Y=              1.1007    Z=              2.4437  Tot=              3.7466
 Quadrupole moment (field-independent basis, Debye-Ang):
   XX=           -127.9263   YY=           -104.0485   ZZ=           -104.6640
   XY=             36.5813   XZ=             -3.1802   YZ=             -1.3476

 Normal termination of Gaussian 16 at Wed May  5 16:24:19 2021.
