 Gaussian 16, Revision A.03,
 Gaussian 16:  EM64L-G16RevA.03 25-Dec-2016

 -------------
 #p 6-31g* mp2
 -------------

 ------------------------------------------------------
 Input file generated by CHIRIPA (05-May-2021 14:55:23)
 ------------------------------------------------------
 Symbolic Z-matrix:
 Charge =  0 Multiplicity = 1

                         Standard orientation:
 ---------------------------------------------------------------------
 Center     Atomic      Atomic             Coordinates (Angstroms)
 Number     Number       Type             X           Y           Z
 ---------------------------------------------------------------------
      1          6           0        0.881323   -2.403291    0.452080
      2          6           0        1.660652   -1.840799    1.468333
      3          6           0        2.413001   -0.686818    1.229908
      4          6           0        2.362479   -0.118965   -0.042208
      5          6           0        1.595734   -0.655712   -1.075309
      6          6           0        0.851404   -1.809998   -0.814265
      7          1           0        0.299994   -3.299850    0.646079
      8          1           0        1.685803   -2.299408    2.452757
      9          1           0        3.024908   -0.230464    1.998496
     10          1           0        1.590849   -0.175881   -2.046471
     11          1           0        0.247066   -2.244646   -1.605404
     12          7           0        3.154713    1.102865   -0.306591
     13          8           0        3.093159    1.584007   -1.435905
     14          8           0        3.822217    1.556257    0.620507
     15          6           0       -3.075438    1.045319    0.361652
     16          6           0       -2.401214    2.310509   -0.170045
     17          6           0       -2.848727    3.573166    0.566990
     18          1           0       -4.165245    1.154686    0.276183
     19          1           0       -2.854628    0.943223    1.433200
     20          1           0       -2.622086    2.409447   -1.240578
     21          1           0       -1.312879    2.198039   -0.083477
     22          1           0       -2.613601    3.500299    1.633764
     23          1           0       -3.930246    3.712908    0.470088
     24          1           0       -2.354480    4.465719    0.170846
     25          6           0       -2.638249   -0.225255   -0.365147
     26          6           0       -3.312473   -1.490445    0.166549
     27          6           0       -2.864960   -2.753103   -0.570484
     28          1           0       -2.859060   -0.123160   -1.436695
     29          1           0       -1.548443   -0.334623   -0.279678
     30          1           0       -4.400808   -1.377975    0.079982
     31          1           0       -3.091601   -1.589383    1.237084
     32          1           0       -1.783442   -2.892845   -0.473582
     33          1           0       -3.100087   -2.680236   -1.637259
     34          1           0       -3.359208   -3.645655   -0.174341
 ---------------------------------------------------------------------

 SCF Done:  E(RHF) =  -669.533509421     A.U. after   15 cycles
 E2 =    -0.2094760786D+01 EUMP2 =    -0.67162827020730D+03

 The electronic state is 1-A.
 Alpha  occ. eigenvalues --  -20.60841 -20.60836 -15.85895 -11.31300 -11.27848
 Alpha  occ. eigenvalues --  -11.27838 -11.27572 -11.26880 -11.26831 -11.22210
 Alpha  occ. eigenvalues --  -11.22011 -11.21670 -11.21651 -11.21561 -11.21047
 Alpha  occ. eigenvalues --   -1.59916  -1.39468  -1.19475  -1.08902  -1.08726
 Alpha  occ. eigenvalues --   -1.04879  -1.03907  -0.96384  -0.95685  -0.87411
 Alpha  occ. eigenvalues --   -0.86277  -0.82515  -0.79997  -0.78538  -0.77548
 Alpha  occ. eigenvalues --   -0.72113  -0.71241  -0.70601  -0.65477  -0.65111
 Alpha  occ. eigenvalues --   -0.64860  -0.62245  -0.61289  -0.59760  -0.57956
 Alpha  occ. eigenvalues --   -0.55797  -0.55263  -0.53284  -0.53053  -0.53010
 Alpha  occ. eigenvalues --   -0.52751  -0.50340  -0.48877  -0.48864  -0.48281
 Alpha  occ. eigenvalues --   -0.47004  -0.46075  -0.45958  -0.44864  -0.44114
 Alpha  occ. eigenvalues --   -0.37401  -0.36388
 Alpha virt. eigenvalues --    0.04943   0.11069   0.16374   0.20601   0.22819
 Alpha virt. eigenvalues --    0.24213   0.26207   0.26375   0.27137   0.27711
 Alpha virt. eigenvalues --    0.29096   0.30381   0.31122   0.31637   0.32086

 Mulliken charges:
               1
     1  C   -0.171925
     2  C   -0.218919
     3  C   -0.171338
     4  C    0.158361
     5  C   -0.171518
     6  C   -0.219382
     7  H    0.228202
     8  H    0.224067
     9  H    0.275970
    10  H    0.276663
    11  H    0.228202
    12  N    0.488009
    13  O   -0.459816
    14  O   -0.460109
    15  C   -0.297584
    16  C   -0.300220
    17  C   -0.476025
    18  H    0.149312
    19  H    0.149136
    20  H    0.151917
    21  H    0.154218
    22  H    0.155196
    23  H    0.154278
    24  H    0.163632
    25  C   -0.308338
    26  C   -0.297764
    27  C   -0.480519
    28  H    0.146898
    29  H    0.160018
    30  H    0.154854
    31  H    0.150963
    32  H    0.144725
    33  H    0.156820
    34  H    0.162017
 Sum of Mulliken charges =  -0.00000

 Dipole moment (field-independent basis, Debye):
    X=             -2.7324    Y=             -4.2202    Z=              0.9422  Tot=              5.1150
 Quadrupole moment (field-independent basis, Debye-Ang):
   XX=           -107.6734   YY=            -95.4281   ZZ=            -90.1751
   XY=             -9.9603   XZ=              4.7260   YZ=             -0.5878

 Normal termination of Gaussian 16 at Thu May  6 20:51:53 2021.
