 Gaussian 16, Revision A.03,
 Gaussian 16:  EM64L-G16RevA.03 25-Dec-2016

 -------------
 #p 6-31g* mp2
 -------------

 ------------------------------------------------------
 Input file generated by CHIRIPA (05-May-2021 14:57:24)
 ------------------------------------------------------
 Symbolic Z-matrix:
 Charge =  0 Multiplicity = 1

                         Standard orientation:
 ---------------------------------------------------------------------
 Center     Atomic      Atomic             Coordinates (Angstroms)
 Number     Number       Type             X           Y           Z
 ---------------------------------------------------------------------
      1          6           0        1.325671   -0.219016    1.336980
      2          6           0        2.264289   -1.255387    1.375076
      3          6           0        3.524673   -1.093592    0.792150
      4          6           0        3.814232    0.123242    0.176715
      5          6           0        2.900431    1.174576    0.122334
      6          6           0        1.646173    0.990525    0.711832
      7          1           0        0.348953   -0.353347    1.792363
      8          1           0        2.018136   -2.195819    1.859887
      9          1           0        4.270174   -1.879353    0.807149
     10          1           0        3.174817    2.100605   -0.368177
     11          1           0        0.919206    1.797121    0.680727
     12          7           0        5.145301    0.306308   -0.443881
     13          8           0        5.375913    1.387999   -0.979978
     14          8           0        5.932779   -0.635363   -0.382457
     15          6           0       -5.722563    1.028241    0.483524
     16          6           0       -4.578658    1.793528    0.233847
     17          6           0       -3.394241    1.182892   -0.189032
     18          6           0       -3.389156   -0.201475   -0.352715
     19          6           0       -4.512405   -0.991205   -0.112029
     20          6           0       -5.685851   -0.359237    0.310094
     21          1           0       -6.638386    1.510884    0.811734
     22          1           0       -4.604258    2.871246    0.367693
     23          1           0       -2.494151    1.751302   -0.389446
     24          1           0       -4.456195   -2.063590   -0.254331
     25          1           0       -6.572701   -0.956089    0.503250
     26          7           0       -2.141074   -0.859220   -0.799998
     27          8           0       -2.162506   -2.080486   -0.936708
     28          8           0       -1.165028   -0.141042   -1.005400
 ---------------------------------------------------------------------

 SCF Done:  E(RHF) =  -868.337770430     A.U. after   16 cycles
 E2 =    -0.2600250945D+01 EUMP2 =    -0.87093802137466D+03

 The electronic state is 1-A.
 Alpha  occ. eigenvalues --  -20.61691 -20.61685 -20.59936 -20.59930 -15.86712
 Alpha  occ. eigenvalues --  -15.84985 -11.32013 -11.30143 -11.28600 -11.28529
 Alpha  occ. eigenvalues --  -11.28244 -11.27549 -11.27512 -11.26718 -11.26710
 Alpha  occ. eigenvalues --  -11.26423 -11.25687 -11.25672  -1.60763  -1.59015
 Alpha  occ. eigenvalues --   -1.40320  -1.38575  -1.20166  -1.18298  -1.09568
 Alpha  occ. eigenvalues --   -1.07724  -1.05551  -1.03694  -0.96418  -0.94603
 Alpha  occ. eigenvalues --   -0.86951  -0.85108  -0.83246  -0.81461  -0.78322
 Alpha  occ. eigenvalues --   -0.76536  -0.72934  -0.72117  -0.71257  -0.71212
 Alpha  occ. eigenvalues --   -0.70332  -0.69430  -0.65812  -0.65539  -0.63969
 Alpha  occ. eigenvalues --   -0.63727  -0.62902  -0.61079  -0.56028  -0.54226
 Alpha  occ. eigenvalues --   -0.53888  -0.53634  -0.51993  -0.51823  -0.49705
 Alpha  occ. eigenvalues --   -0.49665  -0.47976  -0.47952  -0.45734  -0.44029
 Alpha  occ. eigenvalues --   -0.38136  -0.37155  -0.36151  -0.35260
 Alpha virt. eigenvalues --    0.04160   0.06043   0.10493   0.12393   0.15717
 Alpha virt. eigenvalues --    0.17597   0.20418   0.22132   0.26068   0.27099
 Alpha virt. eigenvalues --    0.28518   0.28978   0.30441   0.31094   0.32604

 Mulliken charges:
               1
     1  C   -0.153768
     2  C   -0.217964
     3  C   -0.171094
     4  C    0.157909
     5  C   -0.172552
     6  C   -0.204282
     7  H    0.217927
     8  H    0.220911
     9  H    0.272545
    10  H    0.271275
    11  H    0.215210
    12  N    0.488351
    13  O   -0.463582
    14  O   -0.462994
    15  C   -0.170308
    16  C   -0.217942
    17  C   -0.173293
    18  C    0.156804
    19  C   -0.171034
    20  C   -0.218134
    21  H    0.228383
    22  H    0.225255
    23  H    0.271433
    24  H    0.277068
    25  H    0.226132
    26  N    0.486871
    27  O   -0.457137
    28  O   -0.461990
 Sum of Mulliken charges =  -0.00000

 Dipole moment (field-independent basis, Debye):
    X=             -9.5488    Y=              1.5881    Z=              3.7138  Tot=             10.3679
 Quadrupole moment (field-independent basis, Debye-Ang):
   XX=           -110.6157   YY=            -97.9008   ZZ=           -106.5387
   XY=             -9.3031   XZ=              3.8363   YZ=             -2.5577

 Normal termination of Gaussian 16 at Wed May  5 16:22:20 2021.
