 Gaussian 16, Revision A.03,
 Gaussian 16:  EM64L-G16RevA.03 25-Dec-2016

 -------------
 #p 6-31g* mp2
 -------------

 ------------------------------------------------------
 Input file generated by CHIRIPA (05-May-2021 14:51:13)
 ------------------------------------------------------
 Symbolic Z-matrix:
 Charge =  0 Multiplicity = 1

                         Standard orientation:
 ---------------------------------------------------------------------
 Center     Atomic      Atomic             Coordinates (Angstroms)
 Number     Number       Type             X           Y           Z
 ---------------------------------------------------------------------
      1          6           0       -2.503110   -1.535096   -0.049565
      2          6           0       -1.182868   -1.715929   -0.799394
      3          6           0       -0.708724   -3.169400   -0.819505
      4          1           0       -2.385052   -1.898051    0.980615
      5          1           0       -3.271687   -2.166036   -0.517111
      6          1           0       -0.417352   -1.083784   -0.331426
      7          1           0       -1.304026   -1.352324   -1.827853
      8          1           0       -1.451696   -3.810299   -1.305141
      9          1           0       -0.559984   -3.540233    0.199789
     10          1           0        0.236671   -3.275834   -1.360578
     11          6           0       -2.990110   -0.087432   -0.020794
     12          6           0       -4.310353    0.093401    0.729036
     13          6           0       -4.784496    1.546872    0.749147
     14          1           0       -2.221533    0.543508    0.446753
     15          1           0       -3.108168    0.275523   -1.050974
     16          1           0       -4.189194   -0.270204    1.757495
     17          1           0       -5.075868   -0.538744    0.261068
     18          1           0       -4.933236    1.917705   -0.270147
     19          1           0       -4.041524    2.187771    1.234782
     20          1           0       -5.729891    1.653306    1.290220
     21          6           0        2.224345    1.139085   -0.415604
     22          6           0        1.919616    2.588554   -0.035913
     23          6           0        0.872946    3.230744   -0.946884
     24          1           0        2.572182    1.104932   -1.457135
     25          1           0        1.294963    0.554139   -0.377106
     26          1           0        2.849542    3.170291   -0.073773
     27          1           0        1.572647    2.619283    1.004897
     28          1           0       -0.069471    2.675357   -0.902191
     29          1           0        1.214680    3.229496   -1.986988
     30          1           0        0.670297    4.266655   -0.657606
     31          6           0        3.268875    0.483443    0.485962
     32          6           0        3.573604   -0.966026    0.106272
     33          6           0        4.620274   -1.608216    1.017242
     34          1           0        4.198257    1.068389    0.447465
     35          1           0        2.921039    0.517596    1.527494
     36          1           0        3.920574   -0.996755   -0.934538
     37          1           0        2.643678   -1.547763    0.144131
     38          1           0        4.278540   -1.606967    2.057347
     39          1           0        5.562691   -1.052829    0.972549
     40          1           0        4.822923   -2.644127    0.727965
 ---------------------------------------------------------------------

 SCF Done:  E(RHF) =  -470.733391818     A.U. after   11 cycles
 E2 =    -0.1583468687D+01 EUMP2 =    -0.47231686050493D+03

 The electronic state is 1-A.
 Alpha  occ. eigenvalues --  -11.21642 -11.21640 -11.21600 -11.21589 -11.21463
 Alpha  occ. eigenvalues --  -11.21402 -11.21391 -11.21322 -11.21110 -11.21094
 Alpha  occ. eigenvalues --  -11.21070 -11.21041  -1.08488  -1.08418  -1.03572
 Alpha  occ. eigenvalues --   -1.03518  -0.96020  -0.95966  -0.87040  -0.86977
 Alpha  occ. eigenvalues --   -0.79654  -0.79572  -0.78375  -0.78159  -0.65224
 Alpha  occ. eigenvalues --   -0.64960  -0.60973  -0.60917  -0.59391  -0.59332
 Alpha  occ. eigenvalues --   -0.57647  -0.57561  -0.55325  -0.55241  -0.52714
 Alpha  occ. eigenvalues --   -0.52658  -0.52473  -0.52363  -0.50014  -0.49868
 Alpha  occ. eigenvalues --   -0.48012  -0.47870  -0.46806  -0.46608  -0.46120
 Alpha  occ. eigenvalues --   -0.45796  -0.45751  -0.45202  -0.43826  -0.43771
 Alpha virt. eigenvalues --    0.20219   0.22771   0.23517   0.24263   0.25596
 Alpha virt. eigenvalues --    0.26852   0.27048   0.27370   0.27888   0.29547
 Alpha virt. eigenvalues --    0.31372   0.31570   0.31633   0.31779   0.32161

 Mulliken charges:
               1
     1  C   -0.297594
     2  C   -0.308903
     3  C   -0.476010
     4  H    0.149455
     5  H    0.149969
     6  H    0.159564
     7  H    0.152571
     8  H    0.155477
     9  H    0.154829
    10  H    0.161524
    11  C   -0.299605
    12  C   -0.299667
    13  C   -0.475819
    14  H    0.149322
    15  H    0.150200
    16  H    0.151978
    17  H    0.152246
    18  H    0.155444
    19  H    0.155291
    20  H    0.160401
    21  C   -0.307847
    22  C   -0.298869
    23  C   -0.477085
    24  H    0.149703
    25  H    0.158530
    26  H    0.151906
    27  H    0.151128
    28  H    0.156802
    29  H    0.155155
    30  H    0.160079
    31  C   -0.297581
    32  C   -0.302073
    33  C   -0.475606
    34  H    0.149641
    35  H    0.148947
    36  H    0.151955
    37  H    0.153924
    38  H    0.155016
    39  H    0.155243
    40  H    0.160360
 Sum of Mulliken charges =  -0.00000

 Dipole moment (field-independent basis, Debye):
    X=             -0.0267    Y=             -0.0183    Z=             -0.0185  Tot=              0.0373
 Quadrupole moment (field-independent basis, Debye-Ang):
   XX=            -84.7031   YY=            -86.0514   ZZ=            -83.9390
   XY=              1.2277   XZ=             -0.4023   YZ=              0.1894

 Normal termination of Gaussian 16 at Wed May  5 21:34:09 2021.
