 Gaussian 16, Revision A.03,
 Gaussian 16:  EM64L-G16RevA.03 25-Dec-2016

 -------------
 #p 6-31g* mp2
 -------------

 ------------------------------------------------------
 Input file generated by CHIRIPA (05-May-2021 14:53:12)
 ------------------------------------------------------
 Symbolic Z-matrix:
 Charge =  0 Multiplicity = 1

                         Standard orientation:
 ---------------------------------------------------------------------
 Center     Atomic      Atomic             Coordinates (Angstroms)
 Number     Number       Type             X           Y           Z
 ---------------------------------------------------------------------
      1          6           0        2.540858    0.792934   -0.440933
      2          6           0        3.177270    1.718309    0.596683
      3          6           0        3.031839    3.197461    0.237862
      4          1           0        3.000080    0.980796   -1.421120
      5          1           0        1.475799    1.043794   -0.541506
      6          1           0        4.240501    1.464860    0.696276
      7          1           0        2.716613    1.528088    1.574551
      8          1           0        1.975132    3.472421    0.158060
      9          1           0        3.507678    3.408835   -0.725205
     10          1           0        3.493769    3.841059    0.993020
     11          6           0        2.678053   -0.688979   -0.096203
     12          6           0        2.041641   -1.614354   -1.133818
     13          6           0        2.187072   -3.093507   -0.774998
     14          1           0        3.743112   -0.939839    0.004370
     15          1           0        2.218831   -0.876842    0.883984
     16          1           0        2.502298   -1.424133   -2.111687
     17          1           0        0.978410   -1.360906   -1.233412
     18          1           0        1.711233   -3.304880    0.188070
     19          1           0        3.243779   -3.368467   -0.695196
     20          1           0        1.725142   -3.737104   -1.530156
     21          6           0       -1.128998   -1.284566    2.207579
     22          6           0       -1.096007   -1.875795    0.940346
     23          6           0       -1.597197   -1.195814   -0.173649
     24          6           0       -2.126578    0.079655    0.016683
     25          6           0       -2.173574    0.695446    1.266436
     26          6           0       -1.666728   -0.003091    2.366300
     27          1           0       -0.737466   -1.819998    3.067469
     28          1           0       -0.678987   -2.870884    0.814104
     29          1           0       -1.584118   -1.629933   -1.166013
     30          1           0       -2.595489    1.688662    1.360905
     31          1           0       -1.693657    0.458537    3.349264
     32          7           0       -2.660158    0.809341   -1.155174
     33          8           0       -3.121301    1.931965   -0.961003
     34          8           0       -2.607132    0.244830   -2.245657
 ---------------------------------------------------------------------

 SCF Done:  E(RHF) =  -669.534417230     A.U. after   15 cycles
 E2 =    -0.2094817463D+01 EUMP2 =    -0.67162923469275D+03

 The electronic state is 1-A.
 Alpha  occ. eigenvalues --  -20.60860 -20.60855 -15.85917 -11.31327 -11.27880
 Alpha  occ. eigenvalues --  -11.27876 -11.27626 -11.26897 -11.26873 -11.21883
 Alpha  occ. eigenvalues --  -11.21726 -11.21717 -11.21623 -11.21462 -11.21099
 Alpha  occ. eigenvalues --   -1.59936  -1.39488  -1.19502  -1.08885  -1.08639
 Alpha  occ. eigenvalues --   -1.04917  -1.03789  -0.96259  -0.95712  -0.87275
 Alpha  occ. eigenvalues --   -0.86295  -0.82541  -0.79860  -0.78435  -0.77586
 Alpha  occ. eigenvalues --   -0.72131  -0.71264  -0.70601  -0.65362  -0.65127
 Alpha  occ. eigenvalues --   -0.64887  -0.62339  -0.61126  -0.59633  -0.57856
 Alpha  occ. eigenvalues --   -0.55610  -0.55340  -0.53234  -0.52999  -0.52954
 Alpha  occ. eigenvalues --   -0.52666  -0.50180  -0.48892  -0.48885  -0.48170
 Alpha  occ. eigenvalues --   -0.46893  -0.45974  -0.45898  -0.44879  -0.44021
 Alpha  occ. eigenvalues --   -0.37457  -0.36407
 Alpha virt. eigenvalues --    0.04922   0.11007   0.16341   0.20252   0.22914
 Alpha virt. eigenvalues --    0.24049   0.26062   0.26407   0.26882   0.28310
 Alpha virt. eigenvalues --    0.28977   0.30066   0.31322   0.31527   0.32157

 Mulliken charges:
               1
     1  C   -0.298823
     2  C   -0.299405
     3  C   -0.476173
     4  H    0.151840
     5  H    0.151800
     6  H    0.151303
     7  H    0.148775
     8  H    0.157403
     9  H    0.156982
    10  H    0.159301
    11  C   -0.297593
    12  C   -0.304119
    13  C   -0.478637
    14  H    0.149005
    15  H    0.146427
    16  H    0.156111
    17  H    0.154972
    18  H    0.144513
    19  H    0.159605
    20  H    0.160216
    21  C   -0.172615
    22  C   -0.215688
    23  C   -0.174468
    24  C    0.158617
    25  C   -0.171835
    26  C   -0.218221
    27  H    0.226390
    28  H    0.228887
    29  H    0.277125
    30  H    0.276137
    31  H    0.224121
    32  N    0.487979
    33  O   -0.460050
    34  O   -0.459882
 Sum of Mulliken charges =  -0.00000

 Dipole moment (field-independent basis, Debye):
    X=              1.8296    Y=             -2.4959    Z=              4.0873  Tot=              5.1267
 Quadrupole moment (field-independent basis, Debye-Ang):
   XX=           -102.4476   YY=            -93.8490   ZZ=            -92.9611
   XY=              4.7198   XZ=            -10.3012   YZ=              2.9922

 Normal termination of Gaussian 16 at Thu May  6 11:58:58 2021.
