 Gaussian 16, Revision A.03,
 Gaussian 16:  EM64L-G16RevA.03 25-Dec-2016

 -------------
 #p 6-31g* mp2
 -------------

 ------------------------------------------------------
 Input file generated by CHIRIPA (05-May-2021 14:55:21)
 ------------------------------------------------------
 Symbolic Z-matrix:
 Charge =  0 Multiplicity = 1

                         Standard orientation:
 ---------------------------------------------------------------------
 Center     Atomic      Atomic             Coordinates (Angstroms)
 Number     Number       Type             X           Y           Z
 ---------------------------------------------------------------------
      1          6           0       -4.247323   -0.779992   -1.650673
      2          6           0       -4.731784   -0.538253   -0.360952
      3          6           0       -3.867393   -0.121092    0.655587
      4          6           0       -2.518391    0.045029    0.345930
      5          6           0       -2.005425   -0.187794   -0.929198
      6          6           0       -2.888086   -0.604301   -1.930187
      7          1           0       -4.925900   -1.103798   -2.434305
      8          1           0       -5.786901   -0.673871   -0.140994
      9          1           0       -4.215723    0.073138    1.662741
     10          1           0       -0.948526   -0.043905   -1.118083
     11          1           0       -2.509046   -0.791296   -2.930890
     12          7           0       -1.593627    0.486312    1.413863
     13          8           0       -0.409466    0.625322    1.115407
     14          8           0       -2.070469    0.684825    2.529144
     15          6           0        2.920856    0.612626   -0.267803
     16          6           0        3.566981    1.936667   -0.676976
     17          6           0        2.558386    3.081764   -0.773322
     18          1           0        2.138422    0.353826   -0.994275
     19          1           0        2.417882    0.741907    0.700546
     20          1           0        4.069763    1.804557   -1.643606
     21          1           0        4.348100    2.192250    0.050450
     22          1           0        2.064588    3.242310    0.190519
     23          1           0        1.784669    2.852414   -1.513161
     24          1           0        3.041660    4.018762   -1.067161
     25          6           0        3.916398   -0.541714   -0.167196
     26          6           0        3.270274   -1.865756    0.241977
     27          6           0        4.278870   -3.010853    0.338323
     28          1           0        4.419373   -0.670995   -1.135544
     29          1           0        4.698834   -0.282914    0.559277
     30          1           0        2.489155   -2.121338   -0.485448
     31          1           0        2.767492   -1.733645    1.208607
     32          1           0        5.052586   -2.781502    1.078162
     33          1           0        4.772668   -3.171398   -0.625518
     34          1           0        3.795595   -3.947850    0.632162
 ---------------------------------------------------------------------

 SCF Done:  E(RHF) =  -669.535852661     A.U. after   15 cycles
 E2 =    -0.2091623077D+01 EUMP2 =    -0.67162747573866D+03

 The electronic state is 1-A.
 Alpha  occ. eigenvalues --  -20.60866 -20.60861 -15.85907 -11.31244 -11.27812
 Alpha  occ. eigenvalues --  -11.27805 -11.27554 -11.26824 -11.26814 -11.20968
 Alpha  occ. eigenvalues --  -11.20844 -11.20675 -11.20596 -11.20365 -11.20307
 Alpha  occ. eigenvalues --   -1.59936  -1.39490  -1.19415  -1.08818  -1.07663
 Alpha  occ. eigenvalues --   -1.04815  -1.02841  -0.95660  -0.95280  -0.86302
 Alpha  occ. eigenvalues --   -0.86214  -0.82496  -0.78905  -0.77659  -0.77308
 Alpha  occ. eigenvalues --   -0.72128  -0.71250  -0.70525  -0.65072  -0.64822
 Alpha  occ. eigenvalues --   -0.64299  -0.62162  -0.60249  -0.58655  -0.56884
 Alpha  occ. eigenvalues --   -0.55320  -0.54571  -0.53145  -0.52908  -0.52019
 Alpha  occ. eigenvalues --   -0.51695  -0.49232  -0.48893  -0.48889  -0.47218
 Alpha  occ. eigenvalues --   -0.45942  -0.45023  -0.44915  -0.44793  -0.43067
 Alpha  occ. eigenvalues --   -0.37396  -0.36417
 Alpha virt. eigenvalues --    0.04986   0.11237   0.16477   0.20714   0.23218
 Alpha virt. eigenvalues --    0.24635   0.25649   0.27585   0.27900   0.28615
 Alpha virt. eigenvalues --    0.29298   0.31145   0.31789   0.32287   0.32632

 Mulliken charges:
               1
     1  C   -0.170445
     2  C   -0.218763
     3  C   -0.170365
     4  C    0.157113
     5  C   -0.172094
     6  C   -0.219309
     7  H    0.225806
     8  H    0.223613
     9  H    0.275679
    10  H    0.278528
    11  H    0.223712
    12  N    0.493818
    13  O   -0.465660
    14  O   -0.460071
    15  C   -0.301316
    16  C   -0.299719
    17  C   -0.474171
    18  H    0.139401
    19  H    0.176080
    20  H    0.145988
    21  H    0.150932
    22  H    0.165407
    23  H    0.148337
    24  H    0.155555
    25  C   -0.298395
    26  C   -0.298251
    27  C   -0.475254
    28  H    0.144107
    29  H    0.148929
    30  H    0.145279
    31  H    0.159882
    32  H    0.155255
    33  H    0.152288
    34  H    0.158104
 Sum of Mulliken charges =  -0.00000

 Dipole moment (field-independent basis, Debye):
    X=             -3.4421    Y=             -1.5022    Z=             -3.5380  Tot=              5.1597
 Quadrupole moment (field-independent basis, Debye-Ang):
   XX=            -76.7439   YY=            -97.0430   ZZ=            -94.8039
   XY=              4.5152   XZ=              6.4596   YZ=              0.0172

 Normal termination of Gaussian 16 at Thu May  6 01:24:14 2021.
