 Gaussian 16, Revision A.03,
 Gaussian 16:  EM64L-G16RevA.03 25-Dec-2016

 -------------
 #p 6-31g* mp2
 -------------

 ------------------------------------------------------
 Input file generated by CHIRIPA (05-May-2021 14:51:12)
 ------------------------------------------------------
 Symbolic Z-matrix:
 Charge =  0 Multiplicity = 1

                         Standard orientation:
 ---------------------------------------------------------------------
 Center     Atomic      Atomic             Coordinates (Angstroms)
 Number     Number       Type             X           Y           Z
 ---------------------------------------------------------------------
      1          6           0       -3.304510    0.442820   -0.276392
      2          6           0       -4.474802    1.407732   -0.083137
      3          6           0       -4.663987    2.352776   -1.270105
      4          1           0       -2.384001    1.020496   -0.437323
      5          1           0       -3.469231   -0.143865   -1.190756
      6          1           0       -4.308598    1.991453    0.831337
      7          1           0       -5.392600    0.827693    0.077544
      8          1           0       -4.854728    1.786031   -2.187176
      9          1           0       -3.764568    2.956403   -1.429101
     10          1           0       -5.505844    3.033789   -1.110859
     11          6           0       -3.102668   -0.508358    0.901847
     12          6           0       -1.932376   -1.473269    0.708592
     13          6           0       -1.743191   -2.418314    1.895561
     14          1           0       -2.937948    0.078327    1.816211
     15          1           0       -4.023178   -1.086034    1.062779
     16          1           0       -1.014578   -0.893231    0.547911
     17          1           0       -2.098580   -2.056991   -0.205881
     18          1           0       -2.642610   -3.021941    2.054556
     19          1           0       -1.552450   -1.851569    2.812631
     20          1           0       -0.901334   -3.099327    1.736314
     21          6           0        3.209304   -0.702550   -0.519380
     22          6           0        1.930107   -1.141947   -1.232521
     23          6           0        1.956643   -2.615477   -1.639704
     24          1           0        4.069947   -0.887351   -1.176713
     25          1           0        3.356998   -1.327670    0.372140
     26          1           0        1.784133   -0.515271   -2.121670
     27          1           0        1.072389   -0.955900   -0.573488
     28          1           0        2.077906   -3.256065   -0.760191
     29          1           0        2.793693   -2.812932   -2.317169
     30          1           0        1.032570   -2.908272   -2.147859
     31          6           0        3.197874    0.768088   -0.106075
     32          6           0        4.477071    1.207485    0.607065
     33          6           0        4.450535    2.681015    1.014249
     34          1           0        3.050180    1.393208   -0.997595
     35          1           0        2.337231    0.952889    0.551258
     36          1           0        5.334788    1.021439   -0.051968
     37          1           0        4.623045    0.580809    1.496214
     38          1           0        3.613485    2.878470    1.691714
     39          1           0        4.329273    3.321603    0.134735
     40          1           0        5.374608    2.973810    1.522404
 ---------------------------------------------------------------------

 SCF Done:  E(RHF) =  -470.733305312     A.U. after   11 cycles
 E2 =    -0.1582824585D+01 EUMP2 =    -0.47231612989730D+03

 The electronic state is 1-A.
 Alpha  occ. eigenvalues --  -11.21626 -11.21612 -11.21607 -11.21549 -11.21420
 Alpha  occ. eigenvalues --  -11.21410 -11.21359 -11.21345 -11.21107 -11.21085
 Alpha  occ. eigenvalues --  -11.21073 -11.21051  -1.08455  -1.08421  -1.03564
 Alpha  occ. eigenvalues --   -1.03508  -0.96000  -0.95970  -0.87015  -0.86988
 Alpha  occ. eigenvalues --   -0.79683  -0.79528  -0.78319  -0.78182  -0.65147
 Alpha  occ. eigenvalues --   -0.65002  -0.61050  -0.60838  -0.59414  -0.59290
 Alpha  occ. eigenvalues --   -0.57642  -0.57544  -0.55292  -0.55253  -0.52695
 Alpha  occ. eigenvalues --   -0.52663  -0.52422  -0.52399  -0.49984  -0.49888
 Alpha  occ. eigenvalues --   -0.48090  -0.47817  -0.46858  -0.46473  -0.45978
 Alpha  occ. eigenvalues --   -0.45753  -0.45741  -0.45376  -0.43801  -0.43774
 Alpha virt. eigenvalues --    0.21188   0.23181   0.23627   0.24982   0.25311
 Alpha virt. eigenvalues --    0.26803   0.26982   0.27668   0.28319   0.28813
 Alpha virt. eigenvalues --    0.30590   0.31169   0.31498   0.31918   0.32423

 Mulliken charges:
               1
     1  C   -0.298440
     2  C   -0.299658
     3  C   -0.475734
     4  H    0.149897
     5  H    0.149594
     6  H    0.151894
     7  H    0.151944
     8  H    0.155190
     9  H    0.155318
    10  H    0.160258
    11  C   -0.297535
    12  C   -0.306370
    13  C   -0.475809
    14  H    0.149288
    15  H    0.149769
    16  H    0.157755
    17  H    0.152287
    18  H    0.155579
    19  H    0.154850
    20  H    0.160430
    21  C   -0.297674
    22  C   -0.308275
    23  C   -0.475129
    24  H    0.149610
    25  H    0.149337
    26  H    0.151731
    27  H    0.160563
    28  H    0.154622
    29  H    0.155034
    30  H    0.160443
    31  C   -0.298149
    32  C   -0.299636
    33  C   -0.475702
    34  H    0.149588
    35  H    0.148531
    36  H    0.152100
    37  H    0.152001
    38  H    0.154982
    39  H    0.155183
    40  H    0.160333
 Sum of Mulliken charges =  -0.00000

 Dipole moment (field-independent basis, Debye):
    X=             -0.0176    Y=             -0.0029    Z=             -0.0034  Tot=              0.0181
 Quadrupole moment (field-independent basis, Debye-Ang):
   XX=            -84.3198   YY=            -85.9357   ZZ=            -84.5280
   XY=              0.6311   XZ=             -0.3372   YZ=              0.2706

 Normal termination of Gaussian 16 at Wed May  5 21:31:04 2021.
