 Gaussian 16, Revision A.03,
 Gaussian 16:  EM64L-G16RevA.03 25-Dec-2016

 -------------
 #p 6-31g* mp2
 -------------

 ------------------------------------------------------
 Input file generated by CHIRIPA (05-May-2021 14:57:24)
 ------------------------------------------------------
 Symbolic Z-matrix:
 Charge =  0 Multiplicity = 1

                         Standard orientation:
 ---------------------------------------------------------------------
 Center     Atomic      Atomic             Coordinates (Angstroms)
 Number     Number       Type             X           Y           Z
 ---------------------------------------------------------------------
      1          6           0       -1.875150   -0.539906    0.653799
      2          6           0       -2.810096   -0.349167    1.676548
      3          6           0       -4.159539   -0.142152    1.375389
      4          6           0       -4.540933   -0.131886    0.034597
      5          6           0       -3.633271   -0.318921   -1.006776
      6          6           0       -2.288992   -0.524202   -0.682244
      7          1           0       -0.828876   -0.700047    0.896825
      8          1           0       -2.491561   -0.360866    2.715029
      9          1           0       -4.904385    0.008161    2.147417
     10          1           0       -3.980942   -0.302015   -2.032572
     11          1           0       -1.565106   -0.672054   -1.478594
     12          7           0       -5.966794    0.086353   -0.296599
     13          8           0       -6.277356    0.090970   -1.485786
     14          8           0       -6.746823    0.248660    0.639269
     15          6           0        6.457279   -1.138268    0.088811
     16          6           0        6.464768    0.249790    0.261327
     17          6           0        5.278728    0.983656    0.164902
     18          6           0        4.097949    0.294126   -0.106390
     19          6           0        4.058038   -1.088047   -0.283292
     20          6           0        5.256056   -1.801587   -0.182469
     21          1           0        7.383274   -1.700458    0.165424
     22          1           0        7.396171    0.767581    0.472100
     23          1           0        5.255894    2.058935    0.294029
     24          1           0        3.113948   -1.576287   -0.492417
     25          1           0        5.247238   -2.879498   -0.316912
     26          7           0        2.836003    1.060278   -0.210798
     27          8           0        1.808923    0.429229   -0.450636
     28          8           0        2.897862    2.277330   -0.050817
 ---------------------------------------------------------------------

 SCF Done:  E(RHF) =  -868.339757927     A.U. after   16 cycles
 E2 =    -0.2598284881D+01 EUMP2 =    -0.87093804280746D+03

 The electronic state is 1-A.
 Alpha  occ. eigenvalues --  -20.61852 -20.61766 -20.60046 -20.60040 -15.86851
 Alpha  occ. eigenvalues --  -15.85094 -11.31991 -11.30269 -11.28563 -11.28501
 Alpha  occ. eigenvalues --  -11.28209 -11.27497 -11.27464 -11.26857 -11.26805
 Alpha  occ. eigenvalues --  -11.26382 -11.25792 -11.25675  -1.60869  -1.59126
 Alpha  occ. eigenvalues --   -1.40435  -1.38685  -1.20137  -1.18411  -1.09567
 Alpha  occ. eigenvalues --   -1.07807  -1.05507  -1.03796  -0.96443  -0.94681
 Alpha  occ. eigenvalues --   -0.86914  -0.85180  -0.83290  -0.81534  -0.78366
 Alpha  occ. eigenvalues --   -0.76635  -0.73088  -0.72178  -0.71316  -0.71239
 Alpha  occ. eigenvalues --   -0.70448  -0.69433  -0.65793  -0.65501  -0.64049
 Alpha  occ. eigenvalues --   -0.63776  -0.62861  -0.61157  -0.56001  -0.54187
 Alpha  occ. eigenvalues --   -0.53843  -0.53593  -0.52125  -0.51874  -0.49842
 Alpha  occ. eigenvalues --   -0.49792  -0.48082  -0.48055  -0.45886  -0.44135
 Alpha  occ. eigenvalues --   -0.38095  -0.37100  -0.36323  -0.35413
 Alpha virt. eigenvalues --    0.04136   0.05907   0.10558   0.12260   0.15665
 Alpha virt. eigenvalues --    0.17470   0.20673   0.22453   0.26621   0.27410
 Alpha virt. eigenvalues --    0.28289   0.29285   0.30462   0.31642   0.32496

 Mulliken charges:
               1
     1  C   -0.169086
     2  C   -0.219883
     3  C   -0.171915
     4  C    0.157352
     5  C   -0.172467
     6  C   -0.218037
     7  H    0.236246
     8  H    0.219975
     9  H    0.272256
    10  H    0.272773
    11  H    0.228227
    12  N    0.488308
    13  O   -0.462639
    14  O   -0.463198
    15  C   -0.169935
    16  C   -0.218323
    17  C   -0.170363
    18  C    0.158007
    19  C   -0.171063
    20  C   -0.218213
    21  H    0.228296
    22  H    0.226132
    23  H    0.277268
    24  H    0.271364
    25  H    0.225192
    26  N    0.490759
    27  O   -0.473299
    28  O   -0.453735
 Sum of Mulliken charges =  -0.00000

 Dipole moment (field-independent basis, Debye):
    X=             10.0970    Y=             -3.4109    Z=              1.5188  Tot=             10.7653
 Quadrupole moment (field-independent basis, Debye-Ang):
   XX=           -113.5845   YY=           -103.3755   ZZ=           -100.9542
   XY=             -4.7213   XZ=             -4.5461   YZ=              1.5594

 Normal termination of Gaussian 16 at Thu May  6 22:49:29 2021.
