 Gaussian 16, Revision A.03,
 Gaussian 16:  EM64L-G16RevA.03 25-Dec-2016

 -------------
 #p 6-31g* mp2
 -------------

 ------------------------------------------------------
 Input file generated by CHIRIPA (05-May-2021 14:57:27)
 ------------------------------------------------------
 Symbolic Z-matrix:
 Charge =  0 Multiplicity = 1

                         Standard orientation:
 ---------------------------------------------------------------------
 Center     Atomic      Atomic             Coordinates (Angstroms)
 Number     Number       Type             X           Y           Z
 ---------------------------------------------------------------------
      1          6           0        3.967286    1.843980    1.567767
      2          6           0        2.752036    1.837137    0.875206
      3          6           0        2.439288    0.792482    0.000316
      4          6           0        3.369144   -0.233834   -0.158848
      5          6           0        4.588235   -0.255410    0.516904
      6          6           0        4.879898    0.799526    1.386725
      7          1           0        4.202047    2.659487    2.245434
      8          1           0        2.041385    2.646951    1.013844
      9          1           0        1.505812    0.762129   -0.548429
     10          1           0        5.276574   -1.076609    0.358029
     11          1           0        5.824446    0.802215    1.923258
     12          7           0        3.049212   -1.345206   -1.082372
     13          8           0        3.885364   -2.237627   -1.205141
     14          8           0        1.968355   -1.302835   -1.665973
     15          6           0       -2.764300    1.978954   -1.481725
     16          6           0       -1.837994    0.972268   -1.190070
     17          6           0       -2.191359   -0.100841   -0.366590
     18          6           0       -3.485444   -0.135753    0.150530
     19          6           0       -4.430816    0.851915   -0.121637
     20          6           0       -4.055478    1.915675   -0.947520
     21          1           0       -2.481262    2.808940   -2.122357
     22          1           0       -0.834540    1.018808   -1.603543
     23          1           0       -1.494070   -0.893700   -0.124550
     24          1           0       -5.423650    0.778103    0.305270
     25          1           0       -4.776937    2.696064   -1.172320
     26          7           0       -3.871166   -1.266857    1.023583
     27          8           0       -5.017554   -1.274466    1.466724
     28          8           0       -3.019804   -2.124390    1.248208
 ---------------------------------------------------------------------

 SCF Done:  E(RHF) =  -868.337800304     A.U. after   16 cycles
 E2 =    -0.2599644919D+01 EUMP2 =    -0.87093744522289D+03

 The electronic state is 1-A.
 Alpha  occ. eigenvalues --  -20.61340 -20.61292 -20.60641 -20.60625 -15.86367
 Alpha  occ. eigenvalues --  -15.85692 -11.31704 -11.31111 -11.28361 -11.28201
 Alpha  occ. eigenvalues --  -11.27947 -11.27731 -11.27657 -11.27510 -11.27285
 Alpha  occ. eigenvalues --  -11.27210 -11.26758 -11.26748  -1.60380  -1.59712
 Alpha  occ. eigenvalues --   -1.39943  -1.39262  -1.19857  -1.19313  -1.09246
 Alpha  occ. eigenvalues --   -1.08706  -1.05265  -1.04722  -0.96097  -0.95520
 Alpha  occ. eigenvalues --   -0.86666  -0.86123  -0.82937  -0.82350  -0.78015
 Alpha  occ. eigenvalues --   -0.77369  -0.72588  -0.71908  -0.71693  -0.71038
 Alpha  occ. eigenvalues --   -0.70978  -0.70419  -0.65513  -0.65294  -0.64964
 Alpha  occ. eigenvalues --   -0.64728  -0.62675  -0.62003  -0.55745  -0.55243
 Alpha  occ. eigenvalues --   -0.53574  -0.53390  -0.53053  -0.52783  -0.49359
 Alpha  occ. eigenvalues --   -0.49321  -0.48677  -0.48655  -0.45353  -0.44654
 Alpha  occ. eigenvalues --   -0.37807  -0.37321  -0.36859  -0.36330
 Alpha virt. eigenvalues --    0.04541   0.05149   0.10789   0.11289   0.16064
 Alpha virt. eigenvalues --    0.16523   0.19122   0.21957   0.24793   0.27291
 Alpha virt. eigenvalues --    0.28316   0.29041   0.30303   0.31174   0.32503

 Mulliken charges:
               1
     1  C   -0.169974
     2  C   -0.219793
     3  C   -0.174225
     4  C    0.159486
     5  C   -0.169136
     6  C   -0.218066
     7  H    0.227625
     8  H    0.223804
     9  H    0.270989
    10  H    0.277653
    11  H    0.225836
    12  N    0.488415
    13  O   -0.454925
    14  O   -0.468234
    15  C   -0.171276
    16  C   -0.227775
    17  C   -0.172119
    18  C    0.158060
    19  C   -0.170565
    20  C   -0.219084
    21  H    0.224730
    22  H    0.227872
    23  H    0.283590
    24  H    0.275592
    25  H    0.222898
    26  N    0.487880
    27  O   -0.461554
    28  O   -0.457702
 Sum of Mulliken charges =  -0.00000

 Dipole moment (field-independent basis, Debye):
    X=              2.6989    Y=              7.7988    Z=              0.2745  Tot=              8.2572
 Quadrupole moment (field-independent basis, Debye-Ang):
   XX=            -97.7719   YY=           -107.0940   ZZ=           -107.9767
   XY=             -5.2890   XZ=             22.8301   YZ=             -0.4902

 Normal termination of Gaussian 16 at Fri May  7 03:34:39 2021.
