 Gaussian 16, Revision A.03,
 Gaussian 16:  EM64L-G16RevA.03 25-Dec-2016

 -------------
 #p 6-31g* mp2
 -------------

 ------------------------------------------------------
 Input file generated by CHIRIPA (05-May-2021 14:51:09)
 ------------------------------------------------------
 Symbolic Z-matrix:
 Charge =  0 Multiplicity = 1

                         Standard orientation:
 ---------------------------------------------------------------------
 Center     Atomic      Atomic             Coordinates (Angstroms)
 Number     Number       Type             X           Y           Z
 ---------------------------------------------------------------------
      1          6           0       -3.278017   -0.131140   -0.686742
      2          6           0       -3.522704   -1.449162    0.048738
      3          6           0       -4.014557   -2.561026   -0.878427
      4          1           0       -4.207886    0.184695   -1.179222
      5          1           0       -2.541752   -0.296243   -1.485523
      6          1           0       -4.257256   -1.281316    0.846785
      7          1           0       -2.592195   -1.761799    0.539684
      8          1           0       -3.281247   -2.757354   -1.667295
      9          1           0       -4.955768   -2.274141   -1.358448
     10          1           0       -4.183065   -3.494228   -0.331986
     11          6           0       -2.785983    0.990078    0.226769
     12          6           0       -2.541295    2.308100   -0.508711
     13          6           0       -2.049442    3.419963    0.418454
     14          1           0       -3.522247    1.155180    1.025550
     15          1           0       -1.856114    0.674242    0.719249
     16          1           0       -3.471804    2.620736   -0.999657
     17          1           0       -1.806744    2.140253   -1.306758
     18          1           0       -1.108232    3.133078    0.898476
     19          1           0       -2.782753    3.616291    1.207322
     20          1           0       -1.880935    4.353166   -0.127987
     21          6           0        2.498372   -0.960242    0.360188
     22          6           0        1.254777   -0.410912    1.059968
     23          6           0        0.196297   -1.484737    1.313568
     24          1           0        2.202470   -1.417953   -0.593694
     25          1           0        2.929833   -1.764401    0.972205
     26          1           0        0.826583    0.392907    0.447483
     27          1           0        1.553700    0.045713    2.012205
     28          1           0        0.600942   -2.283289    1.943791
     29          1           0       -0.130307   -1.934121    0.370178
     30          1           0       -0.684053   -1.070269    1.814627
     31          6           0        3.565627    0.101306    0.099785
     32          6           0        4.809222   -0.448026   -0.599995
     33          6           0        5.867702    0.625801   -0.853595
     34          1           0        3.134167    0.905464   -0.512232
     35          1           0        3.861530    0.559015    1.053667
     36          1           0        4.510300   -0.904650   -1.552232
     37          1           0        5.237418   -1.251845    0.012490
     38          1           0        6.194306    1.075183    0.089795
     39          1           0        5.463058    1.424351   -1.483817
     40          1           0        6.748052    0.211331   -1.354654
 ---------------------------------------------------------------------

 SCF Done:  E(RHF) =  -470.731700559     A.U. after   11 cycles
 E2 =    -0.1584613784D+01 EUMP2 =    -0.47231631434316D+03

 The electronic state is 1-A.
 Alpha  occ. eigenvalues --  -11.21728 -11.21652 -11.21575 -11.21489 -11.21422
 Alpha  occ. eigenvalues --  -11.21414 -11.21325 -11.21265 -11.21166 -11.21108
 Alpha  occ. eigenvalues --  -11.21053 -11.20993  -1.08528  -1.08357  -1.03627
 Alpha  occ. eigenvalues --   -1.03462  -0.96087  -0.95916  -0.87111  -0.86933
 Alpha  occ. eigenvalues --   -0.79746  -0.79488  -0.78325  -0.78189  -0.65309
 Alpha  occ. eigenvalues --   -0.64914  -0.61034  -0.60858  -0.59478  -0.59271
 Alpha  occ. eigenvalues --   -0.57757  -0.57478  -0.55377  -0.55192  -0.52869
 Alpha  occ. eigenvalues --   -0.52586  -0.52506  -0.52320  -0.50101  -0.49807
 Alpha  occ. eigenvalues --   -0.48004  -0.47861  -0.46839  -0.46426  -0.45905
 Alpha  occ. eigenvalues --   -0.45772  -0.45696  -0.45536  -0.43789  -0.43687
 Alpha virt. eigenvalues --    0.20413   0.23217   0.23456   0.24511   0.26206
 Alpha virt. eigenvalues --    0.26556   0.27228   0.27540   0.28005   0.29865
 Alpha virt. eigenvalues --    0.30267   0.31045   0.31729   0.32077   0.32415

 Mulliken charges:
               1
     1  C   -0.296917
     2  C   -0.309267
     3  C   -0.475163
     4  H    0.149354
     5  H    0.147921
     6  H    0.150523
     7  H    0.163790
     8  H    0.154004
     9  H    0.154713
    10  H    0.159940
    11  C   -0.308135
    12  C   -0.298893
    13  C   -0.476443
    14  H    0.148900
    15  H    0.160377
    16  H    0.151941
    17  H    0.150910
    18  H    0.155587
    19  H    0.155203
    20  H    0.160095
    21  C   -0.298565
    22  C   -0.302992
    23  C   -0.482406
    24  H    0.149862
    25  H    0.150098
    26  H    0.153500
    27  H    0.152719
    28  H    0.156757
    29  H    0.156934
    30  H    0.164978
    31  C   -0.298472
    32  C   -0.299728
    33  C   -0.475769
    34  H    0.149618
    35  H    0.149914
    36  H    0.152005
    37  H    0.152069
    38  H    0.155302
    39  H    0.155299
    40  H    0.160439
 Sum of Mulliken charges =  -0.00000

 Dipole moment (field-independent basis, Debye):
    X=              0.0814    Y=             -0.0246    Z=              0.0489  Tot=              0.0981
 Quadrupole moment (field-independent basis, Debye-Ang):
   XX=            -84.7751   YY=            -85.9874   ZZ=            -84.2638
   XY=             -1.2860   XZ=              0.1539   YZ=             -0.5107

 Normal termination of Gaussian 16 at Thu May  6 03:44:17 2021.
