 Gaussian 16, Revision A.03,
 Gaussian 16:  EM64L-G16RevA.03 25-Dec-2016

 -------------
 #p 6-31g* mp2
 -------------

 ------------------------------------------------------
 Input file generated by CHIRIPA (05-May-2021 14:53:16)
 ------------------------------------------------------
 Symbolic Z-matrix:
 Charge =  0 Multiplicity = 1

                         Standard orientation:
 ---------------------------------------------------------------------
 Center     Atomic      Atomic             Coordinates (Angstroms)
 Number     Number       Type             X           Y           Z
 ---------------------------------------------------------------------
      1          6           0       -1.847754    1.272803    0.460446
      2          6           0       -0.857742    2.165443   -0.288588
      3          6           0        0.262038    2.690499    0.610413
      4          1           0       -2.281533    1.838255    1.296535
      5          1           0       -1.304900    0.426514    0.903729
      6          1           0       -1.402514    3.009053   -0.731490
      7          1           0       -0.426413    1.597861   -1.123107
      8          1           0        0.830886    1.860498    1.041817
      9          1           0       -0.150762    3.279707    1.435659
     10          1           0        0.958273    3.326304    0.054653
     11          6           0       -2.973010    0.740169   -0.424895
     12          6           0       -3.963022   -0.152472    0.324140
     13          6           0       -5.082802   -0.677528   -0.574862
     14          1           0       -3.515864    1.586457   -0.868178
     15          1           0       -2.539231    0.174716   -1.260984
     16          1           0       -4.394351    0.415110    1.158658
     17          1           0       -3.418250   -0.996082    0.767042
     18          1           0       -4.670002   -1.266736   -1.400108
     19          1           0       -5.651650    0.152474   -1.006266
     20          1           0       -5.779037   -1.313332   -0.019101
     21          6           0        0.122766   -2.521937    0.490820
     22          6           0        0.733659   -1.820216    1.535290
     23          6           0        1.710255   -0.856352    1.267376
     24          6           0        2.053295   -0.618523   -0.062680
     25          6           0        1.462815   -1.301102   -1.125089
     26          6           0        0.488649   -2.260602   -0.833700
     27          1           0       -0.634934   -3.268995    0.708060
     28          1           0        0.451498   -2.021086    2.564892
     29          1           0        2.199220   -0.298487    2.056753
     30          1           0        1.765039   -1.078892   -2.141307
     31          1           0        0.015901   -2.804036   -1.646863
     32          7           0        3.085887    0.399565   -0.358734
     33          8           0        3.370418    0.590541   -1.539076
     34          8           0        3.591150    0.987290    0.595167
 ---------------------------------------------------------------------

 SCF Done:  E(RHF) =  -669.534682515     A.U. after   15 cycles
 E2 =    -0.2096459949D+01 EUMP2 =    -0.67163114246352D+03

 The electronic state is 1-A.
 Alpha  occ. eigenvalues --  -20.60913 -20.60905 -15.85939 -11.31356 -11.27940
 Alpha  occ. eigenvalues --  -11.27920 -11.27688 -11.26968 -11.26954 -11.21956
 Alpha  occ. eigenvalues --  -11.21536 -11.21459 -11.21396 -11.21279 -11.20629
 Alpha  occ. eigenvalues --   -1.59969  -1.39525  -1.19557  -1.08933  -1.08497
 Alpha  occ. eigenvalues --   -1.04962  -1.03577  -0.96011  -0.95752  -0.87033
 Alpha  occ. eigenvalues --   -0.86346  -0.82583  -0.79666  -0.78294  -0.77622
 Alpha  occ. eigenvalues --   -0.72169  -0.71320  -0.70647  -0.65209  -0.65153
 Alpha  occ. eigenvalues --   -0.64948  -0.62303  -0.61018  -0.59399  -0.57608
 Alpha  occ. eigenvalues --   -0.55473  -0.55302  -0.53277  -0.53040  -0.52665
 Alpha  occ. eigenvalues --   -0.52436  -0.50004  -0.48935  -0.48922  -0.47962
 Alpha  occ. eigenvalues --   -0.46766  -0.45815  -0.45796  -0.44790  -0.43789
 Alpha  occ. eigenvalues --   -0.37471  -0.36483
 Alpha virt. eigenvalues --    0.04865   0.10938   0.16336   0.20960   0.22762
 Alpha virt. eigenvalues --    0.24098   0.26455   0.26697   0.27271   0.27979
 Alpha virt. eigenvalues --    0.28383   0.30641   0.31380   0.31450   0.32020

 Mulliken charges:
               1
     1  C   -0.303535
     2  C   -0.300469
     3  C   -0.482180
     4  H    0.147679
     5  H    0.153170
     6  H    0.151662
     7  H    0.150325
     8  H    0.154829
     9  H    0.153118
    10  H    0.170068
    11  C   -0.296710
    12  C   -0.298377
    13  C   -0.475275
    14  H    0.150576
    15  H    0.146573
    16  H    0.153158
    17  H    0.144224
    18  H    0.152192
    19  H    0.157687
    20  H    0.159307
    21  C   -0.170528
    22  C   -0.218756
    23  C   -0.175084
    24  C    0.163132
    25  C   -0.171626
    26  C   -0.218017
    27  H    0.227040
    28  H    0.225184
    29  H    0.276904
    30  H    0.276511
    31  H    0.224560
    32  N    0.490436
    33  O   -0.459267
    34  O   -0.458515
 Sum of Mulliken charges =  -0.00000

 Dipole moment (field-independent basis, Debye):
    X=             -3.4362    Y=             -3.6120    Z=              1.0360  Tot=              5.0919
 Quadrupole moment (field-independent basis, Debye-Ang):
   XX=           -110.9892   YY=            -90.1466   ZZ=            -90.3260
   XY=             -5.8721   XZ=              2.4012   YZ=              0.4473

 Normal termination of Gaussian 16 at Thu May  6 10:40:10 2021.
