 Gaussian 16, Revision A.03,
 Gaussian 16:  EM64L-G16RevA.03 25-Dec-2016

 -------------
 #p 6-31g* mp2
 -------------

 ------------------------------------------------------
 Input file generated by CHIRIPA (05-May-2021 14:51:10)
 ------------------------------------------------------
 Symbolic Z-matrix:
 Charge =  0 Multiplicity = 1

                         Standard orientation:
 ---------------------------------------------------------------------
 Center     Atomic      Atomic             Coordinates (Angstroms)
 Number     Number       Type             X           Y           Z
 ---------------------------------------------------------------------
      1          6           0       -2.671755   -0.119144   -0.609083
      2          6           0       -2.445354    1.236502   -1.279123
      3          6           0       -3.031649    1.304035   -2.689616
      4          1           0       -2.226060   -0.907432   -1.231098
      5          1           0       -3.750381   -0.324959   -0.569059
      6          1           0       -1.367548    1.440326   -1.316624
      7          1           0       -2.891472    2.021674   -0.655345
      8          1           0       -4.111678    1.126220   -2.666796
      9          1           0       -2.579095    0.541569   -3.331832
     10          1           0       -2.858444    2.281743   -3.149991
     11          6           0       -2.091303   -0.202163    0.801559
     12          6           0       -2.317704   -1.557809    1.471599
     13          6           0       -1.731409   -1.625341    2.882092
     14          1           0       -1.012677    0.003653    0.761535
     15          1           0       -2.536998    0.586126    1.423573
     16          1           0       -1.871586   -2.342981    0.847821
     17          1           0       -3.395510   -1.761633    1.509100
     18          1           0       -2.183963   -0.862876    3.524308
     19          1           0       -0.651380   -1.447527    2.859272
     20          1           0       -1.904614   -2.603050    3.342467
     21          6           0        1.974844    0.628206    0.350342
     22          6           0        2.689612    1.943696    0.661111
     23          6           0        1.863379    2.868456    1.555511
     24          1           0        1.013281    0.846309   -0.134191
     25          1           0        1.740437    0.114734    1.293102
     26          1           0        2.923833    2.453876   -0.282007
     27          1           0        3.649672    1.722430    1.144788
     28          1           0        1.641234    2.382656    2.511153
     29          1           0        0.911271    3.118258    1.076251
     30          1           0        2.393190    3.802938    1.765048
     31          6           0        2.788215   -0.306899   -0.542818
     32          6           0        2.073445   -1.622389   -0.853587
     33          6           0        2.899679   -2.547149   -1.747987
     34          1           0        3.022621    0.206572   -1.485577
     35          1           0        3.749778   -0.525003   -0.058285
     36          1           0        1.113386   -1.401122   -1.337263
     37          1           0        1.839225   -2.132570    0.089532
     38          1           0        3.851786   -2.796952   -1.268726
     39          1           0        3.121823   -2.061348   -2.703628
     40          1           0        2.369868   -3.481630   -1.957524
 ---------------------------------------------------------------------

 SCF Done:  E(RHF) =  -470.733021547     A.U. after   11 cycles
 E2 =    -0.1584511458D+01 EUMP2 =    -0.47231753300499D+03

 The electronic state is 1-A.
 Alpha  occ. eigenvalues --  -11.21708 -11.21659 -11.21638 -11.21530 -11.21495
 Alpha  occ. eigenvalues --  -11.21436 -11.21357 -11.21213 -11.21146 -11.21099
 Alpha  occ. eigenvalues --  -11.21088 -11.21038  -1.08537  -1.08375  -1.03599
 Alpha  occ. eigenvalues --   -1.03508  -0.96051  -0.95950  -0.87065  -0.86969
 Alpha  occ. eigenvalues --   -0.79670  -0.79574  -0.78509  -0.78052  -0.65253
 Alpha  occ. eigenvalues --   -0.64932  -0.60995  -0.60909  -0.59416  -0.59321
 Alpha  occ. eigenvalues --   -0.57686  -0.57547  -0.55356  -0.55223  -0.52738
 Alpha  occ. eigenvalues --   -0.52663  -0.52497  -0.52360  -0.49999  -0.49893
 Alpha  occ. eigenvalues --   -0.48008  -0.47900  -0.46758  -0.46621  -0.46452
 Alpha  occ. eigenvalues --   -0.45781  -0.45706  -0.44962  -0.43858  -0.43744
 Alpha virt. eigenvalues --    0.19737   0.22473   0.23273   0.23932   0.25359
 Alpha virt. eigenvalues --    0.26193   0.27005   0.27857   0.28470   0.30516
 Alpha virt. eigenvalues --    0.31120   0.31239   0.31639   0.31972   0.32136

 Mulliken charges:
               1
     1  C   -0.298331
     2  C   -0.303607
     3  C   -0.475490
     4  H    0.149397
     5  H    0.149511
     6  H    0.153327
     7  H    0.152371
     8  H    0.155641
     9  H    0.154984
    10  H    0.160116
    11  C   -0.308003
    12  C   -0.299076
    13  C   -0.476420
    14  H    0.161476
    15  H    0.148676
    16  H    0.152079
    17  H    0.151349
    18  H    0.155173
    19  H    0.155018
    20  H    0.159928
    21  C   -0.308584
    22  C   -0.298749
    23  C   -0.476555
    24  H    0.157842
    25  H    0.150557
    26  H    0.151950
    27  H    0.152155
    28  H    0.155602
    29  H    0.156113
    30  H    0.160463
    31  C   -0.297501
    32  C   -0.301347
    33  C   -0.475683
    34  H    0.149730
    35  H    0.150166
    36  H    0.151955
    37  H    0.152162
    38  H    0.155629
    39  H    0.155463
    40  H    0.160513
 Sum of Mulliken charges =  -0.00000

 Dipole moment (field-independent basis, Debye):
    X=              0.0545    Y=              0.0171    Z=             -0.0041  Tot=              0.0572
 Quadrupole moment (field-independent basis, Debye-Ang):
   XX=            -84.1700   YY=            -85.1251   ZZ=            -85.4594
   XY=             -0.0782   XZ=             -0.0516   YZ=             -0.4569

 Normal termination of Gaussian 16 at Wed May  5 23:02:35 2021.
