 Gaussian 16, Revision A.03,
 Gaussian 16:  EM64L-G16RevA.03 25-Dec-2016

 -------------
 #p 6-31g* mp2
 -------------

 ------------------------------------------------------
 Input file generated by CHIRIPA (05-May-2021 14:51:13)
 ------------------------------------------------------
 Symbolic Z-matrix:
 Charge =  0 Multiplicity = 1

                         Standard orientation:
 ---------------------------------------------------------------------
 Center     Atomic      Atomic             Coordinates (Angstroms)
 Number     Number       Type             X           Y           Z
 ---------------------------------------------------------------------
      1          6           0       -2.536915   -0.219004   -0.276423
      2          6           0       -3.632627    0.404084    0.589117
      3          6           0       -4.065078    1.784026    0.092587
      4          1           0       -1.668387    0.453423   -0.297547
      5          1           0       -2.897040   -0.297049   -1.311611
      6          1           0       -3.271049    0.479657    1.622639
      7          1           0       -4.498575   -0.269993    0.608339
      8          1           0       -4.451071    1.721946   -0.930035
      9          1           0       -3.216571    2.475857    0.090028
     10          1           0       -4.849045    2.211007    0.725787
     11          6           0       -2.094007   -1.598711    0.207278
     12          6           0       -0.998294   -2.221799   -0.658263
     13          6           0       -0.565844   -3.601741   -0.161733
     14          1           0       -1.733882   -1.520666    1.242466
     15          1           0       -2.962535   -2.271138    0.228402
     16          1           0       -0.132346   -1.547722   -0.677485
     17          1           0       -1.359872   -2.297372   -1.691784
     18          1           0       -1.414351   -4.293572   -0.159173
     19          1           0       -0.179850   -3.539661    0.860889
     20          1           0        0.218124   -4.028722   -0.794932
     21          6           0        2.044418    1.550036    0.348990
     22          6           0        1.549962    2.567722   -0.679511
     23          6           0        1.010722    3.845139   -0.035135
     24          1           0        1.221241    1.298715    1.031751
     25          1           0        2.829927    2.011834    0.963088
     26          1           0        0.766588    2.103696   -1.292389
     27          1           0        2.374361    2.816505   -1.360019
     28          1           0        1.788091    4.333503    0.561355
     29          1           0        0.171184    3.616644    0.629369
     30          1           0        0.662659    4.558738   -0.788452
     31          6           0        2.586502    0.267679   -0.279844
     32          6           0        3.080959   -0.750006    0.748656
     33          6           0        3.620199   -2.027424    0.104280
     34          1           0        1.800995   -0.194119   -0.893941
     35          1           0        3.409681    0.519000   -0.962604
     36          1           0        2.256562   -0.998790    1.429164
     37          1           0        3.864333   -0.285981    1.361535
     38          1           0        4.459738   -1.798928   -0.560223
     39          1           0        2.842831   -2.515787   -0.492210
     40          1           0        3.968262   -2.741023    0.857599
 ---------------------------------------------------------------------

 SCF Done:  E(RHF) =  -470.733341342     A.U. after   11 cycles
 E2 =    -0.1584323196D+01 EUMP2 =    -0.47231766453835D+03

 The electronic state is 1-A.
 Alpha  occ. eigenvalues --  -11.21657 -11.21654 -11.21646 -11.21634 -11.21476
 Alpha  occ. eigenvalues --  -11.21449 -11.21416 -11.21383 -11.21128 -11.21119
 Alpha  occ. eigenvalues --  -11.21106 -11.21070  -1.08523  -1.08450  -1.03611
 Alpha  occ. eigenvalues --   -1.03541  -0.96044  -0.96002  -0.87076  -0.87002
 Alpha  occ. eigenvalues --   -0.79667  -0.79615  -0.78373  -0.78229  -0.65420
 Alpha  occ. eigenvalues --   -0.64846  -0.61215  -0.60746  -0.59420  -0.59354
 Alpha  occ. eigenvalues --   -0.57653  -0.57614  -0.55402  -0.55225  -0.52730
 Alpha  occ. eigenvalues --   -0.52700  -0.52497  -0.52402  -0.50129  -0.49813
 Alpha  occ. eigenvalues --   -0.48026  -0.47891  -0.46818  -0.46598  -0.46148
 Alpha  occ. eigenvalues --   -0.45813  -0.45782  -0.45329  -0.43843  -0.43819
 Alpha virt. eigenvalues --    0.18604   0.21280   0.23847   0.25391   0.25872
 Alpha virt. eigenvalues --    0.25952   0.26352   0.27796   0.28987   0.30025
 Alpha virt. eigenvalues --    0.30333   0.31238   0.31510   0.31832   0.32307

 Mulliken charges:
               1
     1  C   -0.301227
     2  C   -0.299649
     3  C   -0.476123
     4  H    0.151193
     5  H    0.149919
     6  H    0.151852
     7  H    0.152308
     8  H    0.155356
     9  H    0.155515
    10  H    0.160535
    11  C   -0.297553
    12  C   -0.309693
    13  C   -0.475981
    14  H    0.149177
    15  H    0.150188
    16  H    0.160293
    17  H    0.152216
    18  H    0.155505
    19  H    0.155720
    20  H    0.160804
    21  C   -0.298798
    22  C   -0.301540
    23  C   -0.476006
    24  H    0.149183
    25  H    0.149999
    26  H    0.153498
    27  H    0.152410
    28  H    0.155513
    29  H    0.154647
    30  H    0.160777
    31  C   -0.304978
    32  C   -0.299751
    33  C   -0.477993
    34  H    0.155081
    35  H    0.150429
    36  H    0.151560
    37  H    0.152236
    38  H    0.155061
    39  H    0.157913
    40  H    0.160404
 Sum of Mulliken charges =  -0.00000

 Dipole moment (field-independent basis, Debye):
    X=             -0.0020    Y=             -0.0067    Z=             -0.0139  Tot=              0.0155
 Quadrupole moment (field-independent basis, Debye-Ang):
   XX=            -83.6411   YY=            -86.3195   ZZ=            -84.5914
   XY=              1.5730   XZ=              0.4106   YZ=              0.1569

 Normal termination of Gaussian 16 at Wed May  5 23:11:11 2021.
