 Gaussian 16, Revision A.03,
 Gaussian 16:  EM64L-G16RevA.03 25-Dec-2016

 -------------
 #p 6-31g* mp2
 -------------

 ------------------------------------------------------
 Input file generated by CHIRIPA (05-May-2021 14:53:12)
 ------------------------------------------------------
 Symbolic Z-matrix:
 Charge =  0 Multiplicity = 1

                         Standard orientation:
 ---------------------------------------------------------------------
 Center     Atomic      Atomic             Coordinates (Angstroms)
 Number     Number       Type             X           Y           Z
 ---------------------------------------------------------------------
      1          6           0        3.278420    0.795039   -0.010578
      2          6           0        3.170978    1.868422   -1.094225
      3          6           0        2.286034    3.043343   -0.676818
      4          1           0        2.272140    0.428899    0.234954
      5          1           0        3.678408    1.248770    0.906773
      6          1           0        2.772610    1.412504   -2.009680
      7          1           0        4.177648    2.231912   -1.337341
      8          1           0        2.683575    3.524556    0.222624
      9          1           0        1.270554    2.700492   -0.453535
     10          1           0        2.223150    3.798859   -1.466185
     11          6           0        4.159798   -0.386032   -0.413036
     12          6           0        4.267240   -1.459415    0.670611
     13          6           0        5.152184   -2.634336    0.253204
     14          1           0        3.759809   -0.839763   -1.330387
     15          1           0        5.166078   -0.019892   -0.658568
     16          1           0        3.260570   -1.822906    0.913727
     17          1           0        4.665608   -1.003497    1.586066
     18          1           0        6.167664   -2.291486    0.029921
     19          1           0        4.754643   -3.115550   -0.646238
     20          1           0        5.215068   -3.389853    1.042571
     21          6           0       -0.670047    0.505478    1.127701
     22          6           0       -1.833545    1.162808    1.540874
     23          6           0       -3.077589    0.802547    1.014458
     24          6           0       -3.121675   -0.224082    0.072450
     25          6           0       -1.980260   -0.897927   -0.359285
     26          6           0       -0.746983   -0.520982    0.180610
     27          1           0        0.292174    0.791818    1.541869
     28          1           0       -1.776808    1.960335    2.276249
     29          1           0       -3.994042    1.294725    1.316604
     30          1           0       -2.068557   -1.689101   -1.093905
     31          1           0        0.154958   -1.033223   -0.142122
     32          7           0       -4.432989   -0.614305   -0.491978
     33          8           0       -4.445032   -1.522010   -1.320570
     34          8           0       -5.423925   -0.005069   -0.095098
 ---------------------------------------------------------------------

 SCF Done:  E(RHF) =  -669.535198282     A.U. after   15 cycles
 E2 =    -0.2092646511D+01 EUMP2 =    -0.67162784479361D+03

 The electronic state is 1-A.
 Alpha  occ. eigenvalues --  -20.60771 -20.60766 -15.85825 -11.31201 -11.27772
 Alpha  occ. eigenvalues --  -11.27762 -11.27470 -11.26787 -11.26772 -11.22575
 Alpha  occ. eigenvalues --  -11.22534 -11.22476 -11.22334 -11.21882 -11.21796
 Alpha  occ. eigenvalues --   -1.59846  -1.39399  -1.19373  -1.09430  -1.08764
 Alpha  occ. eigenvalues --   -1.04777  -1.04411  -0.96864  -0.95600  -0.87876
 Alpha  occ. eigenvalues --   -0.86178  -0.82433  -0.80481  -0.79284  -0.77476
 Alpha  occ. eigenvalues --   -0.72043  -0.71169  -0.70495  -0.66116  -0.65019
 Alpha  occ. eigenvalues --   -0.64746  -0.62128  -0.61797  -0.60229  -0.58479
 Alpha  occ. eigenvalues --   -0.56159  -0.55282  -0.53503  -0.53297  -0.53097
 Alpha  occ. eigenvalues --   -0.52867  -0.50807  -0.48811  -0.48798  -0.48774
 Alpha  occ. eigenvalues --   -0.47514  -0.46779  -0.46711  -0.44803  -0.44700
 Alpha  occ. eigenvalues --   -0.37328  -0.36380
 Alpha virt. eigenvalues --    0.05024   0.11226   0.16424   0.19006   0.22498
 Alpha virt. eigenvalues --    0.23481   0.24976   0.26116   0.26628   0.28103
 Alpha virt. eigenvalues --    0.29546   0.30608   0.30990   0.31204   0.31416

 Mulliken charges:
               1
     1  C   -0.305049
     2  C   -0.299081
     3  C   -0.480692
     4  H    0.141545
     5  H    0.151161
     6  H    0.154390
     7  H    0.155891
     8  H    0.154181
     9  H    0.155393
    10  H    0.165374
    11  C   -0.298866
    12  C   -0.300000
    13  C   -0.476152
    14  H    0.150105
    15  H    0.154459
    16  H    0.145743
    17  H    0.153825
    18  H    0.157760
    19  H    0.156220
    20  H    0.162821
    21  C   -0.173174
    22  C   -0.219489
    23  C   -0.170737
    24  C    0.158533
    25  C   -0.170889
    26  C   -0.221969
    27  H    0.231059
    28  H    0.224105
    29  H    0.275727
    30  H    0.275630
    31  H    0.224795
    32  N    0.488052
    33  O   -0.460411
    34  O   -0.460261
 Sum of Mulliken charges =  -0.00000

 Dipole moment (field-independent basis, Debye):
    X=              4.8042    Y=              1.4030    Z=              1.9350  Tot=              5.3659
 Quadrupole moment (field-independent basis, Debye-Ang):
   XX=           -121.8214   YY=            -93.7112   ZZ=            -93.2042
   XY=             -6.2730   XZ=             -7.1654   YZ=              1.8948

 Normal termination of Gaussian 16 at Thu May  6 07:19:22 2021.
