 Gaussian 16, Revision A.03,
 Gaussian 16:  EM64L-G16RevA.03 25-Dec-2016

 -------------
 #p 6-31g* mp2
 -------------

 ------------------------------------------------------
 Input file generated by CHIRIPA (05-May-2021 14:51:12)
 ------------------------------------------------------
 Symbolic Z-matrix:
 Charge =  0 Multiplicity = 1

                         Standard orientation:
 ---------------------------------------------------------------------
 Center     Atomic      Atomic             Coordinates (Angstroms)
 Number     Number       Type             X           Y           Z
 ---------------------------------------------------------------------
      1          6           0       -1.275540   -1.291319   -0.242735
      2          6           0       -0.834259   -2.753489   -0.169839
      3          6           0        0.616607   -2.955650   -0.607919
      4          1           0       -1.147449   -0.927129   -1.271279
      5          1           0       -0.612787   -0.683638    0.388833
      6          1           0       -1.498501   -3.358433   -0.800268
      7          1           0       -0.963596   -3.114297    0.858609
      8          1           0        1.294988   -2.376709    0.027083
      9          1           0        0.757044   -2.622232   -1.641220
     10          1           0        0.911139   -4.008038   -0.548011
     11          6           0       -2.723659   -1.073160    0.192105
     12          6           0       -3.164941    0.389011    0.119209
     13          6           0       -4.615806    0.591171    0.557289
     14          1           0       -3.386413   -1.680840   -0.439462
     15          1           0       -2.851751   -1.437350    1.220649
     16          1           0       -3.035603    0.749819   -0.909239
     17          1           0       -2.500698    0.993955    0.749639
     18          1           0       -4.756243    0.257754    1.590590
     19          1           0       -5.294188    0.012231   -0.077713
     20          1           0       -4.910339    1.643560    0.497381
     21          6           0        1.575638    1.608959   -0.445427
     22          6           0        0.441980    2.350431    0.263816
     23          6           0       -0.397259    3.199830   -0.691168
     24          1           0        2.221234    2.338606   -0.953134
     25          1           0        1.150629    0.968185   -1.230392
     26          1           0        0.868891    2.988568    1.048128
     27          1           0       -0.200883    1.618948    0.770053
     28          1           0       -0.850147    2.573792   -1.466777
     29          1           0        0.225705    3.951193   -1.187122
     30          1           0       -1.201869    3.721099   -0.163210
     31          6           0        2.423561    0.755519    0.496057
     32          6           0        3.557219    0.014047   -0.213186
     33          6           0        4.396458   -0.835352    0.741797
     34          1           0        2.848570    1.396294    1.281022
     35          1           0        1.777965    0.025872    1.003763
     36          1           0        4.200083    0.745530   -0.719422
     37          1           0        3.130309   -0.624090   -0.997497
     38          1           0        3.773494   -1.586715    1.237752
     39          1           0        4.849346   -0.209313    1.517406
     40          1           0        5.201069   -1.356620    0.213839
 ---------------------------------------------------------------------

 SCF Done:  E(RHF) =  -470.731439153     A.U. after   11 cycles
 E2 =    -0.1587068891D+01 EUMP2 =    -0.47231850804417D+03

 The electronic state is 1-A.
 Alpha  occ. eigenvalues --  -11.21682 -11.21611 -11.21536 -11.21503 -11.21468
 Alpha  occ. eigenvalues --  -11.21407 -11.21361 -11.21281 -11.21152 -11.21089
 Alpha  occ. eigenvalues --  -11.21048 -11.20996  -1.08564  -1.08329  -1.03620
 Alpha  occ. eigenvalues --   -1.03452  -0.96054  -0.95924  -0.87083  -0.86927
 Alpha  occ. eigenvalues --   -0.79663  -0.79553  -0.78416  -0.78153  -0.65455
 Alpha  occ. eigenvalues --   -0.64742  -0.61193  -0.60772  -0.59427  -0.59265
 Alpha  occ. eigenvalues --   -0.57660  -0.57533  -0.55381  -0.55179  -0.52728
 Alpha  occ. eigenvalues --   -0.52630  -0.52470  -0.52343  -0.49990  -0.49871
 Alpha  occ. eigenvalues --   -0.48081  -0.47762  -0.46898  -0.46701  -0.46213
 Alpha  occ. eigenvalues --   -0.46021  -0.45454  -0.44883  -0.43839  -0.43725
 Alpha virt. eigenvalues --    0.19914   0.21624   0.23760   0.24163   0.24700
 Alpha virt. eigenvalues --    0.25927   0.27403   0.27560   0.28606   0.29648
 Alpha virt. eigenvalues --    0.30809   0.31589   0.31805   0.32040   0.32062

 Mulliken charges:
               1
     1  C   -0.307475
     2  C   -0.299211
     3  C   -0.482476
     4  H    0.149446
     5  H    0.158346
     6  H    0.152361
     7  H    0.151924
     8  H    0.161885
     9  H    0.155106
    10  H    0.161014
    11  C   -0.298117
    12  C   -0.305631
    13  C   -0.475429
    14  H    0.149718
    15  H    0.149371
    16  H    0.153109
    17  H    0.158127
    18  H    0.155030
    19  H    0.155128
    20  H    0.160542
    21  C   -0.299884
    22  C   -0.306604
    23  C   -0.475500
    24  H    0.149773
    25  H    0.152491
    26  H    0.151279
    27  H    0.157666
    28  H    0.156561
    29  H    0.154477
    30  H    0.159591
    31  C   -0.302257
    32  C   -0.302397
    33  C   -0.476894
    34  H    0.149596
    35  H    0.150702
    36  H    0.152189
    37  H    0.155518
    38  H    0.155336
    39  H    0.155021
    40  H    0.160567
 Sum of Mulliken charges =  -0.00000

 Dipole moment (field-independent basis, Debye):
    X=             -0.0300    Y=             -0.0246    Z=             -0.0124  Tot=              0.0407
 Quadrupole moment (field-independent basis, Debye-Ang):
   XX=            -85.9002   YY=            -84.7499   ZZ=            -84.2179
   XY=              1.2376   XZ=              0.2542   YZ=              0.5362

 Normal termination of Gaussian 16 at Thu May  6 03:53:26 2021.
