 Gaussian 16, Revision A.03,
 Gaussian 16:  EM64L-G16RevA.03 25-Dec-2016

 -------------
 #p 6-31g* mp2
 -------------

 ------------------------------------------------------
 Input file generated by CHIRIPA (05-May-2021 14:55:23)
 ------------------------------------------------------
 Symbolic Z-matrix:
 Charge =  0 Multiplicity = 1

                         Standard orientation:
 ---------------------------------------------------------------------
 Center     Atomic      Atomic             Coordinates (Angstroms)
 Number     Number       Type             X           Y           Z
 ---------------------------------------------------------------------
      1          6           0        3.838138    0.739295    0.287611
      2          6           0        3.016777    0.507058    1.395741
      3          6           0        1.916492   -0.349762    1.296850
      4          6           0        1.665722   -0.960450    0.069061
      5          6           0        2.465438   -0.749215   -1.053046
      6          6           0        3.560337    0.111524   -0.931098
      7          1           0        4.690774    1.406416    0.373388
      8          1           0        3.230116    0.993227    2.343461
      9          1           0        1.264186   -0.547332    2.138801
     10          1           0        2.227422   -1.248253   -1.984566
     11          1           0        4.196494    0.290019   -1.793356
     12          7           0        0.503751   -1.869602   -0.047836
     13          8           0        0.304224   -2.395461   -1.140675
     14          8           0       -0.185473   -2.039121    0.955593
     15          6           0       -2.788928    0.443663   -0.360479
     16          6           0       -3.993246    0.128704    0.527443
     17          6           0       -4.806946   -1.061938    0.019449
     18          1           0       -3.137738    0.645415   -1.382523
     19          1           0       -2.143865   -0.443897   -0.419850
     20          1           0       -4.635136    1.017038    0.586240
     21          1           0       -3.641547   -0.072134    1.547534
     22          1           0       -4.186348   -1.962883   -0.022476
     23          1           0       -5.185582   -0.867523   -0.989233
     24          1           0       -5.663000   -1.269582    0.668999
     25          6           0       -1.965579    1.631500    0.134361
     26          6           0       -0.761261    1.946459   -0.753560
     27          6           0        0.052438    3.137103   -0.245567
     28          1           0       -2.610642    2.519061    0.193733
     29          1           0       -1.616769    1.429748    1.156405
     30          1           0       -1.112962    2.147297   -1.773652
     31          1           0       -0.119371    1.058126   -0.812358
     32          1           0        0.431075    2.942687    0.763115
     33          1           0       -0.568159    4.038047   -0.203641
     34          1           0        0.908493    3.344746   -0.895116
 ---------------------------------------------------------------------

 SCF Done:  E(RHF) =  -669.535277168     A.U. after   15 cycles
 E2 =    -0.2095485683D+01 EUMP2 =    -0.67163076285060D+03

 The electronic state is 1-A.
 Alpha  occ. eigenvalues --  -20.61036 -20.61025 -15.86038 -11.31323 -11.27911
 Alpha  occ. eigenvalues --  -11.27897 -11.27641 -11.26921 -11.26908 -11.21291
 Alpha  occ. eigenvalues --  -11.21001 -11.20868 -11.20699 -11.20428 -11.20057
 Alpha  occ. eigenvalues --   -1.60095  -1.39645  -1.19528  -1.08933  -1.07793
 Alpha  occ. eigenvalues --   -1.04911  -1.02925  -0.95772  -0.95379  -0.86403
 Alpha  occ. eigenvalues --   -0.86310  -0.82607  -0.79052  -0.77666  -0.77555
 Alpha  occ. eigenvalues --   -0.72267  -0.71461  -0.70620  -0.65174  -0.64911
 Alpha  occ. eigenvalues --   -0.64395  -0.62256  -0.60365  -0.58810  -0.56987
 Alpha  occ. eigenvalues --   -0.55411  -0.54728  -0.53163  -0.52999  -0.52113
 Alpha  occ. eigenvalues --   -0.51794  -0.49353  -0.49034  -0.49024  -0.47345
 Alpha  occ. eigenvalues --   -0.46119  -0.45165  -0.45079  -0.44807  -0.43161
 Alpha  occ. eigenvalues --   -0.37408  -0.36494
 Alpha virt. eigenvalues --    0.04801   0.11096   0.16286   0.21196   0.23194
 Alpha virt. eigenvalues --    0.24911   0.26736   0.27210   0.27996   0.28238
 Alpha virt. eigenvalues --    0.28625   0.31037   0.31850   0.32077   0.32258

 Mulliken charges:
               1
     1  C   -0.170023
     2  C   -0.216438
     3  C   -0.171487
     4  C    0.156425
     5  C   -0.172296
     6  C   -0.216771
     7  H    0.226589
     8  H    0.224376
     9  H    0.275772
    10  H    0.276282
    11  H    0.224308
    12  N    0.489960
    13  O   -0.458490
    14  O   -0.459970
    15  C   -0.305369
    16  C   -0.297588
    17  C   -0.477917
    18  H    0.146112
    19  H    0.167806
    20  H    0.146001
    21  H    0.153900
    22  H    0.167229
    23  H    0.151635
    24  H    0.156038
    25  C   -0.298352
    26  C   -0.302023
    27  C   -0.472940
    28  H    0.146969
    29  H    0.147031
    30  H    0.151991
    31  H    0.150763
    32  H    0.150238
    33  H    0.154515
    34  H    0.155723
 Sum of Mulliken charges =  -0.00000

 Dipole moment (field-independent basis, Debye):
    X=              4.2684    Y=              2.9619    Z=              0.4155  Tot=              5.2120
 Quadrupole moment (field-independent basis, Debye-Ang):
   XX=            -81.8153   YY=           -102.2068   ZZ=            -89.8913
   XY=              0.8067   XZ=             -0.1080   YZ=              0.2509

 Normal termination of Gaussian 16 at Thu May  6 17:39:36 2021.
