 Gaussian 16, Revision A.03,
 Gaussian 16:  EM64L-G16RevA.03 25-Dec-2016

 -------------
 #p 6-31g* mp2
 -------------

 ------------------------------------------------------
 Input file generated by CHIRIPA (05-May-2021 14:55:21)
 ------------------------------------------------------
 Symbolic Z-matrix:
 Charge =  0 Multiplicity = 1

                         Standard orientation:
 ---------------------------------------------------------------------
 Center     Atomic      Atomic             Coordinates (Angstroms)
 Number     Number       Type             X           Y           Z
 ---------------------------------------------------------------------
      1          6           0       -4.364936   -2.269858   -0.067049
      2          6           0       -5.025492   -1.080743    0.258822
      3          6           0       -4.331726    0.132752    0.284653
      4          6           0       -2.971929    0.120497   -0.022090
      5          6           0       -2.285729   -1.047629   -0.350573
      6          6           0       -2.999570   -2.249542   -0.370172
      7          1           0       -4.911667   -3.208032   -0.084694
      8          1           0       -6.085802   -1.093515    0.494669
      9          1           0       -4.818337    1.067990    0.533569
     10          1           0       -1.228222   -1.003227   -0.581064
     11          1           0       -2.483977   -3.171487   -0.623599
     12          7           0       -2.226844    1.399039    0.001957
     13          8           0       -1.029314    1.361505   -0.272179
     14          8           0       -2.854484    2.414486    0.294486
     15          6           0        3.947359    0.855266   -0.156288
     16          6           0        2.622020    1.541618    0.175953
     17          6           0        2.609668    3.021219   -0.209306
     18          1           0        4.763354    1.377374    0.361882
     19          1           0        4.145069    0.956574   -1.232413
     20          1           0        2.426190    1.437847    1.250894
     21          1           0        1.809064    1.017698   -0.342915
     22          1           0        2.780108    3.140873   -1.284124
     23          1           0        3.400740    3.563410    0.318741
     24          1           0        1.652926    3.492225    0.036983
     25          6           0        3.975145   -0.624298    0.222986
     26          6           0        5.300482   -1.310650   -0.109257
     27          6           0        5.312835   -2.790250    0.276003
     28          1           0        3.777434   -0.725606    1.299109
     29          1           0        3.159150   -1.146407   -0.295185
     30          1           0        6.113439   -0.786729    0.409612
     31          1           0        5.496313   -1.206878   -1.184198
     32          1           0        4.521763   -3.332441   -0.252044
     33          1           0        5.142396   -2.909905    1.350821
     34          1           0        6.269577   -3.261256    0.029714
 ---------------------------------------------------------------------

 SCF Done:  E(RHF) =  -669.536003445     A.U. after   15 cycles
 E2 =    -0.2091086414D+01 EUMP2 =    -0.67162708985861D+03

 The electronic state is 1-A.
 Alpha  occ. eigenvalues --  -20.60923 -20.60913 -15.85959 -11.31284 -11.27850
 Alpha  occ. eigenvalues --  -11.27845 -11.27586 -11.26857 -11.26847 -11.21250
 Alpha  occ. eigenvalues --  -11.20894 -11.20873 -11.20564 -11.20306 -11.19709
 Alpha  occ. eigenvalues --   -1.59984  -1.39540  -1.19453  -1.08856  -1.07739
 Alpha  occ. eigenvalues --   -1.04851  -1.02735  -0.95700  -0.95219  -0.86252
 Alpha  occ. eigenvalues --   -0.86248  -0.82536  -0.78871  -0.77630  -0.77421
 Alpha  occ. eigenvalues --   -0.72184  -0.71298  -0.70563  -0.65112  -0.64854
 Alpha  occ. eigenvalues --   -0.64382  -0.62199  -0.60139  -0.58640  -0.56764
 Alpha  occ. eigenvalues --   -0.55354  -0.54544  -0.53182  -0.52943  -0.51882
 Alpha  occ. eigenvalues --   -0.51648  -0.49220  -0.48941  -0.48927  -0.47154
 Alpha  occ. eigenvalues --   -0.45934  -0.45076  -0.44937  -0.44840  -0.42999
 Alpha  occ. eigenvalues --   -0.37432  -0.36452
 Alpha virt. eigenvalues --    0.04948   0.11203   0.16444   0.21169   0.23387
 Alpha virt. eigenvalues --    0.25012   0.26437   0.27431   0.27721   0.28707
 Alpha virt. eigenvalues --    0.28837   0.30753   0.31791   0.32208   0.32970

 Mulliken charges:
               1
     1  C   -0.170627
     2  C   -0.218557
     3  C   -0.170820
     4  C    0.157701
     5  C   -0.170306
     6  C   -0.218559
     7  H    0.225981
     8  H    0.223780
     9  H    0.275824
    10  H    0.275412
    11  H    0.223882
    12  N    0.494948
    13  O   -0.466352
    14  O   -0.459540
    15  C   -0.298333
    16  C   -0.300536
    17  C   -0.476921
    18  H    0.146840
    19  H    0.147033
    20  H    0.148280
    21  H    0.166140
    22  H    0.150464
    23  H    0.147178
    24  H    0.175437
    25  C   -0.296038
    26  C   -0.298878
    27  C   -0.474933
    28  H    0.148320
    29  H    0.144294
    30  H    0.152064
    31  H    0.151214
    32  H    0.152023
    33  H    0.154414
    34  H    0.159166
 Sum of Mulliken charges =  -0.00000

 Dipole moment (field-independent basis, Debye):
    X=             -2.9287    Y=             -4.4213    Z=             -0.0869  Tot=              5.3041
 Quadrupole moment (field-independent basis, Debye-Ang):
   XX=            -76.7524   YY=            -96.3518   ZZ=            -94.5564
   XY=             11.2895   XZ=             -0.6829   YZ=              1.3224

 Normal termination of Gaussian 16 at Wed May  5 18:58:05 2021.
