 Gaussian 16, Revision A.03,
 Gaussian 16:  EM64L-G16RevA.03 25-Dec-2016

 -------------
 #p 6-31g* mp2
 -------------

 ------------------------------------------------------
 Input file generated by CHIRIPA (05-May-2021 14:57:21)
 ------------------------------------------------------
 Symbolic Z-matrix:
 Charge =  0 Multiplicity = 1

                         Standard orientation:
 ---------------------------------------------------------------------
 Center     Atomic      Atomic             Coordinates (Angstroms)
 Number     Number       Type             X           Y           Z
 ---------------------------------------------------------------------
      1          6           0        3.110917    2.355082   -0.620264
      2          6           0        4.377115    1.961261   -1.065424
      3          6           0        4.864856    0.682928   -0.778158
      4          6           0        4.056137   -0.179920   -0.040081
      5          6           0        2.790351    0.183049    0.417445
      6          6           0        2.322965    1.466286    0.118447
      7          1           0        2.739934    3.350027   -0.847976
      8          1           0        4.991237    2.649413   -1.639310
      9          1           0        5.841362    0.352097   -1.110431
     10          1           0        2.201224   -0.525041    0.987495
     11          1           0        1.339226    1.769414    0.465459
     12          7           0        4.561711   -1.535830    0.270245
     13          8           0        3.829759   -2.277337    0.922204
     14          8           0        5.680360   -1.831411   -0.144356
     15          6           0       -1.831279    0.797031    1.127172
     16          6           0       -3.003895    1.552113    1.233677
     17          6           0       -4.196219    1.096151    0.663579
     18          6           0       -4.179847   -0.124815   -0.008925
     19          6           0       -3.027811   -0.900017   -0.132063
     20          6           0       -1.846951   -0.424470    0.445842
     21          1           0       -0.909506    1.158840    1.573070
     22          1           0       -2.994683    2.501112    1.762223
     23          1           0       -5.118376    1.660508    0.731012
     24          1           0       -3.068168   -1.842173   -0.665103
     25          1           0       -0.937787   -1.012994    0.361554
     26          7           0       -5.436038   -0.617888   -0.616595
     27          8           0       -5.395297   -1.696815   -1.203872
     28          8           0       -6.437598    0.083905   -0.494104
 ---------------------------------------------------------------------

 SCF Done:  E(RHF) =  -868.336571442     A.U. after   16 cycles
 E2 =    -0.2599982206D+01 EUMP2 =    -0.87093655364776D+03

 The electronic state is 1-A.
 Alpha  occ. eigenvalues --  -20.61437 -20.61420 -20.61121 -20.61114 -15.86491
 Alpha  occ. eigenvalues --  -15.86177 -11.31968 -11.31688 -11.28650 -11.28492
 Alpha  occ. eigenvalues --  -11.28288 -11.28254 -11.28231 -11.28168 -11.27691
 Alpha  occ. eigenvalues --  -11.27509 -11.27365 -11.27352  -1.60504  -1.60192
 Alpha  occ. eigenvalues --   -1.40056  -1.39741  -1.20150  -1.19880  -1.09514
 Alpha  occ. eigenvalues --   -1.09282  -1.05591  -1.05289  -0.96333  -0.96089
 Alpha  occ. eigenvalues --   -0.86975  -0.86702  -0.83186  -0.82898  -0.78224
 Alpha  occ. eigenvalues --   -0.77893  -0.72705  -0.72394  -0.71829  -0.71515
 Alpha  occ. eigenvalues --   -0.71254  -0.71080  -0.65810  -0.65621  -0.65538
 Alpha  occ. eigenvalues --   -0.65305  -0.62961  -0.62609  -0.56093  -0.55881
 Alpha  occ. eigenvalues --   -0.53883  -0.53720  -0.53577  -0.53384  -0.49473
 Alpha  occ. eigenvalues --   -0.49455  -0.49166  -0.49138  -0.45438  -0.45113
 Alpha  occ. eigenvalues --   -0.38106  -0.37919  -0.37190  -0.36871
 Alpha virt. eigenvalues --    0.04340   0.04594   0.10459   0.10760   0.15790
 Alpha virt. eigenvalues --    0.15906   0.17596   0.22120   0.24802   0.25185
 Alpha virt. eigenvalues --    0.27863   0.28822   0.30229   0.31316   0.33181

 Mulliken charges:
               1
     1  C   -0.170489
     2  C   -0.217838
     3  C   -0.169606
     4  C    0.159846
     5  C   -0.173717
     6  C   -0.219397
     7  H    0.228139
     8  H    0.226632
     9  H    0.278354
    10  H    0.269836
    11  H    0.217580
    12  N    0.488175
    13  O   -0.461332
    14  O   -0.457159
    15  C   -0.175743
    16  C   -0.218024
    17  C   -0.170575
    18  C    0.159697
    19  C   -0.170102
    20  C   -0.218628
    21  H    0.218507
    22  H    0.223723
    23  H    0.277193
    24  H    0.279219
    25  H    0.225170
    26  N    0.487831
    27  O   -0.457991
    28  O   -0.459300
 Sum of Mulliken charges =  -0.00000

 Dipole moment (field-independent basis, Debye):
    X=              2.6816    Y=              6.4770    Z=              0.8895  Tot=              7.0664
 Quadrupole moment (field-independent basis, Debye-Ang):
   XX=           -150.1704   YY=           -104.0520   ZZ=           -104.4612
   XY=             11.0584   XZ=            -16.9966   YZ=              0.5517

 Normal termination of Gaussian 16 at Thu May  6 19:26:45 2021.
