 Gaussian 16, Revision A.03,
 Gaussian 16:  EM64L-G16RevA.03 25-Dec-2016

 -------------
 #p 6-31g* mp2
 -------------

 ------------------------------------------------------
 Input file generated by CHIRIPA (05-May-2021 14:55:21)
 ------------------------------------------------------
 Symbolic Z-matrix:
 Charge =  0 Multiplicity = 1

                         Standard orientation:
 ---------------------------------------------------------------------
 Center     Atomic      Atomic             Coordinates (Angstroms)
 Number     Number       Type             X           Y           Z
 ---------------------------------------------------------------------
      1          6           0       -6.099126   -0.115199    0.236818
      2          6           0       -5.426854   -1.324269    0.443504
      3          6           0       -4.041062   -1.403654    0.276686
      4          6           0       -3.355863   -0.249274   -0.099078
      5          6           0       -3.997186    0.969940   -0.312417
      6          6           0       -5.383408    1.026035   -0.139819
      7          1           0       -7.175809   -0.062576    0.368652
      8          1           0       -5.980110   -2.212170    0.736053
      9          1           0       -3.495483   -2.326806    0.430155
     10          1           0       -3.418494    1.838143   -0.603545
     11          1           0       -5.902869    1.966364   -0.301019
     12          7           0       -1.888560   -0.320988   -0.278740
     13          8           0       -1.307846    0.710291   -0.610209
     14          8           0       -1.346986   -1.407118   -0.084688
     15          6           0        5.337164    0.162687    0.254697
     16          6           0        5.854096   -1.144107   -0.347843
     17          6           0        7.320277   -1.412799   -0.007382
     18          1           0        5.957112    0.995335   -0.104895
     19          1           0        5.460985    0.129387    1.346005
     20          1           0        5.728063   -1.108913   -1.437564
     21          1           0        5.232728   -1.973719    0.013074
     22          1           0        7.458920   -1.474599    1.076850
     23          1           0        7.957071   -0.604880   -0.382031
     24          1           0        7.669179   -2.351895   -0.448093
     25          6           0        3.872929    0.445197   -0.076862
     26          6           0        3.355997    1.751991    0.525678
     27          6           0        1.889817    2.020682    0.185218
     28          1           0        3.749108    0.478497   -1.168171
     29          1           0        3.252981   -0.387451    0.282730
     30          1           0        3.977366    2.581603    0.164761
     31          1           0        3.482030    1.716797    1.615400
     32          1           0        1.253023    1.212764    0.559866
     33          1           0        1.751173    2.082483   -0.899015
     34          1           0        1.540915    2.959779    0.625929
 ---------------------------------------------------------------------

 SCF Done:  E(RHF) =  -669.535785094     A.U. after   15 cycles
 E2 =    -0.2090954271D+01 EUMP2 =    -0.67162673936466D+03

 The electronic state is 1-A.
 Alpha  occ. eigenvalues --  -20.60921 -20.60902 -15.85943 -11.31279 -11.27844
 Alpha  occ. eigenvalues --  -11.27839 -11.27583 -11.26853 -11.26843 -11.20780
 Alpha  occ. eigenvalues --  -11.20435 -11.20409 -11.20278 -11.20135 -11.19247
 Alpha  occ. eigenvalues --   -1.59979  -1.39532  -1.19448  -1.08851  -1.07347
 Alpha  occ. eigenvalues --   -1.04846  -1.02396  -0.95692  -0.94815  -0.86246
 Alpha  occ. eigenvalues --   -0.85821  -0.82521  -0.78486  -0.77574  -0.77110
 Alpha  occ. eigenvalues --   -0.72155  -0.71295  -0.70556  -0.65102  -0.64849
 Alpha  occ. eigenvalues --   -0.63989  -0.62192  -0.59802  -0.58262  -0.56428
 Alpha  occ. eigenvalues --   -0.55351  -0.54102  -0.53177  -0.52938  -0.51538
 Alpha  occ. eigenvalues --   -0.51241  -0.49025  -0.48923  -0.48636  -0.46728
 Alpha  occ. eigenvalues --   -0.45549  -0.44946  -0.44624  -0.44524  -0.42665
 Alpha  occ. eigenvalues --   -0.37428  -0.36448
 Alpha virt. eigenvalues --    0.04941   0.11207   0.16435   0.21345   0.23877
 Alpha virt. eigenvalues --    0.25469   0.27260   0.27723   0.28206   0.28562
 Alpha virt. eigenvalues --    0.29241   0.30912   0.32446   0.32574   0.32750

 Mulliken charges:
               1
     1  C   -0.170624
     2  C   -0.218593
     3  C   -0.170775
     4  C    0.158036
     5  C   -0.170846
     6  C   -0.218573
     7  H    0.225921
     8  H    0.223725
     9  H    0.275734
    10  H    0.276128
    11  H    0.223806
    12  N    0.488528
    13  O   -0.457992
    14  O   -0.460366
    15  C   -0.297424
    16  C   -0.299004
    17  C   -0.475083
    18  H    0.146695
    19  H    0.147095
    20  H    0.151366
    21  H    0.152834
    22  H    0.153823
    23  H    0.153606
    24  H    0.158135
    25  C   -0.297762
    26  C   -0.300911
    27  C   -0.472695
    28  H    0.149335
    29  H    0.155510
    30  H    0.145259
    31  H    0.146324
    32  H    0.173174
    33  H    0.156441
    34  H    0.149174
 Sum of Mulliken charges =  -0.00000

 Dipole moment (field-independent basis, Debye):
    X=             -5.5527    Y=              0.1631    Z=              0.5786  Tot=              5.5851
 Quadrupole moment (field-independent basis, Debye-Ang):
   XX=            -63.2332   YY=            -90.5228   ZZ=            -94.8668
   XY=              0.6778   XZ=             -2.2837   YZ=             -2.1090

 Normal termination of Gaussian 16 at Thu May  6 14:09:58 2021.
