 Gaussian 16, Revision A.03,
 Gaussian 16:  EM64L-G16RevA.03 25-Dec-2016

 -------------
 #p 6-31g* mp2
 -------------

 ------------------------------------------------------
 Input file generated by CHIRIPA (05-May-2021 14:53:15)
 ------------------------------------------------------
 Symbolic Z-matrix:
 Charge =  0 Multiplicity = 1

                         Standard orientation:
 ---------------------------------------------------------------------
 Center     Atomic      Atomic             Coordinates (Angstroms)
 Number     Number       Type             X           Y           Z
 ---------------------------------------------------------------------
      1          6           0        4.026311    0.916913    0.341436
      2          6           0        3.159217    1.974167   -0.342922
      3          6           0        3.446755    3.389622    0.158678
      4          1           0        3.861827    0.963360    1.426670
      5          1           0        5.085452    1.157727    0.175237
      6          1           0        2.102015    1.730664   -0.176650
      7          1           0        3.325640    1.925069   -1.426670
      8          1           0        4.492939    3.657149   -0.021683
      9          1           0        3.262362    3.461639    1.235439
     10          1           0        2.815904    4.129500   -0.343785
     11          6           0        3.750480   -0.503193   -0.149427
     12          6           0        4.617574   -1.560447    0.534932
     13          6           0        4.330036   -2.975902    0.033331
     14          1           0        2.691339   -0.744007    0.016772
     15          1           0        3.914964   -0.549640   -1.234661
     16          1           0        4.451151   -1.511349    1.618679
     17          1           0        5.674776   -1.316944    0.368659
     18          1           0        4.514429   -3.047919   -1.043430
     19          1           0        3.283852   -3.243429    0.213692
     20          1           0        4.960887   -3.715780    0.535794
     21          6           0       -0.615277   -0.675935   -0.557426
     22          6           0       -1.050461    0.652053   -0.497542
     23          6           0       -2.390402    0.948777   -0.230970
     24          6           0       -3.272010   -0.111886   -0.028365
     25          6           0       -2.868939   -1.445299   -0.081590
     26          6           0       -1.524302   -1.718534   -0.349626
     27          1           0        0.427445   -0.897314   -0.765074
     28          1           0       -0.346727    1.463774   -0.658512
     29          1           0       -2.754231    1.967767   -0.178927
     30          1           0       -3.593920   -2.233124    0.083192
     31          1           0       -1.189154   -2.750819   -0.395538
     32          7           0       -4.693032    0.189810    0.254617
     33          8           0       -5.449920   -0.762653    0.429468
     34          8           0       -5.023033    1.373027    0.296210
 ---------------------------------------------------------------------

 SCF Done:  E(RHF) =  -669.535360903     A.U. after   15 cycles
 E2 =    -0.2092083727D+01 EUMP2 =    -0.67162744463020D+03

 The electronic state is 1-A.
 Alpha  occ. eigenvalues --  -20.60729 -20.60724 -15.85783 -11.31141 -11.27711
 Alpha  occ. eigenvalues --  -11.27705 -11.27407 -11.26718 -11.26695 -11.22759
 Alpha  occ. eigenvalues --  -11.22592 -11.22518 -11.22393 -11.21983 -11.21960
 Alpha  occ. eigenvalues --   -1.59805  -1.39359  -1.19310  -1.09497  -1.08703
 Alpha  occ. eigenvalues --   -1.04715  -1.04526  -0.96960  -0.95542  -0.87972
 Alpha  occ. eigenvalues --   -0.86113  -0.82378  -0.80605  -0.79355  -0.77425
 Alpha  occ. eigenvalues --   -0.72001  -0.71128  -0.70430  -0.66137  -0.64959
 Alpha  occ. eigenvalues --   -0.64712  -0.62132  -0.61854  -0.60329  -0.58593
 Alpha  occ. eigenvalues --   -0.56273  -0.55204  -0.53627  -0.53372  -0.53042
 Alpha  occ. eigenvalues --   -0.52813  -0.50887  -0.48928  -0.48756  -0.48737
 Alpha  occ. eigenvalues --   -0.47626  -0.46855  -0.46773  -0.44797  -0.44766
 Alpha  occ. eigenvalues --   -0.37282  -0.36319
 Alpha virt. eigenvalues --    0.05094   0.11290   0.16532   0.19090   0.22538
 Alpha virt. eigenvalues --    0.22753   0.25060   0.26067   0.26240   0.27251
 Alpha virt. eigenvalues --    0.29516   0.30664   0.30829   0.31255   0.31486

 Mulliken charges:
               1
     1  C   -0.297959
     2  C   -0.305667
     3  C   -0.476206
     4  H    0.153342
     5  H    0.154294
     6  H    0.144852
     7  H    0.153908
     8  H    0.159221
     9  H    0.158292
    10  H    0.161122
    11  C   -0.305008
    12  C   -0.299808
    13  C   -0.476024
    14  H    0.143712
    15  H    0.151067
    16  H    0.154991
    17  H    0.155847
    18  H    0.156300
    19  H    0.150408
    20  H    0.164723
    21  C   -0.178227
    22  C   -0.225889
    23  C   -0.171164
    24  C    0.158683
    25  C   -0.170931
    26  C   -0.220250
    27  H    0.235501
    28  H    0.229439
    29  H    0.275677
    30  H    0.275399
    31  H    0.223489
    32  N    0.487938
    33  O   -0.460550
    34  O   -0.460524
 Sum of Mulliken charges =  -0.00000

 Dipole moment (field-independent basis, Debye):
    X=              5.3109    Y=             -1.0206    Z=             -0.9456  Tot=              5.4901
 Quadrupole moment (field-independent basis, Debye-Ang):
   XX=           -126.1395   YY=            -90.4798   ZZ=            -95.0605
   XY=              4.1429   XZ=              2.7328   YZ=             -0.5465

 Normal termination of Gaussian 16 at Thu May  6 07:26:24 2021.
