 Gaussian 16, Revision A.03,
 Gaussian 16:  EM64L-G16RevA.03 25-Dec-2016

 -------------
 #p 6-31g* mp2
 -------------

 ------------------------------------------------------
 Input file generated by CHIRIPA (05-May-2021 14:57:21)
 ------------------------------------------------------
 Symbolic Z-matrix:
 Charge =  0 Multiplicity = 1

                         Standard orientation:
 ---------------------------------------------------------------------
 Center     Atomic      Atomic             Coordinates (Angstroms)
 Number     Number       Type             X           Y           Z
 ---------------------------------------------------------------------
      1          6           0        2.365124    1.413847    1.784251
      2          6           0        3.703280    1.698354    1.492850
      3          6           0        4.391442    0.960865    0.524815
      4          6           0        3.707587   -0.058720   -0.135549
      5          6           0        2.374576   -0.366236    0.132419
      6          6           0        1.706205    0.384275    1.104304
      7          1           0        1.838231    1.991804    2.537739
      8          1           0        4.217536    2.497360    2.019326
      9          1           0        5.427598    1.159896    0.279490
     10          1           0        1.888602   -1.168769   -0.409048
     11          1           0        0.666996    0.161098    1.328541
     12          7           0        4.425637   -0.846359   -1.162402
     13          8           0        3.800652   -1.739511   -1.730126
     14          8           0        5.599834   -0.555646   -1.380082
     15          6           0       -4.186315    1.926697   -1.454346
     16          6           0       -2.997388    1.921958   -0.717494
     17          6           0       -2.656419    0.820458    0.073066
     18          6           0       -3.531521   -0.264232    0.103654
     19          6           0       -4.723252   -0.289484   -0.619138
     20          6           0       -5.043941    0.822906   -1.402907
     21          1           0       -4.443311    2.786599   -2.065835
     22          1           0       -2.329437    2.777784   -0.755531
     23          1           0       -1.742322    0.790341    0.653528
     24          1           0       -5.368996   -1.157276   -0.561084
     25          1           0       -5.967941    0.823815   -1.974105
     26          7           0       -3.181288   -1.436106    0.936991
     27          8           0       -3.969226   -2.379340    0.946939
     28          8           0       -2.125469   -1.389195    1.564432
 ---------------------------------------------------------------------

 SCF Done:  E(RHF) =  -868.338432430     A.U. after   16 cycles
 E2 =    -0.2599490371D+01 EUMP2 =    -0.87093792280146D+03

 The electronic state is 1-A.
 Alpha  occ. eigenvalues --  -20.61568 -20.61516 -20.60620 -20.60611 -15.86584
 Alpha  occ. eigenvalues --  -15.85670 -11.31850 -11.31036 -11.28489 -11.28340
 Alpha  occ. eigenvalues --  -11.28068 -11.27631 -11.27562 -11.27399 -11.27377
 Alpha  occ. eigenvalues --  -11.27332 -11.26656 -11.26562  -1.60601  -1.59694
 Alpha  occ. eigenvalues --   -1.40167  -1.39246  -1.19996  -1.19213  -1.09398
 Alpha  occ. eigenvalues --   -1.08617  -1.05391  -1.04604  -0.96260  -0.95448
 Alpha  occ. eigenvalues --   -0.86795  -0.86010  -0.83101  -0.82268  -0.78187
 Alpha  occ. eigenvalues --   -0.77304  -0.72807  -0.71911  -0.71888  -0.71111
 Alpha  occ. eigenvalues --   -0.71018  -0.70332  -0.65653  -0.65413  -0.64862
 Alpha  occ. eigenvalues --   -0.64593  -0.62774  -0.61908  -0.55870  -0.55133
 Alpha  occ. eigenvalues --   -0.53708  -0.53506  -0.52950  -0.52656  -0.49576
 Alpha  occ. eigenvalues --   -0.49529  -0.48648  -0.48641  -0.45590  -0.44651
 Alpha  occ. eigenvalues --   -0.37944  -0.37221  -0.36982  -0.36210
 Alpha virt. eigenvalues --    0.04361   0.05209   0.10663   0.11377   0.15897
 Alpha virt. eigenvalues --    0.16658   0.19466   0.21913   0.25069   0.27171
 Alpha virt. eigenvalues --    0.28445   0.28888   0.30076   0.31110   0.32248

 Mulliken charges:
               1
     1  C   -0.173042
     2  C   -0.218710
     3  C   -0.171431
     4  C    0.158422
     5  C   -0.172159
     6  C   -0.233283
     7  H    0.224184
     8  H    0.222352
     9  H    0.275002
    10  H    0.279506
    11  H    0.240991
    12  N    0.487953
    13  O   -0.459278
    14  O   -0.461466
    15  C   -0.169781
    16  C   -0.219822
    17  C   -0.171695
    18  C    0.158009
    19  C   -0.169398
    20  C   -0.218063
    21  H    0.228263
    22  H    0.224870
    23  H    0.270634
    24  H    0.277680
    25  H    0.226245
    26  N    0.490191
    27  O   -0.454129
    28  O   -0.472044
 Sum of Mulliken charges =  -0.00000

 Dipole moment (field-independent basis, Debye):
    X=             -4.0663    Y=              6.8372    Z=              0.5690  Tot=              7.9753
 Quadrupole moment (field-independent basis, Debye-Ang):
   XX=           -107.2113   YY=           -105.6998   ZZ=           -107.2969
   XY=              0.7542   XZ=             26.7616   YZ=              1.6659

 Normal termination of Gaussian 16 at Thu May  6 19:29:02 2021.
