 Gaussian 16, Revision A.03,
 Gaussian 16:  EM64L-G16RevA.03 25-Dec-2016

 -------------
 #p 6-31g* mp2
 -------------

 ------------------------------------------------------
 Input file generated by CHIRIPA (05-May-2021 14:57:23)
 ------------------------------------------------------
 Symbolic Z-matrix:
 Charge =  0 Multiplicity = 1

                         Standard orientation:
 ---------------------------------------------------------------------
 Center     Atomic      Atomic             Coordinates (Angstroms)
 Number     Number       Type             X           Y           Z
 ---------------------------------------------------------------------
      1          6           0        3.691209   -2.293723    0.041213
      2          6           0        2.484878   -1.756114   -0.419507
      3          6           0        2.283221   -0.372747   -0.432866
      4          6           0        3.313864    0.447370    0.023720
      5          6           0        4.526975   -0.057985    0.488766
      6          6           0        4.706617   -1.444441    0.493082
      7          1           0        3.839311   -3.369556    0.048079
      8          1           0        1.694545   -2.413269   -0.771024
      9          1           0        1.359214    0.070169   -0.784230
     10          1           0        5.296334    0.622482    0.832960
     11          1           0        5.644507   -1.859155    0.851440
     12          7           0        3.112032    1.913513    0.014364
     13          8           0        4.035636    2.614609    0.421866
     14          8           0        2.034053    2.333820   -0.400294
     15          6           0       -4.687194    1.920170    0.199873
     16          6           0       -3.468455    1.930312   -0.486490
     17          6           0       -2.717553    0.758326   -0.617416
     18          6           0       -3.217576   -0.411256   -0.047028
     19          6           0       -4.428243   -0.453464    0.642751
     20          6           0       -5.162361    0.730413    0.761313
     21          1           0       -5.263994    2.835216    0.296777
     22          1           0       -3.096975    2.852832   -0.923530
     23          1           0       -1.770874    0.737852   -1.143535
     24          1           0       -4.772626   -1.388477    1.067683
     25          1           0       -6.108516    0.719567    1.294900
     26          7           0       -2.431514   -1.658279   -0.179089
     27          8           0       -2.893924   -2.675681    0.332485
     28          8           0       -1.367870   -1.594681   -0.791671
 ---------------------------------------------------------------------

 SCF Done:  E(RHF) =  -868.341464018     A.U. after   16 cycles
 E2 =    -0.2598627489D+01 EUMP2 =    -0.87094009150695D+03

 The electronic state is 1-A.
 Alpha  occ. eigenvalues --  -20.61439 -20.61390 -20.60447 -20.60421 -15.86435
 Alpha  occ. eigenvalues --  -15.85474 -11.31389 -11.30508 -11.27922 -11.27886
 Alpha  occ. eigenvalues --  -11.27571 -11.27076 -11.26914 -11.26861 -11.26777
 Alpha  occ. eigenvalues --  -11.26681 -11.26061 -11.25749  -1.60464  -1.59512
 Alpha  occ. eigenvalues --   -1.40036  -1.39077  -1.19521  -1.18632  -1.08992
 Alpha  occ. eigenvalues --   -1.08095  -1.04855  -1.03948  -0.95898  -0.94988
 Alpha  occ. eigenvalues --   -0.86279  -0.85377  -0.82754  -0.81808  -0.77841
 Alpha  occ. eigenvalues --   -0.76890  -0.72687  -0.71755  -0.71707  -0.70823
 Alpha  occ. eigenvalues --   -0.70630  -0.69746  -0.65179  -0.64852  -0.64267
 Alpha  occ. eigenvalues --   -0.63916  -0.62209  -0.61270  -0.55381  -0.54494
 Alpha  occ. eigenvalues --   -0.53211  -0.52942  -0.52345  -0.52008  -0.49438
 Alpha  occ. eigenvalues --   -0.49375  -0.48476  -0.48422  -0.45524  -0.44555
 Alpha  occ. eigenvalues --   -0.37480  -0.36625  -0.36434  -0.35543
 Alpha virt. eigenvalues --    0.04643   0.05581   0.11211   0.12092   0.16220
 Alpha virt. eigenvalues --    0.17164   0.20651   0.22400   0.25525   0.27642
 Alpha virt. eigenvalues --    0.28693   0.29469   0.31023   0.31543   0.32093

 Mulliken charges:
               1
     1  C   -0.171743
     2  C   -0.223159
     3  C   -0.174006
     4  C    0.158093
     5  C   -0.172851
     6  C   -0.218872
     7  H    0.225226
     8  H    0.244612
     9  H    0.277459
    10  H    0.272147
    11  H    0.220509
    12  N    0.488679
    13  O   -0.461890
    14  O   -0.467750
    15  C   -0.169667
    16  C   -0.218484
    17  C   -0.169857
    18  C    0.157193
    19  C   -0.170616
    20  C   -0.218730
    21  H    0.227675
    22  H    0.230241
    23  H    0.277282
    24  H    0.274811
    25  H    0.224055
    26  N    0.492413
    27  O   -0.457081
    28  O   -0.475688
 Sum of Mulliken charges =  -0.00000

 Dipole moment (field-independent basis, Debye):
    X=             -2.4602    Y=             -0.8400    Z=              0.4783  Tot=              2.6433
 Quadrupole moment (field-independent basis, Debye-Ang):
   XX=            -76.3064   YY=           -112.4693   ZZ=           -104.2555
   XY=            -28.2841   XZ=             -1.5822   YZ=             -1.7138

 Normal termination of Gaussian 16 at Thu May  6 03:26:05 2021.
