 Gaussian 16, Revision A.03,
 Gaussian 16:  EM64L-G16RevA.03 25-Dec-2016

 -------------
 #p 6-31g* mp2
 -------------

 ------------------------------------------------------
 Input file generated by CHIRIPA (05-May-2021 14:55:23)
 ------------------------------------------------------
 Symbolic Z-matrix:
 Charge =  0 Multiplicity = 1

                         Standard orientation:
 ---------------------------------------------------------------------
 Center     Atomic      Atomic             Coordinates (Angstroms)
 Number     Number       Type             X           Y           Z
 ---------------------------------------------------------------------
      1          6           0       -2.443600    2.460231   -0.466324
      2          6           0       -3.407968    2.002040    0.437323
      3          6           0       -3.671005    0.634656    0.562311
      4          6           0       -2.947805   -0.250635   -0.235519
      5          6           0       -1.980795    0.174929   -1.144955
      6          6           0       -1.734342    1.546824   -1.253192
      7          1           0       -2.245708    3.524199   -0.556911
      8          1           0       -3.960318    2.709114    1.049696
      9          1           0       -4.412126    0.252638    1.253844
     10          1           0       -1.446312   -0.554046   -1.741898
     11          1           0       -0.984829    1.899799   -1.955818
     12          7           0       -3.217492   -1.700610   -0.112067
     13          8           0       -2.566737   -2.460182   -0.826354
     14          8           0       -4.074521   -2.050074    0.696645
     15          6           0        3.072353   -0.245608    0.645136
     16          6           0        1.954641    0.796737    0.692300
     17          6           0        0.672838    0.260554    1.330485
     18          1           0        2.722394   -1.124150    0.085996
     19          1           0        3.286399   -0.589983    1.666402
     20          1           0        1.743719    1.140057   -0.328611
     21          1           0        2.307369    1.672977    1.251230
     22          1           0        0.861252   -0.064455    2.358819
     23          1           0        0.294401   -0.600403    0.770002
     24          1           0       -0.112911    1.022070    1.353943
     25          6           0        4.360243    0.275462    0.009878
     26          6           0        5.477954   -0.766883   -0.037286
     27          6           0        6.759758   -0.230700   -0.675471
     28          1           0        4.146197    0.619837   -1.011388
     29          1           0        4.710203    1.154003    0.569019
     30          1           0        5.125227   -1.643123   -0.596215
     31          1           0        5.688877   -1.110202    0.983625
     32          1           0        7.138195    0.630257   -0.114988
     33          1           0        6.571343    0.094309   -1.703805
     34          1           0        7.545508   -0.992216   -0.698928
 ---------------------------------------------------------------------

 SCF Done:  E(RHF) =  -669.534874529     A.U. after   15 cycles
 E2 =    -0.2093202419D+01 EUMP2 =    -0.67162807694795D+03

 The electronic state is 1-A.
 Alpha  occ. eigenvalues --  -20.60794 -20.60789 -15.85845 -11.31199 -11.27802
 Alpha  occ. eigenvalues --  -11.27774 -11.27553 -11.26826 -11.26787 -11.21842
 Alpha  occ. eigenvalues --  -11.21698 -11.21553 -11.21484 -11.21175 -11.21037
 Alpha  occ. eigenvalues --   -1.59867  -1.39421  -1.19401  -1.08795  -1.08574
 Alpha  occ. eigenvalues --   -1.04811  -1.03651  -0.96084  -0.95623  -0.87100
 Alpha  occ. eigenvalues --   -0.86203  -0.82457  -0.79726  -0.78391  -0.77501
 Alpha  occ. eigenvalues --   -0.72066  -0.71188  -0.70516  -0.65216  -0.65053
 Alpha  occ. eigenvalues --   -0.64810  -0.62161  -0.61070  -0.59491  -0.57719
 Alpha  occ. eigenvalues --   -0.55446  -0.55303  -0.53462  -0.52901  -0.52550
 Alpha  occ. eigenvalues --   -0.52287  -0.49997  -0.48825  -0.48819  -0.48034
 Alpha  occ. eigenvalues --   -0.46774  -0.45928  -0.45865  -0.44822  -0.43889
 Alpha  occ. eigenvalues --   -0.37365  -0.36347
 Alpha virt. eigenvalues --    0.05027   0.11183   0.16455   0.20941   0.22802
 Alpha virt. eigenvalues --    0.24141   0.26068   0.26963   0.27618   0.27983
 Alpha virt. eigenvalues --    0.28338   0.30323   0.31297   0.31567   0.32041

 Mulliken charges:
               1
     1  C   -0.172310
     2  C   -0.218816
     3  C   -0.170763
     4  C    0.160994
     5  C   -0.168283
     6  C   -0.216456
     7  H    0.226076
     8  H    0.223800
     9  H    0.275929
    10  H    0.274977
    11  H    0.223635
    12  N    0.488091
    13  O   -0.461135
    14  O   -0.460061
    15  C   -0.298655
    16  C   -0.299065
    17  C   -0.478843
    18  H    0.152024
    19  H    0.151614
    20  H    0.142561
    21  H    0.150684
    22  H    0.155417
    23  H    0.156903
    24  H    0.162702
    25  C   -0.297868
    26  C   -0.299935
    27  C   -0.475718
    28  H    0.146859
    29  H    0.148991
    30  H    0.153305
    31  H    0.152953
    32  H    0.154785
    33  H    0.154416
    34  H    0.161192
 Sum of Mulliken charges =  -0.00000

 Dipole moment (field-independent basis, Debye):
    X=              0.8825    Y=              5.0748    Z=             -0.4155  Tot=              5.1677
 Quadrupole moment (field-independent basis, Debye-Ang):
   XX=            -99.1723   YY=            -97.7537   ZZ=            -91.9252
   XY=            -16.5742   XZ=             -0.9574   YZ=              0.0108

 Normal termination of Gaussian 16 at Thu May  6 12:36:43 2021.
