 Gaussian 16, Revision A.03,
 Gaussian 16:  EM64L-G16RevA.03 25-Dec-2016

 -------------
 #p 6-31g* mp2
 -------------

 ------------------------------------------------------
 Input file generated by CHIRIPA (05-May-2021 14:55:23)
 ------------------------------------------------------
 Symbolic Z-matrix:
 Charge =  0 Multiplicity = 1

                         Standard orientation:
 ---------------------------------------------------------------------
 Center     Atomic      Atomic             Coordinates (Angstroms)
 Number     Number       Type             X           Y           Z
 ---------------------------------------------------------------------
      1          6           0       -2.204903    2.169916    0.326265
      2          6           0       -1.454567    1.104088   -0.181207
      3          6           0       -2.039603   -0.152401   -0.364282
      4          6           0       -3.383403   -0.308390   -0.027891
      5          6           0       -4.157332    0.734021    0.479754
      6          6           0       -3.551517    1.981812    0.654547
      7          1           0       -1.742362    3.142608    0.465266
      8          1           0       -0.408571    1.247266   -0.437017
      9          1           0       -1.481969   -0.994735   -0.755351
     10          1           0       -5.197951    0.560671    0.725680
     11          1           0       -4.136675    2.807744    1.048846
     12          7           0       -4.013754   -1.633974   -0.217321
     13          8           0       -5.199401   -1.745547    0.086705
     14          8           0       -3.310241   -2.536295   -0.666234
     15          6           0        4.694606   -0.422171   -0.223210
     16          6           0        4.756327   -1.615796    0.730433
     17          6           0        5.754703   -2.682179    0.278920
     18          1           0        4.425270   -0.776881   -1.227494
     19          1           0        5.695528    0.023380   -0.307087
     20          1           0        3.755298   -2.058118    0.813560
     21          1           0        5.025360   -1.258179    1.732603
     22          1           0        6.763716   -2.262337    0.213900
     23          1           0        5.486438   -3.066821   -0.710365
     24          1           0        5.782691   -3.526317    0.974985
     25          6           0        3.700949    0.652360    0.214688
     26          6           0        3.639229    1.845985   -0.738956
     27          6           0        2.640852    2.912368   -0.287442
     28          1           0        2.700028    0.206809    0.298564
     29          1           0        3.970286    1.007070    1.218971
     30          1           0        3.370195    1.488368   -1.741126
     31          1           0        4.640257    2.288307   -0.822084
     32          1           0        2.909118    3.297010    0.701842
     33          1           0        1.631839    2.492526   -0.222422
     34          1           0        2.612865    3.756507   -0.983508
 ---------------------------------------------------------------------

 SCF Done:  E(RHF) =  -669.535466095     A.U. after   15 cycles
 E2 =    -0.2090948694D+01 EUMP2 =    -0.67162641478853D+03

 The electronic state is 1-A.
 Alpha  occ. eigenvalues --  -20.60752 -20.60747 -15.85806 -11.31167 -11.27740
 Alpha  occ. eigenvalues --  -11.27736 -11.27471 -11.26749 -11.26735 -11.22427
 Alpha  occ. eigenvalues --  -11.22178 -11.22100 -11.21975 -11.21873 -11.21334
 Alpha  occ. eigenvalues --   -1.59828  -1.39381  -1.19340  -1.09057  -1.08734
 Alpha  occ. eigenvalues --   -1.04746  -1.04161  -0.96628  -0.95569  -0.87648
 Alpha  occ. eigenvalues --   -0.86145  -0.82404  -0.80235  -0.78828  -0.77455
 Alpha  occ. eigenvalues --   -0.72024  -0.71151  -0.70444  -0.65715  -0.64993
 Alpha  occ. eigenvalues --   -0.64766  -0.62149  -0.61519  -0.60006  -0.58211
 Alpha  occ. eigenvalues --   -0.55946  -0.55234  -0.53316  -0.53108  -0.53070
 Alpha  occ. eigenvalues --   -0.52791  -0.50572  -0.48790  -0.48779  -0.48532
 Alpha  occ. eigenvalues --   -0.47262  -0.46375  -0.46280  -0.44788  -0.44401
 Alpha  occ. eigenvalues --   -0.37317  -0.36349
 Alpha virt. eigenvalues --    0.05085   0.11295   0.16573   0.18941   0.22596
 Alpha virt. eigenvalues --    0.23704   0.25320   0.26455   0.26973   0.28295
 Alpha virt. eigenvalues --    0.28656   0.30290   0.31018   0.31587   0.31792

 Mulliken charges:
               1
     1  C   -0.172941
     2  C   -0.225642
     3  C   -0.172218
     4  C    0.159007
     5  C   -0.171195
     6  C   -0.218620
     7  H    0.226256
     8  H    0.233282
     9  H    0.275696
    10  H    0.275555
    11  H    0.223441
    12  N    0.487948
    13  O   -0.460471
    14  O   -0.460577
    15  C   -0.298924
    16  C   -0.300246
    17  C   -0.476162
    18  H    0.150534
    19  H    0.151132
    20  H    0.152828
    21  H    0.152580
    22  H    0.155462
    23  H    0.156257
    24  H    0.162314
    25  C   -0.298072
    26  C   -0.300456
    27  C   -0.479276
    28  H    0.144348
    29  H    0.151860
    30  H    0.152778
    31  H    0.156263
    32  H    0.159371
    33  H    0.144299
    34  H    0.163589
 Sum of Mulliken charges =  -0.00000

 Dipole moment (field-independent basis, Debye):
    X=              2.4259    Y=              4.6724    Z=              0.6835  Tot=              5.3088
 Quadrupole moment (field-independent basis, Debye-Ang):
   XX=           -105.1500   YY=            -97.8458   ZZ=            -94.7278
   XY=            -17.4880   XZ=             -3.5652   YZ=              0.5116

 Normal termination of Gaussian 16 at Thu May  6 03:06:58 2021.
