 Gaussian 16, Revision A.03,
 Gaussian 16:  EM64L-G16RevA.03 25-Dec-2016

 -------------
 #p 6-31g* mp2
 -------------

 ------------------------------------------------------
 Input file generated by CHIRIPA (05-May-2021 14:53:16)
 ------------------------------------------------------
 Symbolic Z-matrix:
 Charge =  0 Multiplicity = 1

                         Standard orientation:
 ---------------------------------------------------------------------
 Center     Atomic      Atomic             Coordinates (Angstroms)
 Number     Number       Type             X           Y           Z
 ---------------------------------------------------------------------
      1          6           0       -3.877740    0.454991   -0.538949
      2          6           0       -3.018210    1.332920    0.371234
      3          6           0       -1.834652    1.964364   -0.362429
      4          1           0       -3.250686   -0.335015   -0.974424
      5          1           0       -4.246319    1.060078   -1.378838
      6          1           0       -2.652497    0.726695    1.209900
      7          1           0       -3.647425    2.120813    0.804743
      8          1           0       -2.184003    2.592254   -1.188449
      9          1           0       -1.183422    1.190215   -0.780990
     10          1           0       -1.233689    2.587780    0.306942
     11          6           0       -5.064900   -0.183280    0.180071
     12          6           0       -5.924430   -1.061209   -0.730113
     13          6           0       -7.107988   -1.692654    0.003550
     14          1           0       -4.696321   -0.788367    1.019960
     15          1           0       -5.691955    0.606726    0.615546
     16          1           0       -5.295215   -1.849102   -1.163622
     17          1           0       -6.290143   -0.454984   -1.568778
     18          1           0       -7.759219   -0.918504    0.422111
     19          1           0       -6.758637   -2.320544    0.829570
     20          1           0       -7.708951   -2.316069   -0.665820
     21          6           0        5.532103   -0.954324   -1.080244
     22          6           0        4.737163    0.043155   -1.654374
     23          6           0        3.605175    0.520676   -0.987196
     24          6           0        3.296107   -0.024137    0.258173
     25          6           0        4.068269   -1.018747    0.856344
     26          6           0        5.195712   -1.481163    0.171077
     27          1           0        6.409694   -1.319407   -1.605549
     28          1           0        4.995996    0.454147   -2.626041
     29          1           0        2.972238    1.292187   -1.408595
     30          1           0        3.784828   -1.409041    1.826266
     31          1           0        5.811238   -2.255892    0.619372
     32          7           0        2.100128    0.473396    0.974060
     33          8           0        1.849302   -0.022966    2.070120
     34          8           0        1.436191    1.350305    0.425556
 ---------------------------------------------------------------------

 SCF Done:  E(RHF) =  -669.535486696     A.U. after   15 cycles
 E2 =    -0.2091089104D+01 EUMP2 =    -0.67162657580026D+03

 The electronic state is 1-A.
 Alpha  occ. eigenvalues --  -20.60909 -20.60894 -15.85934 -11.31276 -11.27842
 Alpha  occ. eigenvalues --  -11.27837 -11.27582 -11.26853 -11.26843 -11.21007
 Alpha  occ. eigenvalues --  -11.20612 -11.20575 -11.20425 -11.20274 -11.19334
 Alpha  occ. eigenvalues --   -1.59972  -1.39527  -1.19447  -1.08849  -1.07530
 Alpha  occ. eigenvalues --   -1.04845  -1.02528  -0.95695  -0.94954  -0.86247
 Alpha  occ. eigenvalues --   -0.85979  -0.82520  -0.78641  -0.77573  -0.77300
 Alpha  occ. eigenvalues --   -0.72163  -0.71290  -0.70555  -0.65103  -0.64849
 Alpha  occ. eigenvalues --   -0.64170  -0.62192  -0.59928  -0.58392  -0.56551
 Alpha  occ. eigenvalues --   -0.55350  -0.54263  -0.53177  -0.52937  -0.51616
 Alpha  occ. eigenvalues --   -0.51403  -0.49098  -0.48919  -0.48729  -0.46935
 Alpha  occ. eigenvalues --   -0.45728  -0.44996  -0.44811  -0.44646  -0.42758
 Alpha  occ. eigenvalues --   -0.37427  -0.36448
 Alpha virt. eigenvalues --    0.04941   0.11206   0.16422   0.21335   0.23701
 Alpha virt. eigenvalues --    0.25387   0.27246   0.27492   0.28148   0.28349
 Alpha virt. eigenvalues --    0.29158   0.30901   0.32211   0.32524   0.32706

 Mulliken charges:
               1
     1  C   -0.297166
     2  C   -0.301386
     3  C   -0.470310
     4  H    0.147185
     5  H    0.145959
     6  H    0.156997
     7  H    0.146684
     8  H    0.141661
     9  H    0.157565
    10  H    0.174282
    11  C   -0.297620
    12  C   -0.298779
    13  C   -0.475194
    14  H    0.149847
    15  H    0.148350
    16  H    0.150432
    17  H    0.150372
    18  H    0.154555
    19  H    0.154840
    20  H    0.157949
    21  C   -0.170666
    22  C   -0.218539
    23  C   -0.171095
    24  C    0.157693
    25  C   -0.170733
    26  C   -0.218583
    27  H    0.225923
    28  H    0.223844
    29  H    0.276133
    30  H    0.275747
    31  H    0.223722
    32  N    0.489970
    33  O   -0.460003
    34  O   -0.459636
 Sum of Mulliken charges =  -0.00000

 Dipole moment (field-independent basis, Debye):
    X=              4.5587    Y=             -1.7248    Z=             -2.4252  Tot=              5.4440
 Quadrupole moment (field-independent basis, Debye-Ang):
   XX=            -69.2237   YY=            -92.9374   ZZ=            -93.7532
   XY=             -7.6672   XZ=             -6.4522   YZ=             -3.0044

 Normal termination of Gaussian 16 at Thu May  6 20:27:41 2021.
