 Gaussian 16, Revision A.03,
 Gaussian 16:  EM64L-G16RevA.03 25-Dec-2016

 -------------
 #p 6-31g* mp2
 -------------

 ------------------------------------------------------
 Input file generated by CHIRIPA (05-May-2021 14:53:13)
 ------------------------------------------------------
 Symbolic Z-matrix:
 Charge =  0 Multiplicity = 1

                         Standard orientation:
 ---------------------------------------------------------------------
 Center     Atomic      Atomic             Coordinates (Angstroms)
 Number     Number       Type             X           Y           Z
 ---------------------------------------------------------------------
      1          6           0       -3.583407   -0.600089   -0.216704
      2          6           0       -2.914426   -1.698853    0.609835
      3          6           0       -1.499711   -2.022297    0.128421
      4          1           0       -3.614983   -0.910313   -1.270132
      5          1           0       -2.964986    0.307287   -0.176479
      6          1           0       -3.534626   -2.603462    0.569194
      7          1           0       -2.884612   -1.386060    1.661447
      8          1           0       -0.861109   -1.134855    0.185300
      9          1           0       -1.514817   -2.359173   -0.913158
     10          1           0       -1.040170   -2.810278    0.733209
     11          6           0       -4.998236   -0.265558    0.252419
     12          6           0       -5.667217    0.833206   -0.574120
     13          6           0       -7.081932    1.156650   -0.092707
     14          1           0       -5.616657   -1.172935    0.212194
     15          1           0       -4.966660    0.044665    1.305846
     16          1           0       -5.697032    0.520413   -1.625732
     17          1           0       -5.047017    1.737814   -0.533480
     18          1           0       -7.066826    1.493526    0.948872
     19          1           0       -7.720534    0.269207   -0.149586
     20          1           0       -7.541473    1.944631   -0.697494
     21          6           0        2.220288    2.582467    0.204451
     22          6           0        3.615314    2.505644    0.137210
     23          6           0        4.253203    1.267507    0.016131
     24          6           0        3.461634    0.121171   -0.035065
     25          6           0        2.069804    0.165009    0.029558
     26          6           0        1.453337    1.413965    0.150504
     27          1           0        1.733080    3.548484    0.298456
     28          1           0        4.213475    3.411465    0.178868
     29          1           0        5.331481    1.179178   -0.038015
     30          1           0        1.500267   -0.755375   -0.014456
     31          1           0        0.369763    1.470602    0.202505
     32          7           0        4.125600   -1.195316   -0.163176
     33          8           0        3.405650   -2.190535   -0.206181
     34          8           0        5.353392   -1.207032   -0.218159
 ---------------------------------------------------------------------

 SCF Done:  E(RHF) =  -669.535356169     A.U. after   15 cycles
 E2 =    -0.2091301075D+01 EUMP2 =    -0.67162665724417D+03

 The electronic state is 1-A.
 Alpha  occ. eigenvalues --  -20.60708 -20.60701 -15.85759 -11.31117 -11.27704
 Alpha  occ. eigenvalues --  -11.27652 -11.27459 -11.26723 -11.26711 -11.22126
 Alpha  occ. eigenvalues --  -11.22029 -11.21960 -11.21826 -11.21708 -11.21425
 Alpha  occ. eigenvalues --   -1.59782  -1.39335  -1.19300  -1.08933  -1.08700
 Alpha  occ. eigenvalues --   -1.04710  -1.04018  -0.96479  -0.95532  -0.87497
 Alpha  occ. eigenvalues --   -0.86104  -0.82369  -0.80086  -0.78746  -0.77409
 Alpha  occ. eigenvalues --   -0.71979  -0.71105  -0.70421  -0.65572  -0.64957
 Alpha  occ. eigenvalues --   -0.64718  -0.62142  -0.61363  -0.59824  -0.58072
 Alpha  occ. eigenvalues --   -0.55796  -0.55202  -0.53163  -0.53036  -0.52950
 Alpha  occ. eigenvalues --   -0.52722  -0.50423  -0.48739  -0.48732  -0.48391
 Alpha  occ. eigenvalues --   -0.47117  -0.46287  -0.46210  -0.44742  -0.44264
 Alpha  occ. eigenvalues --   -0.37289  -0.36309
 Alpha virt. eigenvalues --    0.05126   0.11344   0.16611   0.19400   0.22539
 Alpha virt. eigenvalues --    0.23704   0.25213   0.26068   0.26817   0.28256
 Alpha virt. eigenvalues --    0.29128   0.29614   0.31344   0.31553   0.31874

 Mulliken charges:
               1
     1  C   -0.297333
     2  C   -0.301044
     3  C   -0.478569
     4  H    0.152217
     5  H    0.141600
     6  H    0.156334
     7  H    0.152582
     8  H    0.141342
     9  H    0.161222
    10  H    0.169905
    11  C   -0.298683
    12  C   -0.299590
    13  C   -0.475959
    14  H    0.151983
    15  H    0.149811
    16  H    0.153139
    17  H    0.149585
    18  H    0.155293
    19  H    0.156582
    20  H    0.161002
    21  C   -0.170626
    22  C   -0.219043
    23  C   -0.170455
    24  C    0.159623
    25  C   -0.178249
    26  C   -0.221971
    27  H    0.225281
    28  H    0.223229
    29  H    0.275385
    30  H    0.284876
    31  H    0.223476
    32  N    0.488046
    33  O   -0.460167
    34  O   -0.460822
 Sum of Mulliken charges =  -0.00000

 Dipole moment (field-independent basis, Debye):
    X=             -2.5069    Y=              4.4968    Z=              0.4463  Tot=              5.1677
 Quadrupole moment (field-independent basis, Debye-Ang):
   XX=           -107.4503   YY=            -92.3254   ZZ=            -95.3320
   XY=             19.1556   XZ=              2.1210   YZ=              0.2566

 Normal termination of Gaussian 16 at Wed May  5 20:09:04 2021.
