 Gaussian 16, Revision A.03,
 Gaussian 16:  EM64L-G16RevA.03 25-Dec-2016

 -------------
 #p 6-31g* mp2
 -------------

 ------------------------------------------------------
 Input file generated by CHIRIPA (05-May-2021 14:53:18)
 ------------------------------------------------------
 Symbolic Z-matrix:
 Charge =  0 Multiplicity = 1

                         Standard orientation:
 ---------------------------------------------------------------------
 Center     Atomic      Atomic             Coordinates (Angstroms)
 Number     Number       Type             X           Y           Z
 ---------------------------------------------------------------------
      1          6           0       -3.927323   -0.412917   -0.424667
      2          6           0       -2.616068   -0.486142    0.358426
      3          6           0       -1.413510   -0.804180   -0.530674
      4          1           0       -4.093136   -1.368900   -0.939980
      5          1           0       -3.836417    0.352597   -1.207687
      6          1           0       -2.709899   -1.250324    1.140626
      7          1           0       -2.453453    0.470060    0.872089
      8          1           0       -1.291657   -0.037458   -1.302614
      9          1           0       -1.549560   -1.767617   -1.032551
     10          1           0       -0.486700   -0.851771    0.049513
     11          6           0       -5.138662   -0.095756    0.450429
     12          6           0       -6.449916   -0.022531   -0.332665
     13          6           0       -7.652475    0.295507    0.556436
     14          1           0       -5.229567   -0.861270    1.233449
     15          1           0       -4.972848    0.860227    0.965742
     16          1           0       -6.612532   -0.978733   -0.846327
     17          1           0       -6.356086    0.741651   -1.114865
     18          1           0       -7.516425    1.258944    1.058312
     19          1           0       -7.774327   -0.471215    1.328375
     20          1           0       -8.579285    0.343098   -0.023752
     21          6           0        4.851230   -1.942578    0.245270
     22          6           0        3.535440   -1.979062   -0.227897
     23          6           0        2.800245   -0.798859   -0.373361
     24          6           0        3.414771    0.405711   -0.034748
     25          6           0        4.723905    0.474752    0.439270
     26          6           0        5.440224   -0.717948    0.576759
     27          1           0        5.415015   -2.864242    0.355173
     28          1           0        3.075457   -2.928688   -0.486107
     29          1           0        1.780000   -0.798257   -0.737387
     30          1           0        5.155447    1.436549    0.688536
     31          1           0        6.461915   -0.686591    0.944467
     32          7           0        2.646444    1.661754   -0.184523
     33          8           0        3.210629    2.710179    0.120659
     34          8           0        1.494594    1.574031   -0.604262
 ---------------------------------------------------------------------

 SCF Done:  E(RHF) =  -669.535567736     A.U. after   15 cycles
 E2 =    -0.2091329884D+01 EUMP2 =    -0.67162689762005D+03

 The electronic state is 1-A.
 Alpha  occ. eigenvalues --  -20.60777 -20.60771 -15.85823 -11.31172 -11.27748
 Alpha  occ. eigenvalues --  -11.27698 -11.27491 -11.26766 -11.26748 -11.21346
 Alpha  occ. eigenvalues --  -11.21242 -11.21100 -11.21031 -11.20846 -11.20755
 Alpha  occ. eigenvalues --   -1.59850  -1.39403  -1.19348  -1.08748  -1.08121
 Alpha  occ. eigenvalues --   -1.04748  -1.03230  -0.95715  -0.95566  -0.86731
 Alpha  occ. eigenvalues --   -0.86143  -0.82414  -0.79311  -0.77935  -0.77455
 Alpha  occ. eigenvalues --   -0.72045  -0.71170  -0.70462  -0.65002  -0.64765
 Alpha  occ. eigenvalues --   -0.64737  -0.62127  -0.60607  -0.59062  -0.57306
 Alpha  occ. eigenvalues --   -0.55258  -0.54958  -0.53086  -0.52949  -0.52290
 Alpha  occ. eigenvalues --   -0.52114  -0.49627  -0.48803  -0.48781  -0.47620
 Alpha  occ. eigenvalues --   -0.46307  -0.45479  -0.45388  -0.44809  -0.43492
 Alpha  occ. eigenvalues --   -0.37334  -0.36349
 Alpha virt. eigenvalues --    0.05040   0.11249   0.16558   0.21169   0.23202
 Alpha virt. eigenvalues --    0.24492   0.26463   0.26978   0.27766   0.27853
 Alpha virt. eigenvalues --    0.29122   0.30633   0.31568   0.31746   0.32089

 Mulliken charges:
               1
     1  C   -0.299059
     2  C   -0.299794
     3  C   -0.478415
     4  H    0.146958
     5  H    0.152417
     6  H    0.147929
     7  H    0.159147
     8  H    0.169292
     9  H    0.146512
    10  H    0.155353
    11  C   -0.298363
    12  C   -0.299520
    13  C   -0.475609
    14  H    0.147981
    15  H    0.151440
    16  H    0.150693
    17  H    0.152830
    18  H    0.155816
    19  H    0.154301
    20  H    0.159589
    21  C   -0.170513
    22  C   -0.220995
    23  C   -0.177197
    24  C    0.156421
    25  C   -0.170463
    26  C   -0.218779
    27  H    0.225521
    28  H    0.223959
    29  H    0.287575
    30  H    0.275463
    31  H    0.223360
    32  N    0.488269
    33  O   -0.460378
    34  O   -0.461739
 Sum of Mulliken charges =  -0.00000

 Dipole moment (field-independent basis, Debye):
    X=              2.7279    Y=             -4.3032    Z=              0.5058  Tot=              5.1200
 Quadrupole moment (field-independent basis, Debye-Ang):
   XX=            -74.5672   YY=            -96.6889   ZZ=            -95.3118
   XY=            -11.8637   XZ=              3.7811   YZ=              1.0574

 Normal termination of Gaussian 16 at Thu May  6 10:44:09 2021.
