 Gaussian 16, Revision A.03,
 Gaussian 16:  EM64L-G16RevA.03 25-Dec-2016

 -------------
 #p 6-31g* mp2
 -------------

 ------------------------------------------------------
 Input file generated by CHIRIPA (05-May-2021 14:51:12)
 ------------------------------------------------------
 Symbolic Z-matrix:
 Charge =  0 Multiplicity = 1

                         Standard orientation:
 ---------------------------------------------------------------------
 Center     Atomic      Atomic             Coordinates (Angstroms)
 Number     Number       Type             X           Y           Z
 ---------------------------------------------------------------------
      1          6           0       -3.175371    1.208837   -0.349787
      2          6           0       -2.466574    2.239076    0.530100
      3          6           0       -2.492648    3.645722   -0.068614
      4          1           0       -2.702586    1.195652   -1.341374
      5          1           0       -4.216822    1.523359   -0.504225
      6          1           0       -1.427152    1.921992    0.683973
      7          1           0       -2.940979    2.249673    1.519769
      8          1           0       -3.523836    3.986697   -0.206412
      9          1           0       -2.001409    3.657154   -1.046957
     10          1           0       -1.980436    4.366239    0.576640
     11          6           0       -3.157728   -0.202192    0.235374
     12          6           0       -3.866525   -1.232430   -0.644513
     13          6           0       -3.840451   -2.639077   -0.045798
     14          1           0       -2.116277   -0.516714    0.389812
     15          1           0       -3.630514   -0.189007    1.226962
     16          1           0       -3.392121   -1.243028   -1.634181
     17          1           0       -4.905947   -0.915347   -0.798385
     18          1           0       -4.331691   -2.650509    0.932545
     19          1           0       -2.809263   -2.980052    0.092000
     20          1           0       -4.352664   -3.359594   -0.691053
     21          6           0        2.609783   -0.951297   -0.212537
     22          6           0        1.452918   -1.138737    0.769560
     23          6           0        0.346886   -2.037392    0.215568
     24          1           0        2.222765   -0.524567   -1.147985
     25          1           0        3.028334   -1.934820   -0.467275
     26          1           0        1.037567   -0.155049    1.023441
     27          1           0        1.842766   -1.564892    1.702849
     28          1           0        0.740297   -3.031374   -0.020715
     29          1           0       -0.069477   -1.613519   -0.703982
     30          1           0       -0.470051   -2.157810    0.933881
     31          6           0        3.723316   -0.055348    0.326950
     32          6           0        4.880181    0.132092   -0.655148
     33          6           0        5.986213    1.030747   -0.101156
     34          1           0        3.304765    0.928176    0.581688
     35          1           0        4.110335   -0.482078    1.262398
     36          1           0        4.490333    0.558247   -1.588436
     37          1           0        5.295532   -0.851596   -0.909029
     38          1           0        6.402577    0.606874    0.818395
     39          1           0        5.592802    2.024729    0.135127
     40          1           0        6.803151    1.151165   -0.819468
 ---------------------------------------------------------------------

 SCF Done:  E(RHF) =  -470.732443055     A.U. after   11 cycles
 E2 =    -0.1583855380D+01 EUMP2 =    -0.47231629843532D+03

 The electronic state is 1-A.
 Alpha  occ. eigenvalues --  -11.21709 -11.21642 -11.21602 -11.21525 -11.21472
 Alpha  occ. eigenvalues --  -11.21408 -11.21341 -11.21208 -11.21175 -11.21101
 Alpha  occ. eigenvalues --  -11.21076 -11.20974  -1.08506  -1.08369  -1.03618
 Alpha  occ. eigenvalues --   -1.03477  -0.96067  -0.95927  -0.87093  -0.86944
 Alpha  occ. eigenvalues --   -0.79712  -0.79519  -0.78310  -0.78187  -0.65230
 Alpha  occ. eigenvalues --   -0.64947  -0.61056  -0.60865  -0.59494  -0.59228
 Alpha  occ. eigenvalues --   -0.57670  -0.57544  -0.55434  -0.55143  -0.52801
 Alpha  occ. eigenvalues --   -0.52620  -0.52491  -0.52352  -0.50099  -0.49791
 Alpha  occ. eigenvalues --   -0.48016  -0.47838  -0.46761  -0.46519  -0.45872
 Alpha  occ. eigenvalues --   -0.45769  -0.45716  -0.45575  -0.43780  -0.43721
 Alpha virt. eigenvalues --    0.20503   0.23030   0.23631   0.24199   0.26088
 Alpha virt. eigenvalues --    0.26684   0.26791   0.27459   0.27890   0.29392
 Alpha virt. eigenvalues --    0.30481   0.30918   0.31600   0.31995   0.32396

 Mulliken charges:
               1
     1  C   -0.297506
     2  C   -0.300576
     3  C   -0.475621
     4  H    0.148606
     5  H    0.149360
     6  H    0.151644
     7  H    0.152145
     8  H    0.155431
     9  H    0.154880
    10  H    0.160065
    11  C   -0.308997
    12  C   -0.298527
    13  C   -0.480721
    14  H    0.163032
    15  H    0.148341
    16  H    0.151024
    17  H    0.151496
    18  H    0.154378
    19  H    0.160906
    20  H    0.159861
    21  C   -0.298581
    22  C   -0.302912
    23  C   -0.481640
    24  H    0.149673
    25  H    0.149979
    26  H    0.153378
    27  H    0.152972
    28  H    0.156918
    29  H    0.155748
    30  H    0.164569
    31  C   -0.298363
    32  C   -0.299693
    33  C   -0.475758
    34  H    0.149630
    35  H    0.149890
    36  H    0.151973
    37  H    0.152029
    38  H    0.155267
    39  H    0.155300
    40  H    0.160400
 Sum of Mulliken charges =  -0.00000

 Dipole moment (field-independent basis, Debye):
    X=              0.0685    Y=             -0.0340    Z=              0.0162  Tot=              0.0782
 Quadrupole moment (field-independent basis, Debye-Ang):
   XX=            -84.7664   YY=            -85.6145   ZZ=            -84.5664
   XY=             -1.2064   XZ=             -0.4607   YZ=             -0.1019

 Normal termination of Gaussian 16 at Wed May  5 19:54:43 2021.
