 Gaussian 16, Revision A.03,
 Gaussian 16:  EM64L-G16RevA.03 25-Dec-2016

 -------------
 #p 6-31g* mp2
 -------------

 ------------------------------------------------------
 Input file generated by CHIRIPA (05-May-2021 14:55:20)
 ------------------------------------------------------
 Symbolic Z-matrix:
 Charge =  0 Multiplicity = 1

                         Standard orientation:
 ---------------------------------------------------------------------
 Center     Atomic      Atomic             Coordinates (Angstroms)
 Number     Number       Type             X           Y           Z
 ---------------------------------------------------------------------
      1          6           0        2.754532    1.428788    1.961986
      2          6           0        3.224949    0.122086    2.128596
      3          6           0        3.097086   -0.815225    1.099204
      4          6           0        2.490925   -0.409886   -0.088886
      5          6           0        2.012233    0.884556   -0.285265
      6          6           0        2.150740    1.805189    0.757711
      7          1           0        2.857993    2.150436    2.766918
      8          1           0        3.694286   -0.173036    3.062764
      9          1           0        3.452439   -1.833411    1.201380
     10          1           0        1.548846    1.149198   -1.227950
     11          1           0        1.784483    2.819302    0.625510
     12          7           0        2.349928   -1.393347   -1.185847
     13          8           0        1.812125   -1.011294   -2.222881
     14          8           0        2.779888   -2.527616   -0.987840
     15          6           0       -3.063980    0.873476   -0.617848
     16          6           0       -1.594405    1.295759   -0.621271
     17          6           0       -1.301699    2.409475   -1.627131
     18          1           0       -3.345964    0.541904   -1.626556
     19          1           0       -3.689036    1.748039   -0.390166
     20          1           0       -0.972221    0.420365   -0.847517
     21          1           0       -1.315836    1.626183    0.387607
     22          1           0       -1.897734    3.299470   -1.400740
     23          1           0       -1.552167    2.086800   -2.642881
     24          1           0       -0.245468    2.695888   -1.612901
     25          6           0       -3.372277   -0.239110    0.382569
     26          6           0       -4.841852   -0.661393    0.385992
     27          6           0       -5.134558   -1.775108    1.391851
     28          1           0       -2.747221   -1.113672    0.154885
     29          1           0       -3.090294    0.092462    1.391277
     30          1           0       -5.120422   -0.991816   -0.622886
     31          1           0       -5.464038    0.214002    0.612237
     32          1           0       -4.884090   -1.452433    2.407601
     33          1           0       -4.538523   -2.665102    1.165459
     34          1           0       -6.190789   -2.061521    1.377621
 ---------------------------------------------------------------------

 SCF Done:  E(RHF) =  -669.535005933     A.U. after   15 cycles
 E2 =    -0.2093090242D+01 EUMP2 =    -0.67162809617441D+03

 The electronic state is 1-A.
 Alpha  occ. eigenvalues --  -20.60813 -20.60807 -15.85852 -11.31157 -11.27749
 Alpha  occ. eigenvalues --  -11.27705 -11.27492 -11.26746 -11.26729 -11.21781
 Alpha  occ. eigenvalues --  -11.21573 -11.21539 -11.21462 -11.21364 -11.21027
 Alpha  occ. eigenvalues --   -1.59880  -1.39435  -1.19347  -1.08751  -1.08508
 Alpha  occ. eigenvalues --   -1.04756  -1.03660  -0.96140  -0.95587  -0.87144
 Alpha  occ. eigenvalues --   -0.86148  -0.82428  -0.79726  -0.78313  -0.77472
 Alpha  occ. eigenvalues --   -0.72073  -0.71199  -0.70480  -0.65153  -0.65001
 Alpha  occ. eigenvalues --   -0.64738  -0.62217  -0.61028  -0.59477  -0.57731
 Alpha  occ. eigenvalues --   -0.55400  -0.55232  -0.53074  -0.52945  -0.52760
 Alpha  occ. eigenvalues --   -0.52510  -0.50035  -0.48833  -0.48827  -0.48050
 Alpha  occ. eigenvalues --   -0.46724  -0.45855  -0.45748  -0.44825  -0.43919
 Alpha  occ. eigenvalues --   -0.37326  -0.36294
 Alpha virt. eigenvalues --    0.05039   0.11243   0.16473   0.20170   0.22976
 Alpha virt. eigenvalues --    0.23979   0.26332   0.26578   0.27416   0.27918
 Alpha virt. eigenvalues --    0.29273   0.30080   0.31265   0.31713   0.31842

 Mulliken charges:
               1
     1  C   -0.170867
     2  C   -0.218956
     3  C   -0.170479
     4  C    0.157723
     5  C   -0.170585
     6  C   -0.220558
     7  H    0.225498
     8  H    0.223306
     9  H    0.275410
    10  H    0.281414
    11  H    0.223848
    12  N    0.488249
    13  O   -0.461468
    14  O   -0.459998
    15  C   -0.298438
    16  C   -0.305588
    17  C   -0.477435
    18  H    0.153489
    19  H    0.147915
    20  H    0.160645
    21  H    0.148487
    22  H    0.156406
    23  H    0.164387
    24  H    0.145585
    25  C   -0.298994
    26  C   -0.299888
    27  C   -0.475942
    28  H    0.153617
    29  H    0.147430
    30  H    0.153754
    31  H    0.150784
    32  H    0.153782
    33  H    0.157084
    34  H    0.160382
 Sum of Mulliken charges =  -0.00000

 Dipole moment (field-independent basis, Debye):
    X=              0.4255    Y=              3.3695    Z=              3.8188  Tot=              5.1105
 Quadrupole moment (field-independent basis, Debye-Ang):
   XX=            -91.9353   YY=            -95.9255   ZZ=            -94.1526
   XY=              6.3666   XZ=             11.5647   YZ=             -3.0261

 Normal termination of Gaussian 16 at Wed May  5 22:12:42 2021.
