 Gaussian 16, Revision A.03,
 Gaussian 16:  EM64L-G16RevA.03 25-Dec-2016

 -------------
 #p 6-31g* mp2
 -------------

 ------------------------------------------------------
 Input file generated by CHIRIPA (05-May-2021 14:57:26)
 ------------------------------------------------------
 Symbolic Z-matrix:
 Charge =  0 Multiplicity = 1

                         Standard orientation:
 ---------------------------------------------------------------------
 Center     Atomic      Atomic             Coordinates (Angstroms)
 Number     Number       Type             X           Y           Z
 ---------------------------------------------------------------------
      1          6           0       -6.050013    0.355518    0.142171
      2          6           0       -5.505294   -0.846710    0.605258
      3          6           0       -4.155605   -1.143036    0.392944
      4          6           0       -3.376048   -0.210213   -0.289276
      5          6           0       -3.889503    0.996172   -0.762867
      6          6           0       -5.241804    1.271507   -0.539212
      7          1           0       -7.099499    0.577558    0.311506
      8          1           0       -6.130585   -1.559948    1.134738
      9          1           0       -3.708083   -2.066194    0.740680
     10          1           0       -3.241154    1.687476   -1.287423
     11          1           0       -5.662133    2.205966   -0.899981
     12          7           0       -1.945810   -0.512809   -0.520046
     13          8           0       -1.280150    0.325628   -1.123832
     14          8           0       -1.517531   -1.582692   -0.092769
     15          6           0        1.517052    1.017823    1.366057
     16          6           0        2.441154    1.918130    0.825681
     17          6           0        3.605203    1.454290    0.205689
     18          6           0        3.814278    0.077444    0.143466
     19          6           0        2.912515   -0.844676    0.672435
     20          6           0        1.755262   -0.358280    1.287847
     21          1           0        0.615431    1.386906    1.845903
     22          1           0        2.258771    2.987366    0.884968
     23          1           0        4.337326    2.129110   -0.220965
     24          1           0        3.121865   -1.904891    0.598034
     25          1           0        1.039344   -1.059793    1.706638
     26          7           0        5.043007   -0.425542   -0.510468
     27          8           0        5.203950   -1.643318   -0.552369
     28          8           0        5.821876    0.407518   -0.968738
 ---------------------------------------------------------------------

 SCF Done:  E(RHF) =  -868.338844994     A.U. after   16 cycles
 E2 =    -0.2599512413D+01 EUMP2 =    -0.87093835740664D+03

 The electronic state is 1-A.
 Alpha  occ. eigenvalues --  -20.61669 -20.61626 -20.59763 -20.59753 -15.86672
 Alpha  occ. eigenvalues --  -15.84804 -11.31902 -11.29948 -11.28449 -11.28444
 Alpha  occ. eigenvalues --  -11.28143 -11.27418 -11.27408 -11.26532 -11.26418
 Alpha  occ. eigenvalues --  -11.26220 -11.25553 -11.25347  -1.60714  -1.58839
 Alpha  occ. eigenvalues --   -1.40271  -1.38399  -1.20056  -1.18084  -1.09474
 Alpha  occ. eigenvalues --   -1.07532  -1.05432  -1.03454  -0.96331  -0.94415
 Alpha  occ. eigenvalues --   -0.86835  -0.84880  -0.83164  -0.81253  -0.78235
 Alpha  occ. eigenvalues --   -0.76322  -0.72887  -0.72050  -0.71149  -0.71036
 Alpha  occ. eigenvalues --   -0.70154  -0.69255  -0.65705  -0.65423  -0.63756
 Alpha  occ. eigenvalues --   -0.63473  -0.62778  -0.60824  -0.55924  -0.54029
 Alpha  occ. eigenvalues --   -0.53777  -0.53515  -0.51790  -0.51574  -0.49651
 Alpha  occ. eigenvalues --   -0.49605  -0.47798  -0.47771  -0.45698  -0.43856
 Alpha  occ. eigenvalues --   -0.38030  -0.37032  -0.36018  -0.35005
 Alpha virt. eigenvalues --    0.04255   0.06204   0.10624   0.12633   0.15788
 Alpha virt. eigenvalues --    0.17765   0.20814   0.22602   0.26735   0.27677
 Alpha virt. eigenvalues --    0.28598   0.29323   0.30430   0.31808   0.32210

 Mulliken charges:
               1
     1  C   -0.170192
     2  C   -0.218394
     3  C   -0.171525
     4  C    0.156752
     5  C   -0.171816
     6  C   -0.218467
     7  H    0.227929
     8  H    0.225476
     9  H    0.275426
    10  H    0.275972
    11  H    0.225400
    12  N    0.486667
    13  O   -0.455905
    14  O   -0.464926
    15  C   -0.163375
    16  C   -0.217288
    17  C   -0.172528
    18  C    0.158293
    19  C   -0.170888
    20  C   -0.206824
    21  H    0.217697
    22  H    0.217204
    23  H    0.270919
    24  H    0.273669
    25  H    0.229356
    26  N    0.488225
    27  O   -0.462382
    28  O   -0.464474
 Sum of Mulliken charges =  -0.00000

 Dipole moment (field-independent basis, Debye):
    X=             -9.8408    Y=              2.7508    Z=              3.0697  Tot=             10.6692
 Quadrupole moment (field-independent basis, Debye-Ang):
   XX=           -105.0174   YY=            -97.2055   ZZ=           -104.8708
   XY=              5.5131   XZ=              6.2483   YZ=             -3.6941

 Normal termination of Gaussian 16 at Thu May  6 22:56:39 2021.
