 Gaussian 16, Revision A.03,
 Gaussian 16:  EM64L-G16RevA.03 25-Dec-2016

 -------------
 #p 6-31g* mp2
 -------------

 ------------------------------------------------------
 Input file generated by CHIRIPA (05-May-2021 14:55:18)
 ------------------------------------------------------
 Symbolic Z-matrix:
 Charge =  0 Multiplicity = 1

                         Standard orientation:
 ---------------------------------------------------------------------
 Center     Atomic      Atomic             Coordinates (Angstroms)
 Number     Number       Type             X           Y           Z
 ---------------------------------------------------------------------
      1          6           0        2.384072    2.032224   -1.284379
      2          6           0        1.247204    1.263769   -1.013218
      3          6           0        1.365441    0.012591   -0.400745
      4          6           0        2.641669   -0.441379   -0.071439
      5          6           0        3.793335    0.300777   -0.328657
      6          6           0        3.651275    1.549127   -0.941837
      7          1           0        2.282970    3.003071   -1.760436
      8          1           0        0.261812    1.636419   -1.278132
      9          1           0        0.502059   -0.603034   -0.179398
     10          1           0        4.762288   -0.097354   -0.052905
     11          1           0        4.535937    2.143748   -1.151227
     12          7           0        2.779452   -1.764448    0.577332
     13          8           0        3.915068   -2.141892    0.857597
     14          8           0        1.749220   -2.398973    0.793290
     15          6           0       -3.245379    1.030134    0.362654
     16          6           0       -2.014927    1.320465    1.222701
     17          6           0       -1.814442    2.813774    1.482754
     18          1           0       -3.149355    1.560806   -0.594483
     19          1           0       -4.136023    1.439625    0.859107
     20          1           0       -1.127052    0.909335    0.725443
     21          1           0       -2.113802    0.788886    2.177826
     22          1           0       -2.682554    3.234634    2.000305
     23          1           0       -1.690198    3.355767    0.539670
     24          1           0       -0.929335    2.998609    2.099425
     25          6           0       -3.459162   -0.458432    0.093959
     26          6           0       -4.689613   -0.748763   -0.766088
     27          6           0       -4.890099   -2.242072   -1.026141
     28          1           0       -2.568518   -0.867922   -0.402494
     29          1           0       -3.555186   -0.989105    1.051097
     30          1           0       -4.590738   -0.217183   -1.721213
     31          1           0       -5.577489   -0.337632   -0.268829
     32          1           0       -5.014343   -2.784064   -0.083057
     33          1           0       -4.021986   -2.662931   -1.543692
     34          1           0       -5.775205   -2.426907   -1.642811
 ---------------------------------------------------------------------

 SCF Done:  E(RHF) =  -669.534565834     A.U. after   15 cycles
 E2 =    -0.2093027303D+01 EUMP2 =    -0.67162759313660D+03

 The electronic state is 1-A.
 Alpha  occ. eigenvalues --  -20.60766 -20.60760 -15.85820 -11.31197 -11.27773
 Alpha  occ. eigenvalues --  -11.27755 -11.27513 -11.26790 -11.26774 -11.22175
 Alpha  occ. eigenvalues --  -11.21934 -11.21898 -11.21785 -11.21677 -11.21204
 Alpha  occ. eigenvalues --   -1.59841  -1.39394  -1.19379  -1.08910  -1.08765
 Alpha  occ. eigenvalues --   -1.04800  -1.03951  -0.96395  -0.95601  -0.87410
 Alpha  occ. eigenvalues --   -0.86178  -0.82451  -0.80038  -0.78713  -0.77473
 Alpha  occ. eigenvalues --   -0.72039  -0.71165  -0.70494  -0.65621  -0.65017
 Alpha  occ. eigenvalues --   -0.64786  -0.62255  -0.61242  -0.59759  -0.57995
 Alpha  occ. eigenvalues --   -0.55703  -0.55278  -0.53135  -0.53057  -0.52868
 Alpha  occ. eigenvalues --   -0.52801  -0.50350  -0.48798  -0.48795  -0.48322
 Alpha  occ. eigenvalues --   -0.47086  -0.46222  -0.46168  -0.44796  -0.44213
 Alpha  occ. eigenvalues --   -0.37355  -0.36344
 Alpha virt. eigenvalues --    0.05021   0.11241   0.16400   0.19120   0.23038
 Alpha virt. eigenvalues --    0.23517   0.24566   0.26137   0.27577   0.28280
 Alpha virt. eigenvalues --    0.29816   0.30691   0.31248   0.31607   0.32264

 Mulliken charges:
               1
     1  C   -0.171502
     2  C   -0.218002
     3  C   -0.173352
     4  C    0.157265
     5  C   -0.170923
     6  C   -0.218667
     7  H    0.225834
     8  H    0.225530
     9  H    0.278900
    10  H    0.275687
    11  H    0.223585
    12  N    0.488097
    13  O   -0.460449
    14  O   -0.460171
    15  C   -0.299098
    16  C   -0.306649
    17  C   -0.475121
    18  H    0.144078
    19  H    0.153048
    20  H    0.147224
    21  H    0.159506
    22  H    0.158802
    23  H    0.147899
    24  H    0.163955
    25  C   -0.299140
    26  C   -0.299922
    27  C   -0.476208
    28  H    0.145543
    29  H    0.155423
    30  H    0.150215
    31  H    0.153120
    32  H    0.157787
    33  H    0.156868
    34  H    0.160838
 Sum of Mulliken charges =  -0.00000

 Dipole moment (field-independent basis, Debye):
    X=             -0.5687    Y=              4.6111    Z=             -2.1848  Tot=              5.1342
 Quadrupole moment (field-independent basis, Debye-Ang):
   XX=            -91.5206   YY=           -100.5145   ZZ=            -94.4173
   XY=             13.3679   XZ=             -6.7878   YZ=              0.3914

 Normal termination of Gaussian 16 at Wed May  5 17:18:59 2021.
