 Gaussian 16, Revision A.03,
 Gaussian 16:  EM64L-G16RevA.03 25-Dec-2016

 -------------
 #p 6-31g* mp2
 -------------

 ------------------------------------------------------
 Input file generated by CHIRIPA (05-May-2021 14:57:22)
 ------------------------------------------------------
 Symbolic Z-matrix:
 Charge =  0 Multiplicity = 1

                         Standard orientation:
 ---------------------------------------------------------------------
 Center     Atomic      Atomic             Coordinates (Angstroms)
 Number     Number       Type             X           Y           Z
 ---------------------------------------------------------------------
      1          6           0       -3.593120    2.257434    0.632773
      2          6           0       -2.697915    2.126796   -0.434027
      3          6           0       -2.249710    0.864474   -0.834280
      4          6           0       -2.719229   -0.250909   -0.142353
      5          6           0       -3.611324   -0.153367    0.924391
      6          6           0       -4.046168    1.118943    1.307388
      7          1           0       -3.936106    3.241916    0.936997
      8          1           0       -2.344394    3.009213   -0.959772
      9          1           0       -1.556831    0.734560   -1.656751
     10          1           0       -3.946056   -1.051447    1.429192
     11          1           0       -4.741412    1.217381    2.136237
     12          7           0       -2.251807   -1.592560   -0.556949
     13          8           0       -2.680376   -2.559642    0.068924
     14          8           0       -1.465723   -1.651658   -1.499932
     15          6           0        2.439607   -2.418915    0.566536
     16          6           0        2.042173   -1.887419   -0.664756
     17          6           0        2.234874   -0.532094   -0.948498
     18          6           0        2.830747    0.266521    0.026408
     19          6           0        3.237481   -0.233424    1.262496
     20          6           0        3.034942   -1.591680    1.524543
     21          1           0        2.286090   -3.472901    0.778526
     22          1           0        1.579575   -2.527494   -1.410646
     23          1           0        1.936690   -0.094511   -1.893497
     24          1           0        3.695967    0.429565    1.986136
     25          1           0        3.344590   -2.001709    2.481642
     26          7           0        3.039959    1.702893   -0.262493
     27          8           0        3.567165    2.385425    0.613201
     28          8           0        2.672770    2.118991   -1.359156
 ---------------------------------------------------------------------

 SCF Done:  E(RHF) =  -868.340634763     A.U. after   16 cycles
 E2 =    -0.2599188137D+01 EUMP2 =    -0.87093982289925D+03

 The electronic state is 1-A.
 Alpha  occ. eigenvalues --  -20.61283 -20.61269 -20.60583 -20.60564 -15.86301
 Alpha  occ. eigenvalues --  -15.85615 -11.31357 -11.30693 -11.27902 -11.27859
 Alpha  occ. eigenvalues --  -11.27556 -11.27229 -11.27126 -11.26855 -11.26802
 Alpha  occ. eigenvalues --  -11.26774 -11.26214 -11.25960  -1.60338  -1.59658
 Alpha  occ. eigenvalues --   -1.39904  -1.39219  -1.19494  -1.18806  -1.08946
 Alpha  occ. eigenvalues --   -1.08246  -1.04846  -1.04135  -0.95837  -0.95138
 Alpha  occ. eigenvalues --   -0.86261  -0.85547  -0.82686  -0.81962  -0.77766
 Alpha  occ. eigenvalues --   -0.77057  -0.72552  -0.71840  -0.71634  -0.70978
 Alpha  occ. eigenvalues --   -0.70601  -0.69893  -0.65151  -0.64840  -0.64436
 Alpha  occ. eigenvalues --   -0.64094  -0.62197  -0.61475  -0.55358  -0.54630
 Alpha  occ. eigenvalues --   -0.53196  -0.52931  -0.52515  -0.52194  -0.49311
 Alpha  occ. eigenvalues --   -0.49265  -0.48612  -0.48563  -0.45377  -0.44690
 Alpha  occ. eigenvalues --   -0.37457  -0.36770  -0.36432  -0.35702
 Alpha virt. eigenvalues --    0.04706   0.05444   0.11200   0.11931   0.16255
 Alpha virt. eigenvalues --    0.17062   0.21232   0.22205   0.26815   0.27700
 Alpha virt. eigenvalues --    0.28556   0.29145   0.31019   0.31700   0.32105

 Mulliken charges:
               1
     1  C   -0.169937
     2  C   -0.218022
     3  C   -0.170239
     4  C    0.158369
     5  C   -0.171369
     6  C   -0.218632
     7  H    0.227740
     8  H    0.229746
     9  H    0.275114
    10  H    0.274239
    11  H    0.223728
    12  N    0.490026
    13  O   -0.460706
    14  O   -0.468646
    15  C   -0.172874
    16  C   -0.211821
    17  C   -0.174801
    18  C    0.156979
    19  C   -0.173862
    20  C   -0.218826
    21  H    0.228067
    22  H    0.239022
    23  H    0.273054
    24  H    0.272164
    25  H    0.221191
    26  N    0.488116
    27  O   -0.462344
    28  O   -0.465478
 Sum of Mulliken charges =  -0.00000

 Dipole moment (field-independent basis, Debye):
    X=             -2.6067    Y=             -0.4238    Z=              2.4215  Tot=              3.5830
 Quadrupole moment (field-independent basis, Debye-Ang):
   XX=            -99.3140   YY=           -109.5259   ZZ=            -99.1474
   XY=            -26.4854   XZ=             -1.3988   YZ=             -1.8458

 Normal termination of Gaussian 16 at Fri May  7 01:44:49 2021.
