 Gaussian 16, Revision A.03,
 Gaussian 16:  EM64L-G16RevA.03 25-Dec-2016

 -------------
 #p 6-31g* mp2
 -------------

 ------------------------------------------------------
 Input file generated by CHIRIPA (05-May-2021 14:55:25)
 ------------------------------------------------------
 Symbolic Z-matrix:
 Charge =  0 Multiplicity = 1

                         Standard orientation:
 ---------------------------------------------------------------------
 Center     Atomic      Atomic             Coordinates (Angstroms)
 Number     Number       Type             X           Y           Z
 ---------------------------------------------------------------------
      1          6           0        0.445219   -2.219680    0.751748
      2          6           0        1.146649   -1.453791    1.688728
      3          6           0        2.151904   -0.573821    1.276826
      4          6           0        2.430972   -0.484405   -0.086045
      5          6           0        1.749816   -1.234092   -1.043795
      6          6           0        0.748507   -2.107584   -0.609124
      7          1           0       -0.334155   -2.900746    1.080567
      8          1           0        0.913249   -1.538787    2.746246
      9          1           0        2.710543    0.030917    1.980838
     10          1           0        2.004999   -1.127662   -2.091160
     11          1           0        0.205404   -2.701145   -1.339034
     12          7           0        3.493102    0.443751   -0.534159
     13          8           0        3.719949    0.504204   -1.740610
     14          8           0        4.078640    1.093211    0.329544
     15          6           0       -2.272180    0.975395    0.438996
     16          6           0       -1.448061    2.142870   -0.104890
     17          6           0       -0.220213    2.449997    0.752931
     18          1           0       -2.588555    1.205098    1.465684
     19          1           0       -1.634336    0.082796    0.500786
     20          1           0       -2.087635    3.032651   -0.166939
     21          1           0       -1.133773    1.910444   -1.130471
     22          1           0        0.440776    1.578823    0.805374
     23          1           0       -0.518507    2.707406    1.774382
     24          1           0        0.354447    3.287861    0.345980
     25          6           0       -3.502974    0.656288   -0.407790
     26          6           0       -4.327094   -0.511187    0.136096
     27          6           0       -5.554942   -0.818314   -0.721725
     28          1           0       -4.140818    1.548886   -0.469579
     29          1           0       -3.186599    0.426585   -1.434478
     30          1           0       -4.641382   -0.278760    1.161678
     31          1           0       -3.687519   -1.400968    0.198146
     32          1           0       -5.256648   -1.075724   -1.743176
     33          1           0       -6.215931    0.052861   -0.774168
     34          1           0       -6.129602   -1.656178   -0.314774
 ---------------------------------------------------------------------

 SCF Done:  E(RHF) =  -669.534669267     A.U. after   15 cycles
 E2 =    -0.2094593408D+01 EUMP2 =    -0.67162926267539D+03

 The electronic state is 1-A.
 Alpha  occ. eigenvalues --  -20.60848 -20.60839 -15.85900 -11.31317 -11.27908
 Alpha  occ. eigenvalues --  -11.27867 -11.27664 -11.26945 -11.26912 -11.22072
 Alpha  occ. eigenvalues --  -11.21672 -11.21613 -11.21488 -11.21487 -11.20886
 Alpha  occ. eigenvalues --   -1.59919  -1.39471  -1.19529  -1.08903  -1.08655
 Alpha  occ. eigenvalues --   -1.04929  -1.03726  -0.96168  -0.95718  -0.87186
 Alpha  occ. eigenvalues --   -0.86313  -0.82543  -0.79819  -0.78468  -0.77580
 Alpha  occ. eigenvalues --   -0.72118  -0.71249  -0.70613  -0.65310  -0.65163
 Alpha  occ. eigenvalues --   -0.64909  -0.62257  -0.61164  -0.59546  -0.57784
 Alpha  occ. eigenvalues --   -0.55524  -0.55407  -0.53350  -0.53002  -0.52839
 Alpha  occ. eigenvalues --   -0.52557  -0.50132  -0.48882  -0.48869  -0.48105
 Alpha  occ. eigenvalues --   -0.46861  -0.45990  -0.45864  -0.44855  -0.43969
 Alpha  occ. eigenvalues --   -0.37438  -0.36473
 Alpha virt. eigenvalues --    0.04922   0.11072   0.16367   0.20997   0.22707
 Alpha virt. eigenvalues --    0.24059   0.26155   0.26932   0.27160   0.27817
 Alpha virt. eigenvalues --    0.28643   0.30830   0.31228   0.31585   0.32005

 Mulliken charges:
               1
     1  C   -0.171859
     2  C   -0.213149
     3  C   -0.178632
     4  C    0.163528
     5  C   -0.171773
     6  C   -0.217818
     7  H    0.227266
     8  H    0.225189
     9  H    0.277041
    10  H    0.276338
    11  H    0.224426
    12  N    0.488665
    13  O   -0.460411
    14  O   -0.459626
    15  C   -0.303939
    16  C   -0.298191
    17  C   -0.483606
    18  H    0.147018
    19  H    0.151930
    20  H    0.151936
    21  H    0.151897
    22  H    0.160446
    23  H    0.151620
    24  H    0.165445
    25  C   -0.297775
    26  C   -0.297843
    27  C   -0.475579
    28  H    0.151235
    29  H    0.148559
    30  H    0.152352
    31  H    0.143508
    32  H    0.154717
    33  H    0.157498
    34  H    0.159588
 Sum of Mulliken charges =  -0.00000

 Dipole moment (field-independent basis, Debye):
    X=             -3.6029    Y=             -3.3042    Z=              1.5765  Tot=              5.1366
 Quadrupole moment (field-independent basis, Debye-Ang):
   XX=           -114.1942   YY=            -91.5147   ZZ=            -90.4984
   XY=             -6.6496   XZ=              4.4157   YZ=              1.0480

 Normal termination of Gaussian 16 at Thu May  6 01:40:17 2021.
