 Gaussian 16, Revision A.03,
 Gaussian 16:  EM64L-G16RevA.03 25-Dec-2016

 -------------
 #p 6-31g* mp2
 -------------

 ------------------------------------------------------
 Input file generated by CHIRIPA (05-May-2021 14:55:20)
 ------------------------------------------------------
 Symbolic Z-matrix:
 Charge =  0 Multiplicity = 1

                         Standard orientation:
 ---------------------------------------------------------------------
 Center     Atomic      Atomic             Coordinates (Angstroms)
 Number     Number       Type             X           Y           Z
 ---------------------------------------------------------------------
      1          6           0        3.364841   -2.394700   -0.306200
      2          6           0        4.506972   -1.703092   -0.723019
      3          6           0        4.585626   -0.314057   -0.585386
      4          6           0        3.498782    0.354633   -0.024214
      5          6           0        2.347170   -0.306133    0.400602
      6          6           0        2.290480   -1.695246    0.253294
      7          1           0        3.312272   -3.473766   -0.416875
      8          1           0        5.342854   -2.243690   -1.157875
      9          1           0        5.457755    0.246332   -0.899666
     10          1           0        1.529934    0.260237    0.830448
     11          1           0        1.402221   -2.229740    0.577882
     12          7           0        3.570423    1.825184    0.126613
     13          8           0        2.599394    2.391104    0.624079
     14          8           0        4.596250    2.384036   -0.255490
     15          6           0       -5.219611   -0.248534    0.084666
     16          6           0       -6.006244    0.863567   -0.609904
     17          6           0       -7.517850    0.639681   -0.557791
     18          1           0       -5.465560   -1.210976   -0.384547
     19          1           0       -5.544866   -0.319156    1.131860
     20          1           0       -5.678619    0.932993   -1.655112
     21          1           0       -5.758248    1.823497   -0.139110
     22          1           0       -7.864669    0.591849    0.479527
     23          1           0       -7.784587   -0.303714   -1.045089
     24          1           0       -8.060731    1.446379   -1.060164
     25          6           0       -3.707043   -0.038874    0.040960
     26          6           0       -2.920411   -1.150975    0.735529
     27          6           0       -1.408805   -0.927089    0.683417
     28          1           0       -3.381789    0.031747   -1.006235
     29          1           0       -3.461094    0.923567    0.510171
     30          1           0       -3.168406   -2.110905    0.264735
     31          1           0       -3.248035   -1.220401    1.780737
     32          1           0       -1.142068    0.016306    1.170714
     33          1           0       -1.061985   -0.879258   -0.353902
     34          1           0       -0.865923   -1.733788    1.185789
 ---------------------------------------------------------------------

 SCF Done:  E(RHF) =  -669.535240701     A.U. after   15 cycles
 E2 =    -0.2091659170D+01 EUMP2 =    -0.67162689987052D+03

 The electronic state is 1-A.
 Alpha  occ. eigenvalues --  -20.60684 -20.60678 -15.85734 -11.31061 -11.27644
 Alpha  occ. eigenvalues --  -11.27583 -11.27373 -11.26660 -11.26577 -11.22213
 Alpha  occ. eigenvalues --  -11.22027 -11.21764 -11.21742 -11.21628 -11.21197
 Alpha  occ. eigenvalues --   -1.59759  -1.39313  -1.19235  -1.08797  -1.08640
 Alpha  occ. eigenvalues --   -1.04635  -1.03959  -0.96448  -0.95478  -0.87490
 Alpha  occ. eigenvalues --   -0.86032  -0.82313  -0.80049  -0.78562  -0.77347
 Alpha  occ. eigenvalues --   -0.71954  -0.71081  -0.70349  -0.65421  -0.64886
 Alpha  occ. eigenvalues --   -0.64665  -0.62022  -0.61349  -0.59822  -0.58027
 Alpha  occ. eigenvalues --   -0.55720  -0.55155  -0.53264  -0.53041  -0.52873
 Alpha  occ. eigenvalues --   -0.52523  -0.50358  -0.48712  -0.48709  -0.48335
 Alpha  occ. eigenvalues --   -0.47030  -0.46116  -0.46007  -0.44726  -0.44202
 Alpha  occ. eigenvalues --   -0.37227  -0.36221
 Alpha virt. eigenvalues --    0.05155   0.11417   0.16621   0.20406   0.22636
 Alpha virt. eigenvalues --    0.23916   0.25569   0.26241   0.26708   0.27854
 Alpha virt. eigenvalues --    0.29110   0.29258   0.31160   0.31582   0.32307

 Mulliken charges:
               1
     1  C   -0.171679
     2  C   -0.218835
     3  C   -0.171002
     4  C    0.158625
     5  C   -0.175299
     6  C   -0.222710
     7  H    0.225159
     8  H    0.222787
     9  H    0.275058
    10  H    0.280664
    11  H    0.228826
    12  N    0.488115
    13  O   -0.460898
    14  O   -0.460905
    15  C   -0.298814
    16  C   -0.300179
    17  C   -0.475963
    18  H    0.149265
    19  H    0.150195
    20  H    0.152649
    21  H    0.153868
    22  H    0.155480
    23  H    0.154852
    24  H    0.161461
    25  C   -0.299996
    26  C   -0.299539
    27  C   -0.485913
    28  H    0.151022
    29  H    0.153646
    30  H    0.152376
    31  H    0.154569
    32  H    0.161232
    33  H    0.159700
    34  H    0.152183
 Sum of Mulliken charges =  -0.00000

 Dipole moment (field-independent basis, Debye):
    X=             -0.4862    Y=             -5.1247    Z=             -0.5428  Tot=              5.1762
 Quadrupole moment (field-independent basis, Debye-Ang):
   XX=            -93.2692   YY=            -98.9619   ZZ=            -93.9117
   XY=            -18.5883   XZ=             -4.1194   YZ=              0.4831

 Normal termination of Gaussian 16 at Thu May  6 04:33:19 2021.
