 Gaussian 16, Revision A.03,
 Gaussian 16:  EM64L-G16RevA.03 25-Dec-2016

 -------------
 #p 6-31g* mp2
 -------------

 ------------------------------------------------------
 Input file generated by CHIRIPA (05-May-2021 14:57:23)
 ------------------------------------------------------
 Symbolic Z-matrix:
 Charge =  0 Multiplicity = 1

                         Standard orientation:
 ---------------------------------------------------------------------
 Center     Atomic      Atomic             Coordinates (Angstroms)
 Number     Number       Type             X           Y           Z
 ---------------------------------------------------------------------
      1          6           0        2.278000    1.716228    0.216169
      2          6           0        1.965573    0.445824   -0.278788
      3          6           0        2.959733   -0.527813   -0.413792
      4          6           0        4.261666   -0.195417   -0.042614
      5          6           0        4.604385    1.061367    0.453700
      6          6           0        3.594088    2.019411    0.580192
      7          1           0        1.499445    2.466516    0.317737
      8          1           0        0.944344    0.207563   -0.562279
      9          1           0        2.745606   -1.519216   -0.794169
     10          1           0        5.631479    1.269321    0.728021
     11          1           0        3.839630    3.005196    0.964876
     12          7           0        5.322681   -1.217909   -0.181030
     13          8           0        6.462018   -0.900114    0.152966
     14          8           0        4.994876   -2.317772   -0.620896
     15          6           0       -6.225535   -1.300957    0.188702
     16          6           0       -5.984237   -0.502336   -0.934018
     17          6           0       -4.802684    0.237672   -1.038265
     18          6           0       -3.880033    0.155270    0.003473
     19          6           0       -4.091565   -0.631299    1.134778
     20          6           0       -5.280096   -1.362781    1.217703
     21          1           0       -7.146105   -1.872500    0.261401
     22          1           0       -6.716692   -0.452399   -1.734682
     23          1           0       -4.590396    0.863982   -1.896221
     24          1           0       -3.342595   -0.660803    1.916821
     25          1           0       -5.464820   -1.982157    2.090798
     26          7           0       -2.625482    0.934170   -0.095603
     27          8           0       -1.828517    0.844455    0.835759
     28          8           0       -2.462883    1.619637   -1.102743
 ---------------------------------------------------------------------

 SCF Done:  E(RHF) =  -868.340864687     A.U. after   16 cycles
 E2 =    -0.2598151108D+01 EUMP2 =    -0.87093901579471D+03

 The electronic state is 1-A.
 Alpha  occ. eigenvalues --  -20.61947 -20.61941 -20.59975 -20.59970 -15.86949
 Alpha  occ. eigenvalues --  -15.85019 -11.31961 -11.30133 -11.28485 -11.28482
 Alpha  occ. eigenvalues --  -11.28159 -11.27416 -11.27406 -11.26703 -11.26626
 Alpha  occ. eigenvalues --  -11.26180 -11.25634 -11.25414  -1.61016  -1.59057
 Alpha  occ. eigenvalues --   -1.40569  -1.38618  -1.20102  -1.18253  -1.09564
 Alpha  occ. eigenvalues --   -1.07654  -1.05446  -1.03618  -0.96455  -0.94544
 Alpha  occ. eigenvalues --   -0.86861  -0.84993  -0.83294  -0.81397  -0.78383
 Alpha  occ. eigenvalues --   -0.76509  -0.73173  -0.72312  -0.71242  -0.71199
 Alpha  occ. eigenvalues --   -0.70378  -0.69274  -0.65753  -0.65443  -0.63879
 Alpha  occ. eigenvalues --   -0.63566  -0.62794  -0.60970  -0.55958  -0.53995
 Alpha  occ. eigenvalues --   -0.53797  -0.53530  -0.51965  -0.51683  -0.49953
 Alpha  occ. eigenvalues --   -0.49918  -0.48014  -0.47970  -0.46041  -0.44081
 Alpha  occ. eigenvalues --   -0.38060  -0.37033  -0.36163  -0.35235
 Alpha virt. eigenvalues --    0.04094   0.06009   0.10628   0.12440   0.15669
 Alpha virt. eigenvalues --    0.17601   0.20816   0.22743   0.26756   0.27662
 Alpha virt. eigenvalues --    0.28529   0.29619   0.30451   0.31891   0.32372

 Mulliken charges:
               1
     1  C   -0.171096
     2  C   -0.218483
     3  C   -0.174153
     4  C    0.157552
     5  C   -0.173068
     6  C   -0.219952
     7  H    0.237116
     8  H    0.235361
     9  H    0.271018
    10  H    0.271523
    11  H    0.219967
    12  N    0.488287
    13  O   -0.463596
    14  O   -0.463712
    15  C   -0.169380
    16  C   -0.218569
    17  C   -0.170436
    18  C    0.157104
    19  C   -0.170625
    20  C   -0.218522
    21  H    0.228554
    22  H    0.225947
    23  H    0.276294
    24  H    0.276381
    25  H    0.226229
    26  N    0.487615
    27  O   -0.466504
    28  O   -0.460851
 Sum of Mulliken charges =  -0.00000

 Dipole moment (field-independent basis, Debye):
    X=             -8.8553    Y=              0.9162    Z=              0.8409  Tot=              8.9422
 Quadrupole moment (field-independent basis, Debye-Ang):
   XX=           -101.0098   YY=           -105.3881   ZZ=           -101.1469
   XY=             28.8422   XZ=              3.7332   YZ=             -0.8483

 Normal termination of Gaussian 16 at Thu May  6 01:52:01 2021.
