 Gaussian 16, Revision A.03,
 Gaussian 16:  EM64L-G16RevA.03 25-Dec-2016

 -------------
 #p 6-31g* mp2
 -------------

 ------------------------------------------------------
 Input file generated by CHIRIPA (05-May-2021 14:55:21)
 ------------------------------------------------------
 Symbolic Z-matrix:
 Charge =  0 Multiplicity = 1

                         Standard orientation:
 ---------------------------------------------------------------------
 Center     Atomic      Atomic             Coordinates (Angstroms)
 Number     Number       Type             X           Y           Z
 ---------------------------------------------------------------------
      1          6           0        5.182248   -1.736509   -0.224211
      2          6           0        3.813992   -1.926928   -0.443613
      3          6           0        2.927021   -0.848463   -0.374735
      4          6           0        3.444921    0.412445   -0.082880
      5          6           0        4.802916    0.634214    0.140634
      6          6           0        5.671481   -0.458799    0.066699
      7          1           0        5.864120   -2.579937   -0.279681
      8          1           0        3.431231   -2.918095   -0.669724
      9          1           0        1.863146   -0.967600   -0.540249
     10          1           0        5.154781    1.634056    0.364069
     11          1           0        6.733602   -0.307953    0.237544
     12          7           0        2.515667    1.561868   -0.007286
     13          8           0        2.997003    2.662770    0.251496
     14          8           0        1.323577    1.340120   -0.208248
     15          6           0       -5.348430   -0.356606    0.284740
     16          6           0       -6.255816    0.414478   -0.674461
     17          6           0       -7.739081    0.262316   -0.335985
     18          1           0       -5.623415   -1.420050    0.264385
     19          1           0       -5.529178   -0.006597    1.310517
     20          1           0       -6.072417    0.064089   -1.698281
     21          1           0       -5.978511    1.476180   -0.651964
     22          1           0       -7.943238    0.629945    0.674841
     23          1           0       -8.037678   -0.790169   -0.377422
     24          1           0       -8.369622    0.821594   -1.034187
     25          6           0       -3.862637   -0.214291   -0.040673
     26          6           0       -2.955250   -0.985374    0.918529
     27          6           0       -1.471985   -0.833212    0.580053
     28          1           0       -3.681889   -0.564300   -1.066450
     29          1           0       -3.587650    0.849153   -0.020317
     30          1           0       -3.232555   -2.047077    0.896031
     31          1           0       -3.138649   -0.634986    1.942349
     32          1           0       -1.173389    0.219272    0.621490
     33          1           0       -1.267829   -1.200841   -0.430774
     34          1           0       -0.841445   -1.392492    1.278254
 ---------------------------------------------------------------------

 SCF Done:  E(RHF) =  -669.535960107     A.U. after   15 cycles
 E2 =    -0.2091046012D+01 EUMP2 =    -0.67162700611970D+03

 The electronic state is 1-A.
 Alpha  occ. eigenvalues --  -20.60815 -20.60810 -15.85857 -11.31187 -11.27763
 Alpha  occ. eigenvalues --  -11.27733 -11.27506 -11.26773 -11.26758 -11.21216
 Alpha  occ. eigenvalues --  -11.21071 -11.20961 -11.20831 -11.20755 -11.20345
 Alpha  occ. eigenvalues --   -1.59884  -1.39438  -1.19361  -1.08766  -1.07955
 Alpha  occ. eigenvalues --   -1.04759  -1.03049  -0.95621  -0.95475  -0.86508
 Alpha  occ. eigenvalues --   -0.86158  -0.82439  -0.79122  -0.77771  -0.77466
 Alpha  occ. eigenvalues --   -0.72085  -0.71201  -0.70471  -0.65019  -0.64764
 Alpha  occ. eigenvalues --   -0.64585  -0.62104  -0.60441  -0.58883  -0.57100
 Alpha  occ. eigenvalues --   -0.55269  -0.54760  -0.53093  -0.52859  -0.52205
 Alpha  occ. eigenvalues --   -0.51894  -0.49423  -0.48837  -0.48824  -0.47411
 Alpha  occ. eigenvalues --   -0.46150  -0.45304  -0.45234  -0.44806  -0.43319
 Alpha  occ. eigenvalues --   -0.37347  -0.36362
 Alpha virt. eigenvalues --    0.05027   0.11285   0.16511   0.21126   0.23332
 Alpha virt. eigenvalues --    0.24561   0.26093   0.27217   0.27669   0.28021
 Alpha virt. eigenvalues --    0.29264   0.30627   0.31614   0.32038   0.32365

 Mulliken charges:
               1
     1  C   -0.170474
     2  C   -0.219640
     3  C   -0.173562
     4  C    0.157086
     5  C   -0.170599
     6  C   -0.218852
     7  H    0.225556
     8  H    0.223748
     9  H    0.282069
    10  H    0.275466
    11  H    0.223369
    12  N    0.491414
    13  O   -0.460190
    14  O   -0.463460
    15  C   -0.297971
    16  C   -0.299492
    17  C   -0.475465
    18  H    0.147461
    19  H    0.149226
    20  H    0.151177
    21  H    0.153448
    22  H    0.154974
    23  H    0.153941
    24  H    0.159550
    25  C   -0.298391
    26  C   -0.300215
    27  C   -0.481139
    28  H    0.148009
    29  H    0.154875
    30  H    0.146810
    31  H    0.151582
    32  H    0.182314
    33  H    0.146639
    34  H    0.150737
 Sum of Mulliken charges =  -0.00000

 Dipole moment (field-independent basis, Debye):
    X=              3.3909    Y=             -3.8944    Z=             -0.2713  Tot=              5.1710
 Quadrupole moment (field-independent basis, Debye-Ang):
   XX=            -71.2948   YY=            -96.2015   ZZ=            -95.1159
   XY=            -10.5029   XZ=             -0.0868   YZ=              1.6191

 Normal termination of Gaussian 16 at Wed May  5 17:27:57 2021.
