 Gaussian 16, Revision A.03,
 Gaussian 16:  EM64L-G16RevA.03 25-Dec-2016

 -------------
 #p 6-31g* mp2
 -------------

 ------------------------------------------------------
 Input file generated by CHIRIPA (05-May-2021 14:53:15)
 ------------------------------------------------------
 Symbolic Z-matrix:
 Charge =  0 Multiplicity = 1

                         Standard orientation:
 ---------------------------------------------------------------------
 Center     Atomic      Atomic             Coordinates (Angstroms)
 Number     Number       Type             X           Y           Z
 ---------------------------------------------------------------------
      1          6           0        3.379981    0.822718   -0.550285
      2          6           0        2.375605    1.520185    0.367732
      3          6           0        1.247626    2.206557   -0.403210
      4          1           0        3.804699    1.559626   -1.245645
      5          1           0        2.850901    0.081482   -1.165133
      6          1           0        2.906645    2.258914    0.981646
      7          1           0        1.953370    0.781568    1.061114
      8          1           0        0.692292    1.478302   -1.003085
      9          1           0        1.650983    2.964042   -1.083005
     10          1           0        0.541156    2.698759    0.272435
     11          6           0        4.513559    0.131930    0.205719
     12          6           0        5.517935   -0.565536   -0.712297
     13          6           0        6.645913   -1.251908    0.058645
     14          1           0        5.042639    0.873166    0.820568
     15          1           0        4.088841   -0.604978    0.901080
     16          1           0        5.940169    0.173080   -1.405680
     17          1           0        4.986894   -1.304266   -1.326211
     18          1           0        6.242556   -2.009393    0.738439
     19          1           0        7.201248   -0.523653    0.658520
     20          1           0        7.352384   -1.744110   -0.617000
     21          6           0       -0.825686   -1.250663    0.840383
     22          6           0       -1.207648    0.051542    1.179333
     23          6           0       -2.456199    0.548383    0.793566
     24          6           0       -3.301683   -0.288051    0.066363
     25          6           0       -2.949883   -1.589963   -0.286558
     26          6           0       -1.696487   -2.065823    0.109808
     27          1           0        0.146100   -1.628471    1.144173
     28          1           0       -0.533418    0.686851    1.746644
     29          1           0       -2.777276    1.552543    1.042543
     30          1           0       -3.643544   -2.199617   -0.852752
     31          1           0       -1.402510   -3.077548   -0.154833
     32          7           0       -4.626032    0.226826   -0.347641
     33          8           0       -5.352706   -0.530045   -0.987742
     34          8           0       -4.912307    1.377507   -0.024198
 ---------------------------------------------------------------------

 SCF Done:  E(RHF) =  -669.534943165     A.U. after   15 cycles
 E2 =    -0.2092592791D+01 EUMP2 =    -0.67162753595591D+03

 The electronic state is 1-A.
 Alpha  occ. eigenvalues --  -20.60759 -20.60754 -15.85811 -11.31189 -11.27744
 Alpha  occ. eigenvalues --  -11.27731 -11.27493 -11.26783 -11.26738 -11.22547
 Alpha  occ. eigenvalues --  -11.22222 -11.22166 -11.22096 -11.21772 -11.21617
 Alpha  occ. eigenvalues --   -1.59834  -1.39387  -1.19359  -1.09192  -1.08753
 Alpha  occ. eigenvalues --   -1.04771  -1.04248  -0.96679  -0.95587  -0.87690
 Alpha  occ. eigenvalues --   -0.86158  -0.82416  -0.80329  -0.78997  -0.77464
 Alpha  occ. eigenvalues --   -0.72030  -0.71156  -0.70471  -0.65873  -0.65008
 Alpha  occ. eigenvalues --   -0.64772  -0.62210  -0.61564  -0.60041  -0.58293
 Alpha  occ. eigenvalues --   -0.55974  -0.55259  -0.53416  -0.53133  -0.53032
 Alpha  occ. eigenvalues --   -0.52773  -0.50591  -0.48791  -0.48785  -0.48637
 Alpha  occ. eigenvalues --   -0.47374  -0.46538  -0.46453  -0.44790  -0.44517
 Alpha  occ. eigenvalues --   -0.37333  -0.36324
 Alpha virt. eigenvalues --    0.05056   0.11224   0.16511   0.19447   0.22502
 Alpha virt. eigenvalues --    0.23970   0.25155   0.25839   0.26480   0.28418
 Alpha virt. eigenvalues --    0.28843   0.30277   0.30972   0.31270   0.32110

 Mulliken charges:
               1
     1  C   -0.298892
     2  C   -0.301532
     3  C   -0.476838
     4  H    0.153873
     5  H    0.149608
     6  H    0.155282
     7  H    0.139203
     8  H    0.162108
     9  H    0.159747
    10  H    0.154140
    11  C   -0.297818
    12  C   -0.300082
    13  C   -0.475923
    14  H    0.151643
    15  H    0.144616
    16  H    0.154256
    17  H    0.151555
    18  H    0.154113
    19  H    0.156455
    20  H    0.162230
    21  C   -0.173746
    22  C   -0.214592
    23  C   -0.172187
    24  C    0.158590
    25  C   -0.171433
    26  C   -0.218551
    27  H    0.225262
    28  H    0.227188
    29  H    0.275515
    30  H    0.275536
    31  H    0.223285
    32  N    0.488056
    33  O   -0.460447
    34  O   -0.460219
 Sum of Mulliken charges =  -0.00000

 Dipole moment (field-independent basis, Debye):
    X=              4.7890    Y=             -1.7581    Z=              1.3575  Tot=              5.2790
 Quadrupole moment (field-independent basis, Debye-Ang):
   XX=           -125.9444   YY=            -89.5141   ZZ=            -94.4516
   XY=              6.7705   XZ=             -4.6612   YZ=              1.7840

 Normal termination of Gaussian 16 at Wed May  5 21:53:43 2021.
