 Gaussian 16, Revision A.03,
 Gaussian 16:  EM64L-G16RevA.03 25-Dec-2016

 -------------
 #p 6-31g* mp2
 -------------

 ------------------------------------------------------
 Input file generated by CHIRIPA (05-May-2021 14:51:08)
 ------------------------------------------------------
 Symbolic Z-matrix:
 Charge =  0 Multiplicity = 1

                         Standard orientation:
 ---------------------------------------------------------------------
 Center     Atomic      Atomic             Coordinates (Angstroms)
 Number     Number       Type             X           Y           Z
 ---------------------------------------------------------------------
      1          6           0       -2.728949    0.289501   -0.161284
      2          6           0       -2.318585   -1.151087    0.145785
      3          6           0       -3.421816   -2.160679   -0.172651
      4          1           0       -3.631780    0.537306    0.413549
      5          1           0       -3.003023    0.367028   -1.222542
      6          1           0       -2.044041   -1.225563    1.205829
      7          1           0       -1.416515   -1.395428   -0.429700
      8          1           0       -3.690893   -2.115649   -1.232920
      9          1           0       -4.321984   -1.944818    0.411902
     10          1           0       -3.107199   -3.184078    0.054352
     11          6           0       -1.636530    1.310438    0.151824
     12          6           0       -2.046893    2.751027   -0.155244
     13          6           0       -0.943662    3.760619    0.163191
     14          1           0       -1.362455    1.232912    1.213082
     15          1           0       -0.733698    1.062634   -0.423009
     16          1           0       -2.948963    2.995368    0.420240
     17          1           0       -2.321437    2.825503   -1.215289
     18          1           0       -0.043494    3.544758   -0.421362
     19          1           0       -0.674585    3.715589    1.223460
     20          1           0       -1.258279    4.784018   -0.063812
     21          6           0        2.603430   -0.275792   -0.358159
     22          6           0        2.809040    1.004138    0.452698
     23          6           0        3.652614    2.043188   -0.286593
     24          1           0        3.583187   -0.706295   -0.606531
     25          1           0        2.121851   -0.023265   -1.312992
     26          1           0        3.288832    0.749098    1.406307
     27          1           0        1.828676    1.431541    0.699333
     28          1           0        3.175104    2.326366   -1.230200
     29          1           0        4.643557    1.640046   -0.519208
     30          1           0        3.787067    2.950096    0.311154
     31          6           0        1.762049   -1.324148    0.367619
     32          6           0        1.556439   -2.604078   -0.443238
     33          6           0        0.712864   -3.643128    0.296052
     34          1           0        2.243628   -1.576676    1.322452
     35          1           0        0.782292   -0.893645    0.615991
     36          1           0        2.536803   -3.031480   -0.689873
     37          1           0        1.076645   -2.349039   -1.396847
     38          1           0       -0.278079   -3.239986    0.528668
     39          1           0        1.190375   -3.926306    1.239660
     40          1           0        0.578412   -4.550035   -0.301694
 ---------------------------------------------------------------------

 SCF Done:  E(RHF) =  -470.731806556     A.U. after   11 cycles
 E2 =    -0.1586327477D+01 EUMP2 =    -0.47231813403323D+03

 The electronic state is 1-A.
 Alpha  occ. eigenvalues --  -11.21692 -11.21688 -11.21550 -11.21517 -11.21514
 Alpha  occ. eigenvalues --  -11.21456 -11.21331 -11.21220 -11.21148 -11.21143
 Alpha  occ. eigenvalues --  -11.21032 -11.20940  -1.08581  -1.08333  -1.03673
 Alpha  occ. eigenvalues --   -1.03432  -0.96101  -0.95889  -0.87093  -0.86927
 Alpha  occ. eigenvalues --   -0.79778  -0.79481  -0.78560  -0.78013  -0.65391
 Alpha  occ. eigenvalues --   -0.64806  -0.61267  -0.60750  -0.59451  -0.59204
 Alpha  occ. eigenvalues --   -0.57844  -0.57425  -0.55431  -0.55081  -0.52768
 Alpha  occ. eigenvalues --   -0.52609  -0.52518  -0.52318  -0.50017  -0.49845
 Alpha  occ. eigenvalues --   -0.48215  -0.47692  -0.46737  -0.46583  -0.46459
 Alpha  occ. eigenvalues --   -0.45837  -0.45677  -0.44925  -0.43879  -0.43701
 Alpha virt. eigenvalues --    0.19973   0.21688   0.23631   0.24950   0.25058
 Alpha virt. eigenvalues --    0.25957   0.26362   0.27910   0.29107   0.30173
 Alpha virt. eigenvalues --    0.30320   0.31072   0.31585   0.31766   0.32437

 Mulliken charges:
               1
     1  C   -0.297188
     2  C   -0.307656
     3  C   -0.477622
     4  H    0.150089
     5  H    0.149613
     6  H    0.152502
     7  H    0.158628
     8  H    0.155579
     9  H    0.155751
    10  H    0.162289
    11  C   -0.303507
    12  C   -0.299697
    13  C   -0.477599
    14  H    0.150286
    15  H    0.153500
    16  H    0.152429
    17  H    0.152090
    18  H    0.156888
    19  H    0.155625
    20  H    0.160805
    21  C   -0.297573
    22  C   -0.304947
    23  C   -0.475458
    24  H    0.149529
    25  H    0.147567
    26  H    0.151624
    27  H    0.157495
    28  H    0.154125
    29  H    0.155047
    30  H    0.160526
    31  C   -0.307324
    32  C   -0.300122
    33  C   -0.483787
    34  H    0.148969
    35  H    0.159945
    36  H    0.152333
    37  H    0.149889
    38  H    0.165418
    39  H    0.154647
    40  H    0.159289
 Sum of Mulliken charges =  -0.00000

 Dipole moment (field-independent basis, Debye):
    X=             -0.0950    Y=              0.0380    Z=              0.0257  Tot=              0.1055
 Quadrupole moment (field-independent basis, Debye-Ang):
   XX=            -84.8237   YY=            -86.1371   ZZ=            -83.9160
   XY=             -1.3919   XZ=              0.1489   YZ=              0.1178

 Normal termination of Gaussian 16 at Wed May  5 15:06:03 2021.
