 Gaussian 16, Revision A.03,
 Gaussian 16:  EM64L-G16RevA.03 25-Dec-2016

 -------------
 #p 6-31g* mp2
 -------------

 ------------------------------------------------------
 Input file generated by CHIRIPA (05-May-2021 14:53:12)
 ------------------------------------------------------
 Symbolic Z-matrix:
 Charge =  0 Multiplicity = 1

                         Standard orientation:
 ---------------------------------------------------------------------
 Center     Atomic      Atomic             Coordinates (Angstroms)
 Number     Number       Type             X           Y           Z
 ---------------------------------------------------------------------
      1          6           0       -3.451843    0.576131    0.009574
      2          6           0       -2.795351    1.505235   -1.012076
      3          6           0       -1.597771    2.263003   -0.438155
      4          1           0       -3.771921    1.165845    0.879477
      5          1           0       -2.704358   -0.141056    0.376049
      6          1           0       -3.544199    2.219573   -1.377541
      7          1           0       -2.476970    0.913270   -1.879732
      8          1           0       -0.830271    1.563984   -0.090423
      9          1           0       -1.903564    2.877709    0.414622
     10          1           0       -1.143643    2.921271   -1.185357
     11          6           0       -4.650573   -0.188372   -0.549271
     12          6           0       -5.307065   -1.117476    0.472379
     13          6           0       -6.504645   -1.875243   -0.101542
     14          1           0       -5.398058    0.528815   -0.915746
     15          1           0       -4.330495   -0.778086   -1.419174
     16          1           0       -5.625446   -0.525511    1.340035
     17          1           0       -4.558217   -1.831814    0.837844
     18          1           0       -6.198852   -2.489950   -0.954319
     19          1           0       -7.272145   -1.176225   -0.449274
     20          1           0       -6.958773   -2.533512    0.645660
     21          6           0        5.054525   -1.400598   -0.900630
     22          6           0        4.069866   -2.102089   -0.197155
     23          6           0        3.018349   -1.420351    0.422597
     24          6           0        2.982335   -0.030707    0.318270
     25          6           0        3.948341    0.696517   -0.375464
     26          6           0        4.990732   -0.005991   -0.987386
     27          1           0        5.867824   -1.938256   -1.379027
     28          1           0        4.116860   -3.185173   -0.128124
     29          1           0        2.242793   -1.938442    0.973517
     30          1           0        3.874651    1.776030   -0.426842
     31          1           0        5.754041    0.541414   -1.533052
     32          7           0        1.873971    0.702013    0.970229
     33          8           0        1.864905    1.926425    0.863597
     34          8           0        1.035289    0.038033    1.575523
 ---------------------------------------------------------------------

 SCF Done:  E(RHF) =  -669.536035689     A.U. after   15 cycles
 E2 =    -0.2091606925D+01 EUMP2 =    -0.67162764261317D+03

 The electronic state is 1-A.
 Alpha  occ. eigenvalues --  -20.60987 -20.60973 -15.85987 -11.31318 -11.27880
 Alpha  occ. eigenvalues --  -11.27873 -11.27615 -11.26882 -11.26872 -11.20960
 Alpha  occ. eigenvalues --  -11.20618 -11.20576 -11.20483 -11.20315 -11.19472
 Alpha  occ. eigenvalues --   -1.60035  -1.39586  -1.19483  -1.08888  -1.07534
 Alpha  occ. eigenvalues --   -1.04878  -1.02589  -0.95730  -0.95007  -0.86278
 Alpha  occ. eigenvalues --   -0.86013  -0.82563  -0.78678  -0.77620  -0.77301
 Alpha  occ. eigenvalues --   -0.72201  -0.71366  -0.70591  -0.65136  -0.64880
 Alpha  occ. eigenvalues --   -0.64177  -0.62224  -0.59997  -0.58440  -0.56618
 Alpha  occ. eigenvalues --   -0.55385  -0.54302  -0.53209  -0.52968  -0.51716
 Alpha  occ. eigenvalues --   -0.51421  -0.49194  -0.48972  -0.48722  -0.46934
 Alpha  occ. eigenvalues --   -0.45719  -0.44998  -0.44841  -0.44730  -0.42842
 Alpha  occ. eigenvalues --   -0.37458  -0.36478
 Alpha virt. eigenvalues --    0.04865   0.11178   0.16365   0.21315   0.23695
 Alpha virt. eigenvalues --    0.25296   0.27235   0.27523   0.28156   0.28405
 Alpha virt. eigenvalues --    0.29053   0.30866   0.32369   0.32449   0.32567

 Mulliken charges:
               1
     1  C   -0.298457
     2  C   -0.300325
     3  C   -0.476069
     4  H    0.149963
     5  H    0.155845
     6  H    0.146587
     7  H    0.145155
     8  H    0.171452
     9  H    0.155676
    10  H    0.152889
    11  C   -0.297410
    12  C   -0.298903
    13  C   -0.475107
    14  H    0.147278
    15  H    0.146338
    16  H    0.152122
    17  H    0.151777
    18  H    0.153300
    19  H    0.154230
    20  H    0.158398
    21  C   -0.170486
    22  C   -0.218615
    23  C   -0.170970
    24  C    0.160132
    25  C   -0.170724
    26  C   -0.218632
    27  H    0.226102
    28  H    0.223881
    29  H    0.275707
    30  H    0.276163
    31  H    0.223964
    32  N    0.485636
    33  O   -0.456444
    34  O   -0.460452
 Sum of Mulliken charges =  -0.00000

 Dipole moment (field-independent basis, Debye):
    X=              4.2484    Y=             -2.5686    Z=             -2.1557  Tot=              5.4123
 Quadrupole moment (field-independent basis, Debye-Ang):
   XX=            -72.6146   YY=            -90.9175   ZZ=            -96.6519
   XY=             -7.1343   XZ=             -7.3919   YZ=             -2.0773

 Normal termination of Gaussian 16 at Thu May  6 10:22:59 2021.
