 Gaussian 16, Revision A.03,
 Gaussian 16:  EM64L-G16RevA.03 25-Dec-2016

 -------------
 #p 6-31g* mp2
 -------------

 ------------------------------------------------------
 Input file generated by CHIRIPA (05-May-2021 14:55:24)
 ------------------------------------------------------
 Symbolic Z-matrix:
 Charge =  0 Multiplicity = 1

                         Standard orientation:
 ---------------------------------------------------------------------
 Center     Atomic      Atomic             Coordinates (Angstroms)
 Number     Number       Type             X           Y           Z
 ---------------------------------------------------------------------
      1          6           0       -4.195892    2.472223   -0.045680
      2          6           0       -5.224117    1.535631   -0.194234
      3          6           0       -4.942269    0.166287   -0.197049
      4          6           0       -3.614994   -0.233112   -0.048352
      5          6           0       -2.568615    0.675671    0.101638
      6          6           0       -2.873754    2.040016    0.101522
      7          1           0       -4.423885    3.534021   -0.044631
      8          1           0       -6.251831    1.868401   -0.308742
      9          1           0       -5.718934   -0.580293   -0.310307
     10          1           0       -1.553881    0.313523    0.213800
     11          1           0       -2.073192    2.765133    0.217075
     12          7           0       -3.304285   -1.680129   -0.049781
     13          8           0       -2.126730   -2.006313    0.082898
     14          8           0       -4.244191   -2.460718   -0.183552
     15          6           0        4.078610    0.006268    0.515578
     16          6           0        2.785458   -0.381554   -0.202292
     17          6           0        1.565678   -0.350558    0.719104
     18          1           0        4.239250   -0.675444    1.361987
     19          1           0        3.965459    1.012661    0.941915
     20          1           0        2.901507   -1.386361   -0.628332
     21          1           0        2.627978    0.301041   -1.047206
     22          1           0        1.421824    0.652241    1.134198
     23          1           0        1.696907   -1.044749    1.555452
     24          1           0        0.652224   -0.631094    0.185475
     25          6           0        5.306866   -0.020025   -0.392401
     26          6           0        6.600019    0.367797    0.325469
     27          6           0        7.819799    0.336800   -0.595927
     28          1           0        5.420018   -1.026419   -0.818738
     29          1           0        5.146227    0.661688   -1.238811
     30          1           0        6.757499   -0.314798    1.170383
     31          1           0        6.483970    1.372604    0.751509
     32          1           0        7.688571    1.030992   -1.432275
     33          1           0        7.963654   -0.665998   -1.011021
     34          1           0        8.733254    0.617337   -0.062298
 ---------------------------------------------------------------------

 SCF Done:  E(RHF) =  -669.535777544     A.U. after   15 cycles
 E2 =    -0.2091189539D+01 EUMP2 =    -0.67162696708288D+03

 The electronic state is 1-A.
 Alpha  occ. eigenvalues --  -20.60791 -20.60786 -15.85836 -11.31163 -11.27742
 Alpha  occ. eigenvalues --  -11.27697 -11.27486 -11.26754 -11.26736 -11.21567
 Alpha  occ. eigenvalues --  -11.21526 -11.21356 -11.21297 -11.21037 -11.21017
 Alpha  occ. eigenvalues --   -1.59861  -1.39416  -1.19340  -1.08745  -1.08381
 Alpha  occ. eigenvalues --   -1.04739  -1.03482  -0.95943  -0.95580  -0.86964
 Alpha  occ. eigenvalues --   -0.86139  -0.82415  -0.79550  -0.78192  -0.77465
 Alpha  occ. eigenvalues --   -0.72059  -0.71179  -0.70458  -0.65015  -0.64993
 Alpha  occ. eigenvalues --   -0.64755  -0.62122  -0.60877  -0.59281  -0.57537
 Alpha  occ. eigenvalues --   -0.55284  -0.55199  -0.53072  -0.52980  -0.52481
 Alpha  occ. eigenvalues --   -0.52336  -0.49883  -0.48813  -0.48809  -0.47853
 Alpha  occ. eigenvalues --   -0.46577  -0.45734  -0.45659  -0.44827  -0.43722
 Alpha  occ. eigenvalues --   -0.37327  -0.36340
 Alpha virt. eigenvalues --    0.05063   0.11307   0.16562   0.20901   0.22945
 Alpha virt. eigenvalues --    0.24115   0.26386   0.26729   0.27500   0.27810
 Alpha virt. eigenvalues --    0.29293   0.30037   0.31496   0.31610   0.31968

 Mulliken charges:
               1
     1  C   -0.170258
     2  C   -0.219224
     3  C   -0.169833
     4  C    0.155147
     5  C   -0.175509
     6  C   -0.223059
     7  H    0.225484
     8  H    0.223310
     9  H    0.275483
    10  H    0.289287
    11  H    0.224010
    12  N    0.488601
    13  O   -0.464287
    14  O   -0.459951
    15  C   -0.298471
    16  C   -0.298673
    17  C   -0.489215
    18  H    0.151138
    19  H    0.146906
    20  H    0.157280
    21  H    0.148730
    22  H    0.144933
    23  H    0.162164
    24  H    0.175834
    25  C   -0.298251
    26  C   -0.299540
    27  C   -0.475681
    28  H    0.151045
    29  H    0.148627
    30  H    0.152550
    31  H    0.150831
    32  H    0.154655
    33  H    0.155892
    34  H    0.160045
 Sum of Mulliken charges =  -0.00000

 Dipole moment (field-independent basis, Debye):
    X=             -1.0824    Y=              4.9907    Z=              0.0005  Tot=              5.1067
 Quadrupole moment (field-independent basis, Debye-Ang):
   XX=            -83.0869   YY=            -96.4945   ZZ=            -95.8673
   XY=            -17.7158   XZ=              1.2841   YZ=             -0.3965

 Normal termination of Gaussian 16 at Thu May  6 16:01:08 2021.
