 Gaussian 16, Revision A.03,
 Gaussian 16:  EM64L-G16RevA.03 25-Dec-2016

 -------------
 #p 6-31g* mp2
 -------------

 ------------------------------------------------------
 Input file generated by CHIRIPA (05-May-2021 14:51:09)
 ------------------------------------------------------
 Symbolic Z-matrix:
 Charge =  0 Multiplicity = 1

                         Standard orientation:
 ---------------------------------------------------------------------
 Center     Atomic      Atomic             Coordinates (Angstroms)
 Number     Number       Type             X           Y           Z
 ---------------------------------------------------------------------
      1          6           0        2.801483    0.308398    0.340156
      2          6           0        3.811254   -0.424481   -0.543719
      3          6           0        4.327672   -1.714841    0.093524
      4          1           0        3.268810    0.537115    1.307750
      5          1           0        1.956168   -0.360976    0.551758
      6          1           0        4.653756    0.246548   -0.754730
      7          1           0        3.341530   -0.651310   -1.509392
      8          1           0        3.501115   -2.405706    0.288747
      9          1           0        4.820797   -1.502746    1.047696
     10          1           0        5.048192   -2.222584   -0.555249
     11          6           0        2.276070    1.600297   -0.283277
     12          6           0        1.266299    2.333177    0.600598
     13          6           0        0.749882    3.623536   -0.036646
     14          1           0        3.121385    2.269671   -0.494879
     15          1           0        1.808743    1.371581   -1.250872
     16          1           0        1.736023    2.560005    1.566270
     17          1           0        0.423797    1.662147    0.811609
     18          1           0        0.256756    3.411442   -0.990817
     19          1           0        1.576438    4.314401   -0.231868
     20          1           0        0.029361    4.131279    0.612128
     21          6           0       -2.804237   -0.284195   -0.281141
     22          6           0       -4.188141    0.065458    0.267073
     23          6           0       -4.705698    1.408996   -0.247547
     24          1           0       -2.097231    0.511368   -0.008805
     25          1           0       -2.846336   -0.302598   -1.378995
     26          1           0       -4.143772    0.081838    1.363603
     27          1           0       -4.891894   -0.731123   -0.006436
     28          1           0       -4.778531    1.400943   -1.339898
     29          1           0       -4.026158    2.218522    0.037926
     30          1           0       -5.696338    1.639151    0.156830
     31          6           0       -2.273316   -1.624500    0.224262
     32          6           0       -0.889412   -1.974153   -0.323952
     33          6           0       -0.371856   -3.317692    0.190668
     34          1           0       -2.231217   -1.606096    1.322117
     35          1           0       -2.980322   -2.420062   -0.048074
     36          1           0       -0.185659   -1.177572   -0.050443
     37          1           0       -0.933782   -1.990533   -1.420482
     38          1           0       -1.051395   -4.127218   -0.094805
     39          1           0       -0.299022   -3.309638    1.283019
     40          1           0        0.618784   -3.547847   -0.213709
 ---------------------------------------------------------------------

 SCF Done:  E(RHF) =  -470.733324691     A.U. after   11 cycles
 E2 =    -0.1583948555D+01 EUMP2 =    -0.47231727324585D+03

 The electronic state is 1-A.
 Alpha  occ. eigenvalues --  -11.21667 -11.21649 -11.21634 -11.21598 -11.21460
 Alpha  occ. eigenvalues --  -11.21409 -11.21401 -11.21345 -11.21151 -11.21099
 Alpha  occ. eigenvalues --  -11.21088 -11.21068  -1.08501  -1.08432  -1.03587
 Alpha  occ. eigenvalues --   -1.03541  -0.96032  -0.95991  -0.87049  -0.87004
 Alpha  occ. eigenvalues --   -0.79661  -0.79601  -0.78370  -0.78195  -0.65321
 Alpha  occ. eigenvalues --   -0.64900  -0.61039  -0.60897  -0.59407  -0.59348
 Alpha  occ. eigenvalues --   -0.57646  -0.57598  -0.55371  -0.55234  -0.52730
 Alpha  occ. eigenvalues --   -0.52687  -0.52473  -0.52395  -0.50030  -0.49879
 Alpha  occ. eigenvalues --   -0.47979  -0.47920  -0.46807  -0.46628  -0.46144
 Alpha  occ. eigenvalues --   -0.45805  -0.45765  -0.45241  -0.43835  -0.43796
 Alpha virt. eigenvalues --    0.19259   0.21851   0.23640   0.24745   0.25959
 Alpha virt. eigenvalues --    0.26621   0.26836   0.27397   0.27764   0.29790
 Alpha virt. eigenvalues --    0.30654   0.31517   0.31702   0.31826   0.32303

 Mulliken charges:
               1
     1  C   -0.305598
     2  C   -0.299262
     3  C   -0.477363
     4  H    0.149701
     5  H    0.156309
     6  H    0.151951
     7  H    0.152168
     8  H    0.156493
     9  H    0.155238
    10  H    0.160248
    11  C   -0.298136
    12  C   -0.303811
    13  C   -0.475838
    14  H    0.149782
    15  H    0.150434
    16  H    0.152208
    17  H    0.153804
    18  H    0.155912
    19  H    0.155530
    20  H    0.159940
    21  C   -0.302156
    22  C   -0.299572
    23  C   -0.475877
    24  H    0.152642
    25  H    0.149613
    26  H    0.152089
    27  H    0.152121
    28  H    0.155171
    29  H    0.155582
    30  H    0.160382
    31  C   -0.297377
    32  C   -0.308777
    33  C   -0.477085
    34  H    0.149663
    35  H    0.150034
    36  H    0.159096
    37  H    0.152101
    38  H    0.155958
    39  H    0.155642
    40  H    0.161038
 Sum of Mulliken charges =  -0.00000

 Dipole moment (field-independent basis, Debye):
    X=             -0.0128    Y=             -0.0043    Z=             -0.0049  Tot=              0.0144
 Quadrupole moment (field-independent basis, Debye-Ang):
   XX=            -84.4522   YY=            -86.0568   ZZ=            -84.1322
   XY=              1.5731   XZ=              0.3860   YZ=              1.1784

 Normal termination of Gaussian 16 at Wed May  5 21:20:34 2021.
