 Gaussian 16, Revision A.03,
 Gaussian 16:  EM64L-G16RevA.03 25-Dec-2016

 -------------
 #p 6-31g* mp2
 -------------

 ------------------------------------------------------
 Input file generated by CHIRIPA (05-May-2021 14:53:14)
 ------------------------------------------------------
 Symbolic Z-matrix:
 Charge =  0 Multiplicity = 1

                         Standard orientation:
 ---------------------------------------------------------------------
 Center     Atomic      Atomic             Coordinates (Angstroms)
 Number     Number       Type             X           Y           Z
 ---------------------------------------------------------------------
      1          6           0       -4.267073    0.225736   -0.181486
      2          6           0       -3.077582   -0.495452    0.453324
      3          6           0       -1.733788   -0.017064   -0.097272
      4          1           0       -4.240614    0.075659   -1.269476
      5          1           0       -4.164357    1.306604   -0.012463
      6          1           0       -3.183224   -1.574759    0.284350
      7          1           0       -3.106983   -0.343801    1.539949
      8          1           0       -1.602340    1.054470    0.084764
      9          1           0       -1.679013   -0.183483   -1.177969
     10          1           0       -0.897240   -0.545735    0.370228
     11          6           0       -5.617454   -0.241610    0.358685
     12          6           0       -6.806945    0.479579   -0.276125
     13          6           0       -8.150739    0.001191    0.274471
     14          1           0       -5.720170   -1.322478    0.189662
     15          1           0       -5.643913   -0.091533    1.446675
     16          1           0       -6.777544    0.327927   -1.362749
     17          1           0       -6.701303    1.558886   -0.107151
     18          1           0       -8.205514    0.167610    1.355168
     19          1           0       -8.282187   -1.070343    0.092435
     20          1           0       -8.987287    0.529861   -0.193029
     21          6           0        6.322903    0.185391    0.453804
     22          6           0        5.545717    1.342638    0.338556
     23          6           0        4.180760    1.255311    0.049054
     24          6           0        3.623149   -0.011123   -0.119782
     25          6           0        4.371022   -1.182531   -0.011257
     26          6           0        5.734114   -1.071284    0.278838
     27          1           0        7.382510    0.262520    0.678926
     28          1           0        6.000295    2.319919    0.473930
     29          1           0        3.555743    2.134964   -0.045725
     30          1           0        3.889599   -2.142723   -0.151552
     31          1           0        6.335240   -1.971722    0.367758
     32          7           0        2.179118   -0.116233   -0.426579
     33          8           0        1.711737   -1.243793   -0.570808
     34          8           0        1.542009    0.930931   -0.517008
 ---------------------------------------------------------------------

 SCF Done:  E(RHF) =  -669.535867039     A.U. after   15 cycles
 E2 =    -0.2091824623D+01 EUMP2 =    -0.67162769166272D+03

 The electronic state is 1-A.
 Alpha  occ. eigenvalues --  -20.60984 -20.60969 -15.85986 -11.31319 -11.27877
 Alpha  occ. eigenvalues --  -11.27873 -11.27613 -11.26882 -11.26872 -11.20858
 Alpha  occ. eigenvalues --  -11.20467 -11.20457 -11.20186 -11.20016 -11.18764
 Alpha  occ. eigenvalues --   -1.60021  -1.39577  -1.19482  -1.08886  -1.07334
 Alpha  occ. eigenvalues --   -1.04877  -1.02290  -0.95732  -0.94682  -0.86277
 Alpha  occ. eigenvalues --   -0.85686  -0.82559  -0.78404  -0.77616  -0.77076
 Alpha  occ. eigenvalues --   -0.72191  -0.71340  -0.70590  -0.65136  -0.64879
 Alpha  occ. eigenvalues --   -0.63985  -0.62224  -0.59706  -0.58189  -0.56294
 Alpha  occ. eigenvalues --   -0.55380  -0.53999  -0.53212  -0.52968  -0.51442
 Alpha  occ. eigenvalues --   -0.51121  -0.48977  -0.48803  -0.48635  -0.46677
 Alpha  occ. eigenvalues --   -0.45496  -0.44990  -0.44595  -0.44518  -0.42453
 Alpha  occ. eigenvalues --   -0.37459  -0.36478
 Alpha virt. eigenvalues --    0.04894   0.11178   0.16396   0.21317   0.23848
 Alpha virt. eigenvalues --    0.25611   0.27234   0.27667   0.28193   0.28495
 Alpha virt. eigenvalues --    0.29420   0.30881   0.32412   0.32590   0.32723

 Mulliken charges:
               1
     1  C   -0.296712
     2  C   -0.303133
     3  C   -0.466379
     4  H    0.148254
     5  H    0.147161
     6  H    0.147540
     7  H    0.144742
     8  H    0.151820
     9  H    0.153920
    10  H    0.172683
    11  C   -0.296885
    12  C   -0.298704
    13  C   -0.475029
    14  H    0.147852
    15  H    0.147309
    16  H    0.151080
    17  H    0.150656
    18  H    0.153919
    19  H    0.154220
    20  H    0.157938
    21  C   -0.170552
    22  C   -0.218585
    23  C   -0.170858
    24  C    0.159841
    25  C   -0.170818
    26  C   -0.218582
    27  H    0.226065
    28  H    0.223906
    29  H    0.275920
    30  H    0.275856
    31  H    0.223894
    32  N    0.487093
    33  O   -0.459199
    34  O   -0.456230
 Sum of Mulliken charges =  -0.00000

 Dipole moment (field-independent basis, Debye):
    X=              5.5957    Y=              0.3858    Z=              1.0160  Tot=              5.7002
 Quadrupole moment (field-independent basis, Debye-Ang):
   XX=            -61.3367   YY=            -89.3646   ZZ=            -95.5957
   XY=              0.6438   XZ=              3.9432   YZ=              0.7268

 Normal termination of Gaussian 16 at Thu May  6 20:23:16 2021.
