 Gaussian 16, Revision A.03,
 Gaussian 16:  EM64L-G16RevA.03 25-Dec-2016

 -------------
 #p 6-31g* mp2
 -------------

 ------------------------------------------------------
 Input file generated by CHIRIPA (05-May-2021 14:55:20)
 ------------------------------------------------------
 Symbolic Z-matrix:
 Charge =  0 Multiplicity = 1

                         Standard orientation:
 ---------------------------------------------------------------------
 Center     Atomic      Atomic             Coordinates (Angstroms)
 Number     Number       Type             X           Y           Z
 ---------------------------------------------------------------------
      1          6           0        4.025955    0.891504    1.160245
      2          6           0        3.860971    0.992721   -0.225055
      3          6           0        2.930447    0.188570   -0.889896
      4          6           0        2.178278   -0.710049   -0.134902
      5          6           0        2.319564   -0.834227    1.246368
      6          6           0        3.256082   -0.020039    1.890249
      7          1           0        4.751136    1.520086    1.668568
      8          1           0        4.457489    1.699752   -0.794545
      9          1           0        2.782348    0.246340   -1.961412
     10          1           0        1.710430   -1.548362    1.787094
     11          1           0        3.382074   -0.100804    2.966189
     12          7           0        1.190001   -1.566680   -0.827644
     13          8           0        0.539577   -2.350486   -0.139724
     14          8           0        1.084527   -1.438082   -2.045419
     15          6           0       -3.728349    0.556093   -0.109451
     16          6           0       -4.295442   -0.486335    0.854778
     17          6           0       -5.760126   -0.820074    0.569979
     18          1           0       -4.333172    1.471120   -0.047330
     19          1           0       -3.827381    0.185253   -1.139045
     20          1           0       -4.194110   -0.114236    1.882344
     21          1           0       -3.689082   -1.398920    0.790495
     22          1           0       -5.874929   -1.215478   -0.444455
     23          1           0       -6.382825    0.076506    0.653598
     24          1           0       -6.145269   -1.567206    1.270921
     25          6           0       -2.265015    0.900204    0.162518
     26          6           0       -1.697922    1.942631   -0.801710
     27          6           0       -0.233237    2.276370   -0.516911
     28          1           0       -2.165983    1.271043    1.192114
     29          1           0       -1.660191   -0.014823    0.100399
     30          1           0       -2.304281    2.855217   -0.737426
     31          1           0       -1.799254    1.570533   -1.829275
     32          1           0        0.389462    1.379790   -0.600529
     33          1           0       -0.118435    2.671774    0.497523
     34          1           0        0.151906    3.023503   -1.217852
 ---------------------------------------------------------------------

 SCF Done:  E(RHF) =  -669.534713237     A.U. after   15 cycles
 E2 =    -0.2094043334D+01 EUMP2 =    -0.67162875657155D+03

 The electronic state is 1-A.
 Alpha  occ. eigenvalues --  -20.60954 -20.60949 -15.85968 -11.31212 -11.27816
 Alpha  occ. eigenvalues --  -11.27796 -11.27558 -11.26813 -11.26802 -11.21131
 Alpha  occ. eigenvalues --  -11.20971 -11.20816 -11.20776 -11.20753 -11.20530
 Alpha  occ. eigenvalues --   -1.60014  -1.39568  -1.19433  -1.08844  -1.07874
 Alpha  occ. eigenvalues --   -1.04815  -1.03038  -0.95689  -0.95506  -0.86546
 Alpha  occ. eigenvalues --   -0.86212  -0.82517  -0.79105  -0.77688  -0.77571
 Alpha  occ. eigenvalues --   -0.72194  -0.71358  -0.70538  -0.65080  -0.64817
 Alpha  occ. eigenvalues --   -0.64482  -0.62162  -0.60441  -0.58887  -0.57148
 Alpha  occ. eigenvalues --   -0.55330  -0.54913  -0.53252  -0.52905  -0.52213
 Alpha  occ. eigenvalues --   -0.51817  -0.49438  -0.48959  -0.48950  -0.47408
 Alpha  occ. eigenvalues --   -0.46110  -0.45259  -0.45178  -0.44863  -0.43278
 Alpha  occ. eigenvalues --   -0.37338  -0.36375
 Alpha virt. eigenvalues --    0.04924   0.11198   0.16418   0.21357   0.23328
 Alpha virt. eigenvalues --    0.24659   0.27046   0.27261   0.27900   0.28361
 Alpha virt. eigenvalues --    0.28489   0.30906   0.31815   0.32158   0.32411

 Mulliken charges:
               1
     1  C   -0.170523
     2  C   -0.214584
     3  C   -0.173103
     4  C    0.155346
     5  C   -0.170648
     6  C   -0.217864
     7  H    0.225979
     8  H    0.223877
     9  H    0.275572
    10  H    0.275901
    11  H    0.223700
    12  N    0.491207
    13  O   -0.460052
    14  O   -0.459478
    15  C   -0.297706
    16  C   -0.301288
    17  C   -0.475563
    18  H    0.146232
    19  H    0.153217
    20  H    0.148031
    21  H    0.160144
    22  H    0.156564
    23  H    0.152606
    24  H    0.158956
    25  C   -0.302885
    26  C   -0.299417
    27  C   -0.477615
    28  H    0.144372
    29  H    0.158843
    30  H    0.148844
    31  H    0.157468
    32  H    0.156790
    33  H    0.151484
    34  H    0.155593
 Sum of Mulliken charges =  -0.00000

 Dipole moment (field-independent basis, Debye):
    X=              3.6181    Y=              2.8769    Z=              2.3953  Tot=              5.2062
 Quadrupole moment (field-independent basis, Debye-Ang):
   XX=            -81.0771   YY=            -98.7182   ZZ=            -91.3175
   XY=              4.6522   XZ=              3.7141   YZ=             -3.7968

 Normal termination of Gaussian 16 at Wed May  5 17:23:44 2021.
