 Gaussian 16, Revision A.03,
 Gaussian 16:  EM64L-G16RevA.03 25-Dec-2016

 -------------
 #p 6-31g* mp2
 -------------

 ------------------------------------------------------
 Input file generated by CHIRIPA (05-May-2021 14:51:07)
 ------------------------------------------------------
 Symbolic Z-matrix:
 Charge =  0 Multiplicity = 1

                         Standard orientation:
 ---------------------------------------------------------------------
 Center     Atomic      Atomic             Coordinates (Angstroms)
 Number     Number       Type             X           Y           Z
 ---------------------------------------------------------------------
      1          6           0       -3.170719   -0.654452   -0.442468
      2          6           0       -4.244775    0.288898    0.100192
      3          6           0       -5.283949    0.670589   -0.954428
      4          1           0       -2.670462   -0.177654   -1.296489
      5          1           0       -3.652284   -1.563035   -0.829725
      6          1           0       -3.761214    1.194835    0.487569
      7          1           0       -4.742404   -0.190123    0.953140
      8          1           0       -5.792833   -0.221234   -1.334283
      9          1           0       -4.806068    1.171593   -1.802500
     10          1           0       -6.042206    1.345388   -0.545095
     11          6           0       -2.124648   -1.045096    0.600058
     12          6           0       -1.050592   -1.988446    0.057398
     13          6           0       -0.011418   -2.370137    1.112018
     14          1           0       -1.643083   -0.136513    0.987314
     15          1           0       -2.624905   -1.521894    1.454079
     16          1           0       -0.552963   -1.509425   -0.795551
     17          1           0       -1.534154   -2.894383   -0.329980
     18          1           0       -0.489300   -2.871141    1.960089
     19          1           0        0.497465   -1.478314    1.491873
     20          1           0        0.746838   -3.044936    0.702684
     21          6           0        2.201872    1.427412   -0.304667
     22          6           0        1.461613    2.108258    0.847049
     23          6           0        0.573809    3.261859    0.379285
     24          1           0        2.813839    2.173034   -0.830491
     25          1           0        1.468605    1.054850   -1.033304
     26          1           0        2.196001    2.478207    1.573979
     27          1           0        0.851485    1.360891    1.370310
     28          1           0       -0.180494    2.904645   -0.329253
     29          1           0        1.171662    4.028310   -0.124428
     30          1           0        0.054053    3.734303    1.218637
     31          6           0        3.093496    0.272136    0.147078
     32          6           0        3.833754   -0.408710   -1.004639
     33          6           0        4.721558   -1.562311   -0.536875
     34          1           0        3.826762    0.644698    0.875714
     35          1           0        2.481528   -0.473485    0.672901
     36          1           0        4.443882    0.338657   -1.527899
     37          1           0        3.099366   -0.778659   -1.731569
     38          1           0        4.123706   -2.328762   -0.033162
     39          1           0        5.475862   -1.205098    0.171664
     40          1           0        5.241314   -2.034755   -1.376227
 ---------------------------------------------------------------------

 SCF Done:  E(RHF) =  -470.733148086     A.U. after   11 cycles
 E2 =    -0.1584069659D+01 EUMP2 =    -0.47231721774448D+03

 The electronic state is 1-A.
 Alpha  occ. eigenvalues --  -11.21695 -11.21670 -11.21631 -11.21588 -11.21469
 Alpha  occ. eigenvalues --  -11.21417 -11.21407 -11.21313 -11.21164 -11.21139
 Alpha  occ. eigenvalues --  -11.21092 -11.21056  -1.08508  -1.08432  -1.03594
 Alpha  occ. eigenvalues --   -1.03552  -0.96063  -0.95981  -0.87076  -0.87002
 Alpha  occ. eigenvalues --   -0.79664  -0.79616  -0.78343  -0.78218  -0.65367
 Alpha  occ. eigenvalues --   -0.64874  -0.60988  -0.60952  -0.59425  -0.59347
 Alpha  occ. eigenvalues --   -0.57678  -0.57590  -0.55529  -0.55105  -0.52742
 Alpha  occ. eigenvalues --   -0.52698  -0.52491  -0.52394  -0.50127  -0.49830
 Alpha  occ. eigenvalues --   -0.47999  -0.47922  -0.46824  -0.46650  -0.45963
 Alpha  occ. eigenvalues --   -0.45853  -0.45724  -0.45359  -0.43845  -0.43799
 Alpha virt. eigenvalues --    0.18715   0.22516   0.23737   0.24647   0.25535
 Alpha virt. eigenvalues --    0.25994   0.26931   0.27867   0.28432   0.29871
 Alpha virt. eigenvalues --    0.30511   0.31307   0.31670   0.31866   0.32064

 Mulliken charges:
               1
     1  C   -0.298139
     2  C   -0.299967
     3  C   -0.475730
     4  H    0.149267
     5  H    0.149786
     6  H    0.152472
     7  H    0.152037
     8  H    0.155186
     9  H    0.155246
    10  H    0.160480
    11  C   -0.301556
    12  C   -0.300309
    13  C   -0.481922
    14  H    0.152175
    15  H    0.150104
    16  H    0.152053
    17  H    0.152671
    18  H    0.156207
    19  H    0.160261
    20  H    0.160184
    21  C   -0.298419
    22  C   -0.304051
    23  C   -0.475847
    24  H    0.149934
    25  H    0.149255
    26  H    0.152622
    27  H    0.154273
    28  H    0.154646
    29  H    0.155800
    30  H    0.160455
    31  C   -0.306277
    32  C   -0.299117
    33  C   -0.476107
    34  H    0.149204
    35  H    0.158897
    36  H    0.151736
    37  H    0.151551
    38  H    0.155615
    39  H    0.155208
    40  H    0.160115
 Sum of Mulliken charges =  -0.00000

 Dipole moment (field-independent basis, Debye):
    X=             -0.0185    Y=             -0.0114    Z=              0.0204  Tot=              0.0298
 Quadrupole moment (field-independent basis, Debye-Ang):
   XX=            -84.9581   YY=            -84.5331   ZZ=            -85.1597
   XY=              1.8893   XZ=             -0.7023   YZ=              0.2340

 Normal termination of Gaussian 16 at Wed May  5 18:05:18 2021.
