 Gaussian 16, Revision A.03,
 Gaussian 16:  EM64L-G16RevA.03 25-Dec-2016

 -------------
 #p 6-31g* mp2
 -------------

 ------------------------------------------------------
 Input file generated by CHIRIPA (05-May-2021 14:51:08)
 ------------------------------------------------------
 Symbolic Z-matrix:
 Charge =  0 Multiplicity = 1

                         Standard orientation:
 ---------------------------------------------------------------------
 Center     Atomic      Atomic             Coordinates (Angstroms)
 Number     Number       Type             X           Y           Z
 ---------------------------------------------------------------------
      1          6           0       -3.762711   -0.052758   -0.447615
      2          6           0       -5.215971   -0.458740   -0.200228
      3          6           0       -5.607668   -1.736095   -0.943687
      4          1           0       -3.606018    0.086284   -1.526068
      5          1           0       -3.102070   -0.874848   -0.139207
      6          1           0       -5.873605    0.364411   -0.507725
      7          1           0       -5.369272   -0.596645    0.877778
      8          1           0       -4.975761   -2.573399   -0.630291
      9          1           0       -5.482960   -1.606881   -2.023665
     10          1           0       -6.650476   -2.008021   -0.752719
     11          6           0       -3.356152    1.222383    0.288899
     12          6           0       -1.902893    1.628365    0.041511
     13          6           0       -1.511196    2.905720    0.784970
     14          1           0       -4.016794    2.044473   -0.019510
     15          1           0       -3.512846    1.083341    1.367351
     16          1           0       -1.749592    1.766271   -1.036495
     17          1           0       -1.245258    0.805214    0.349008
     18          1           0       -1.635903    2.776507    1.864949
     19          1           0       -2.143103    3.743024    0.471574
     20          1           0       -0.468388    3.177646    0.594002
     21          6           0        2.813586   -0.731550    0.004436
     22          6           0        2.257245   -1.626024    1.112762
     23          6           0        0.763921   -1.910588    0.949063
     24          1           0        2.257457    0.215831   -0.007247
     25          1           0        2.635148   -1.210753   -0.968148
     26          1           0        2.437913   -1.145925    2.083061
     27          1           0        2.814891   -2.571310    1.121933
     28          1           0        0.569516   -2.411596   -0.004771
     29          1           0        0.190398   -0.978113    0.961819
     30          1           0        0.387017   -2.551709    1.752037
     31          6           0        4.305278   -0.438076    0.154281
     32          6           0        4.861618    0.456399   -0.954045
     33          6           0        6.354943    0.740963   -0.790346
     34          1           0        4.483715    0.041128    1.126865
     35          1           0        4.861407   -1.385456    0.165964
     36          1           0        4.303973    1.401684   -0.963216
     37          1           0        4.680950   -0.023700   -1.924344
     38          1           0        6.928466   -0.191511   -0.803102
     39          1           0        6.549347    1.241971    0.163487
     40          1           0        6.731847    1.382085   -1.593321
 ---------------------------------------------------------------------

 SCF Done:  E(RHF) =  -470.733376813     A.U. after   11 cycles
 E2 =    -0.1582692256D+01 EUMP2 =    -0.47231606906847D+03

 The electronic state is 1-A.
 Alpha  occ. eigenvalues --  -11.21627 -11.21606 -11.21595 -11.21574 -11.21413
 Alpha  occ. eigenvalues --  -11.21382 -11.21354 -11.21318 -11.21104 -11.21095
 Alpha  occ. eigenvalues --  -11.21074 -11.21044  -1.08444  -1.08411  -1.03554
 Alpha  occ. eigenvalues --   -1.03514  -0.95999  -0.95967  -0.87023  -0.86978
 Alpha  occ. eigenvalues --   -0.79651  -0.79547  -0.78277  -0.78198  -0.65118
 Alpha  occ. eigenvalues --   -0.65007  -0.61048  -0.60833  -0.59382  -0.59321
 Alpha  occ. eigenvalues --   -0.57619  -0.57568  -0.55318  -0.55230  -0.52694
 Alpha  occ. eigenvalues --   -0.52670  -0.52450  -0.52374  -0.50034  -0.49844
 Alpha  occ. eigenvalues --   -0.48050  -0.47815  -0.46795  -0.46475  -0.45897
 Alpha  occ. eigenvalues --   -0.45742  -0.45731  -0.45480  -0.43800  -0.43771
 Alpha virt. eigenvalues --    0.21130   0.23044   0.23709   0.24715   0.25603
 Alpha virt. eigenvalues --    0.26680   0.27096   0.27391   0.28277   0.29090
 Alpha virt. eigenvalues --    0.30402   0.31590   0.31768   0.31784   0.31938

 Mulliken charges:
               1
     1  C   -0.299209
     2  C   -0.299633
     3  C   -0.475735
     4  H    0.149533
     5  H    0.151077
     6  H    0.151768
     7  H    0.151917
     8  H    0.155440
     9  H    0.155079
    10  H    0.160106
    11  C   -0.297487
    12  C   -0.309373
    13  C   -0.475166
    14  H    0.149478
    15  H    0.149474
    16  H    0.152331
    17  H    0.160171
    18  H    0.155034
    19  H    0.155515
    20  H    0.159483
    21  C   -0.298547
    22  C   -0.299160
    23  C   -0.484123
    24  H    0.149906
    25  H    0.149712
    26  H    0.151908
    27  H    0.152117
    28  H    0.155739
    29  H    0.162352
    30  H    0.160196
    31  C   -0.298368
    32  C   -0.299646
    33  C   -0.475721
    34  H    0.149548
    35  H    0.149690
    36  H    0.151951
    37  H    0.151981
    38  H    0.155179
    39  H    0.155202
    40  H    0.160280
 Sum of Mulliken charges =  -0.00000

 Dipole moment (field-independent basis, Debye):
    X=              0.0069    Y=             -0.0102    Z=             -0.0050  Tot=              0.0133
 Quadrupole moment (field-independent basis, Debye-Ang):
   XX=            -86.0251   YY=            -84.7226   ZZ=            -84.0456
   XY=             -1.0599   XZ=             -0.0786   YZ=             -0.4110

 Normal termination of Gaussian 16 at Thu May  6 08:26:28 2021.
