 Gaussian 16, Revision A.03,
 Gaussian 16:  EM64L-G16RevA.03 25-Dec-2016

 -------------
 #p 6-31g* mp2
 -------------

 ------------------------------------------------------
 Input file generated by CHIRIPA (05-May-2021 14:55:25)
 ------------------------------------------------------
 Symbolic Z-matrix:
 Charge =  0 Multiplicity = 1

                         Standard orientation:
 ---------------------------------------------------------------------
 Center     Atomic      Atomic             Coordinates (Angstroms)
 Number     Number       Type             X           Y           Z
 ---------------------------------------------------------------------
      1          6           0        4.964164    0.877466    0.665510
      2          6           0        3.781274    1.623348    0.634645
      3          6           0        2.586043    1.041414    0.201837
      4          6           0        2.610014   -0.294775   -0.194792
      5          6           0        3.772350   -1.064119   -0.175416
      6          6           0        4.955941   -0.461526    0.261094
      7          1           0        5.888128    1.337551    1.003164
      8          1           0        3.784686    2.663423    0.948137
      9          1           0        1.655988    1.595730    0.167905
     10          1           0        3.737603   -2.098854   -0.494061
     11          1           0        5.873090   -1.043212    0.284012
     12          7           0        1.350838   -0.921777   -0.654946
     13          8           0        1.398421   -2.100704   -0.999191
     14          8           0        0.340154   -0.222423   -0.662656
     15          6           0       -3.825385    0.904130   -0.165703
     16          6           0       -2.890713    2.071359    0.153592
     17          6           0       -3.341965    3.383039   -0.489572
     18          1           0       -3.885369    0.778233   -1.255427
     19          1           0       -4.839768    1.151523    0.176670
     20          1           0       -1.878111    1.821271   -0.188037
     21          1           0       -2.832797    2.194371    1.242688
     22          1           0       -4.342118    3.659276   -0.140305
     23          1           0       -3.382009    3.284057   -1.579159
     24          1           0       -2.659602    4.204047   -0.248350
     25          6           0       -3.387523   -0.414051    0.470222
     26          6           0       -4.322194   -1.581281    0.150926
     27          6           0       -3.870942   -2.892961    0.794091
     28          1           0       -2.373140   -0.661444    0.127848
     29          1           0       -3.327538   -0.288155    1.559945
     30          1           0       -4.380111   -1.704292   -0.938170
     31          1           0       -5.334795   -1.331192    0.492555
     32          1           0       -3.830898   -2.793978    1.883679
     33          1           0       -2.870788   -3.169198    0.444824
     34          1           0       -4.553305   -3.713968    0.552868
 ---------------------------------------------------------------------

 SCF Done:  E(RHF) =  -669.536620880     A.U. after   15 cycles
 E2 =    -0.2091645616D+01 EUMP2 =    -0.67162826649640D+03

 The electronic state is 1-A.
 Alpha  occ. eigenvalues --  -20.61093 -20.61081 -15.86110 -11.31365 -11.27919
 Alpha  occ. eigenvalues --  -11.27916 -11.27648 -11.26914 -11.26903 -11.20594
 Alpha  occ. eigenvalues --  -11.20417 -11.20382 -11.20261 -11.19950 -11.19885
 Alpha  occ. eigenvalues --   -1.60141  -1.39700  -1.19527  -1.08944  -1.07248
 Alpha  occ. eigenvalues --   -1.04913  -1.02482  -0.95797  -0.94933  -0.86317
 Alpha  occ. eigenvalues --   -0.85957  -0.82636  -0.78550  -0.77700  -0.77026
 Alpha  occ. eigenvalues --   -0.72338  -0.71445  -0.70636  -0.65188  -0.64916
 Alpha  occ. eigenvalues --   -0.63847  -0.62261  -0.59873  -0.58330  -0.56552
 Alpha  occ. eigenvalues --   -0.55422  -0.54211  -0.53248  -0.53004  -0.51690
 Alpha  occ. eigenvalues --   -0.51374  -0.49172  -0.49088  -0.48798  -0.46873
 Alpha  occ. eigenvalues --   -0.45554  -0.45188  -0.44619  -0.44292  -0.42689
 Alpha  occ. eigenvalues --   -0.37502  -0.36511
 Alpha virt. eigenvalues --    0.04820   0.11145   0.16320   0.21078   0.23937
 Alpha virt. eigenvalues --    0.25139   0.26633   0.27439   0.28018   0.28920
 Alpha virt. eigenvalues --    0.29235   0.30872   0.31802   0.32494   0.32625

 Mulliken charges:
               1
     1  C   -0.170338
     2  C   -0.218708
     3  C   -0.170576
     4  C    0.157356
     5  C   -0.170430
     6  C   -0.218641
     7  H    0.226298
     8  H    0.224282
     9  H    0.276547
    10  H    0.275962
    11  H    0.224064
    12  N    0.494226
    13  O   -0.458357
    14  O   -0.465762
    15  C   -0.295277
    16  C   -0.306059
    17  C   -0.474609
    18  H    0.149925
    19  H    0.143408
    20  H    0.166662
    21  H    0.145807
    22  H    0.152730
    23  H    0.155183
    24  H    0.153370
    25  C   -0.311973
    26  C   -0.297843
    27  C   -0.476895
    28  H    0.180758
    29  H    0.141519
    30  H    0.151971
    31  H    0.145748
    32  H    0.150627
    33  H    0.163437
    34  H    0.155588
 Sum of Mulliken charges =  -0.00000

 Dipole moment (field-independent basis, Debye):
    X=              4.8641    Y=              2.0774    Z=              1.5079  Tot=              5.4999
 Quadrupole moment (field-independent basis, Debye-Ang):
   XX=            -71.9643   YY=            -94.2060   ZZ=            -95.7879
   XY=              2.4735   XZ=              2.9829   YZ=              0.6169

 Normal termination of Gaussian 16 at Thu May  6 08:00:26 2021.
