 Gaussian 16, Revision A.03,
 Gaussian 16:  EM64L-G16RevA.03 25-Dec-2016

 -------------
 #p 6-31g* mp2
 -------------

 ------------------------------------------------------
 Input file generated by CHIRIPA (05-May-2021 14:51:13)
 ------------------------------------------------------
 Symbolic Z-matrix:
 Charge =  0 Multiplicity = 1

                         Standard orientation:
 ---------------------------------------------------------------------
 Center     Atomic      Atomic             Coordinates (Angstroms)
 Number     Number       Type             X           Y           Z
 ---------------------------------------------------------------------
      1          6           0       -2.470723   -0.576679    0.217265
      2          6           0       -1.742367   -1.748952   -0.440961
      3          6           0       -0.294257   -1.884994    0.030487
      4          1           0       -1.925093    0.352519    0.003202
      5          1           0       -2.449994   -0.707105    1.308115
      6          1           0       -1.765666   -1.617064   -1.530309
      7          1           0       -2.289900   -2.675443   -0.225467
      8          1           0       -0.254726   -2.041207    1.113370
      9          1           0        0.272487   -0.976814   -0.198885
     10          1           0        0.207600   -2.729162   -0.452606
     11          6           0       -3.919459   -0.427669   -0.243916
     12          6           0       -4.647815    0.744604    0.414309
     13          6           0       -6.095925    0.880646   -0.057139
     14          1           0       -3.940188   -0.297243   -1.334766
     15          1           0       -4.465089   -1.356867   -0.029853
     16          1           0       -4.100282    1.671095    0.198816
     17          1           0       -4.624516    0.612716    1.503657
     18          1           0       -6.662669   -0.027534    0.172234
     19          1           0       -6.135456    1.036859   -1.140022
     20          1           0       -6.597783    1.724814    0.425954
     21          6           0        3.273270   -0.150566    0.402235
     22          6           0        3.745020   -1.319376   -0.463398
     23          6           0        3.896686   -2.618267    0.328861
     24          1           0        3.986963    0.000511    1.223674
     25          1           0        2.312516   -0.411967    0.867010
     26          1           0        4.703921   -1.055308   -0.927500
     27          1           0        3.030221   -1.467566   -1.282982
     28          1           0        2.941926   -2.908581    0.779141
     29          1           0        4.625137   -2.493980    1.136644
     30          1           0        4.234791   -3.440627   -0.309315
     31          6           0        3.116912    1.154915   -0.375583
     32          6           0        2.645163    2.323724    0.490050
     33          6           0        2.493495    3.622615   -0.302210
     34          1           0        4.077666    1.416315   -0.840359
     35          1           0        2.403219    1.003837   -1.197022
     36          1           0        3.359961    2.471914    1.309634
     37          1           0        1.686260    2.059655    0.954151
     38          1           0        1.765046    3.498328   -1.109993
     39          1           0        3.448256    3.912928   -0.752491
     40          1           0        2.155392    4.444975    0.335967
 ---------------------------------------------------------------------

 SCF Done:  E(RHF) =  -470.732945265     A.U. after   11 cycles
 E2 =    -0.1583533029D+01 EUMP2 =    -0.47231647829453D+03

 The electronic state is 1-A.
 Alpha  occ. eigenvalues --  -11.21683 -11.21640 -11.21589 -11.21501 -11.21470
 Alpha  occ. eigenvalues --  -11.21406 -11.21357 -11.21232 -11.21174 -11.21100
 Alpha  occ. eigenvalues --  -11.21071 -11.20969  -1.08499  -1.08370  -1.03606
 Alpha  occ. eigenvalues --   -1.03466  -0.96056  -0.95924  -0.87085  -0.86934
 Alpha  occ. eigenvalues --   -0.79682  -0.79530  -0.78319  -0.78168  -0.65200
 Alpha  occ. eigenvalues --   -0.64968  -0.61027  -0.60853  -0.59412  -0.59291
 Alpha  occ. eigenvalues --   -0.57685  -0.57525  -0.55445  -0.55118  -0.52737
 Alpha  occ. eigenvalues --   -0.52622  -0.52523  -0.52308  -0.50088  -0.49765
 Alpha  occ. eigenvalues --   -0.48019  -0.47841  -0.46700  -0.46567  -0.45957
 Alpha  occ. eigenvalues --   -0.45779  -0.45693  -0.45463  -0.43843  -0.43725
 Alpha virt. eigenvalues --    0.20453   0.22943   0.23602   0.24726   0.26011
 Alpha virt. eigenvalues --    0.26522   0.27257   0.27284   0.27891   0.29477
 Alpha virt. eigenvalues --    0.30643   0.31193   0.31781   0.31992   0.32339

 Mulliken charges:
               1
     1  C   -0.298475
     2  C   -0.300605
     3  C   -0.481069
     4  H    0.149228
     5  H    0.149722
     6  H    0.152107
     7  H    0.152373
     8  H    0.155184
     9  H    0.160236
    10  H    0.162173
    11  C   -0.298313
    12  C   -0.299721
    13  C   -0.475750
    14  H    0.149639
    15  H    0.149869
    16  H    0.152034
    17  H    0.152026
    18  H    0.155248
    19  H    0.155250
    20  H    0.160424
    21  C   -0.304031
    22  C   -0.299160
    23  C   -0.478352
    24  H    0.149461
    25  H    0.156275
    26  H    0.151273
    27  H    0.152519
    28  H    0.158617
    29  H    0.154617
    30  H    0.159405
    31  C   -0.299430
    32  C   -0.299755
    33  C   -0.475569
    34  H    0.149709
    35  H    0.148779
    36  H    0.152226
    37  H    0.151680
    38  H    0.154621
    39  H    0.155295
    40  H    0.160239
 Sum of Mulliken charges =  -0.00000

 Dipole moment (field-independent basis, Debye):
    X=             -0.0495    Y=             -0.0192    Z=              0.0128  Tot=              0.0546
 Quadrupole moment (field-independent basis, Debye-Ang):
   XX=            -85.0270   YY=            -85.4469   ZZ=            -84.4209
   XY=              0.8650   XZ=             -0.3286   YZ=              0.0699

 Normal termination of Gaussian 16 at Thu May  6 03:58:09 2021.
