 Gaussian 16, Revision A.03,
 Gaussian 16:  EM64L-G16RevA.03 25-Dec-2016

 -------------
 #p 6-31g* mp2
 -------------

 ------------------------------------------------------
 Input file generated by CHIRIPA (05-May-2021 14:55:21)
 ------------------------------------------------------
 Symbolic Z-matrix:
 Charge =  0 Multiplicity = 1

                         Standard orientation:
 ---------------------------------------------------------------------
 Center     Atomic      Atomic             Coordinates (Angstroms)
 Number     Number       Type             X           Y           Z
 ---------------------------------------------------------------------
      1          6           0       -3.205692    1.695336    0.846499
      2          6           0       -3.799244    0.969554   -0.191508
      3          6           0       -3.284924   -0.273056   -0.573533
      4          6           0       -2.170946   -0.762066    0.107064
      5          6           0       -1.557326   -0.062785    1.145219
      6          6           0       -2.088597    1.177763    1.510379
      7          1           0       -3.611812    2.659824    1.136714
      8          1           0       -4.666886    1.369043   -0.708858
      9          1           0       -3.724799   -0.855961   -1.373626
     10          1           0       -0.693380   -0.486997    1.642270
     11          1           0       -1.625579    1.739210    2.316875
     12          7           0       -1.617486   -2.076470   -0.288442
     13          8           0       -0.635256   -2.485353    0.326927
     14          8           0       -2.176393   -2.672929   -1.206318
     15          6           0        2.695273    1.434307   -0.257879
     16          6           0        1.299262    1.653973   -0.841732
     17          6           0        0.912892    3.131756   -0.910081
     18          1           0        2.738061    1.872883    0.748483
     19          1           0        3.429864    1.978499   -0.867493
     20          1           0        0.567685    1.108401   -0.232009
     21          1           0        1.259734    1.214656   -1.846747
     22          1           0        1.620312    3.686392   -1.535010
     23          1           0        0.924330    3.579533    0.088901
     24          1           0       -0.088669    3.265825   -1.330511
     25          6           0        3.095863   -0.037990   -0.183075
     26          6           0        4.491875   -0.257655    0.400777
     27          6           0        4.878244   -1.735437    0.469127
     28          1           0        2.361273   -0.582181    0.426538
     29          1           0        3.053076   -0.476564   -1.189438
     30          1           0        4.531403    0.181663    1.405792
     31          1           0        5.223452    0.287917   -0.208946
     32          1           0        4.866807   -2.183216   -0.529855
     33          1           0        4.170825   -2.290074    1.094057
     34          1           0        5.879805   -1.869508    0.889556
 ---------------------------------------------------------------------

 SCF Done:  E(RHF) =  -669.535093983     A.U. after   15 cycles
 E2 =    -0.2093378015D+01 EUMP2 =    -0.67162847199860D+03

 The electronic state is 1-A.
 Alpha  occ. eigenvalues --  -20.60845 -20.60838 -15.85891 -11.31265 -11.27846
 Alpha  occ. eigenvalues --  -11.27837 -11.27585 -11.26864 -11.26847 -11.21506
 Alpha  occ. eigenvalues --  -11.21313 -11.21289 -11.21228 -11.21040 -11.20638
 Alpha  occ. eigenvalues --   -1.59910  -1.39465  -1.19455  -1.08835  -1.08255
 Alpha  occ. eigenvalues --   -1.04869  -1.03365  -0.95818  -0.95673  -0.86836
 Alpha  occ. eigenvalues --   -0.86253  -0.82505  -0.79446  -0.78041  -0.77543
 Alpha  occ. eigenvalues --   -0.72110  -0.71229  -0.70560  -0.65105  -0.64946
 Alpha  occ. eigenvalues --   -0.64823  -0.62211  -0.60794  -0.59210  -0.57422
 Alpha  occ. eigenvalues --   -0.55350  -0.55129  -0.53203  -0.52948  -0.52513
 Alpha  occ. eigenvalues --   -0.52227  -0.49760  -0.48869  -0.48865  -0.47748
 Alpha  occ. eigenvalues --   -0.46491  -0.45595  -0.45521  -0.44820  -0.43613
 Alpha  occ. eigenvalues --   -0.37409  -0.36375
 Alpha virt. eigenvalues --    0.04956   0.11119   0.16431   0.20803   0.23027
 Alpha virt. eigenvalues --    0.24402   0.25774   0.27134   0.27643   0.28047
 Alpha virt. eigenvalues --    0.29010   0.30987   0.31600   0.31877   0.32251

 Mulliken charges:
               1
     1  C   -0.170540
     2  C   -0.218476
     3  C   -0.170901
     4  C    0.162702
     5  C   -0.176800
     6  C   -0.215247
     7  H    0.226308
     8  H    0.223878
     9  H    0.275948
    10  H    0.276574
    11  H    0.224184
    12  N    0.488608
    13  O   -0.461067
    14  O   -0.459854
    15  C   -0.297852
    16  C   -0.305871
    17  C   -0.474002
    18  H    0.144174
    19  H    0.149256
    20  H    0.155331
    21  H    0.154260
    22  H    0.156095
    23  H    0.148930
    24  H    0.158424
    25  C   -0.300743
    26  C   -0.299539
    27  C   -0.475890
    28  H    0.155027
    29  H    0.153343
    30  H    0.148524
    31  H    0.150450
    32  H    0.157231
    33  H    0.159553
    34  H    0.157981
 Sum of Mulliken charges =  -0.00000

 Dipole moment (field-independent basis, Debye):
    X=             -2.0598    Y=              4.4885    Z=              1.3581  Tot=              5.1219
 Quadrupole moment (field-independent basis, Debye-Ang):
   XX=            -84.2276   YY=           -103.7913   ZZ=            -91.4882
   XY=             -8.3161   XZ=             -0.9772   YZ=             -0.0887

 Normal termination of Gaussian 16 at Thu May  6 04:36:41 2021.
