 Gaussian 16, Revision A.03,
 Gaussian 16:  EM64L-G16RevA.03 25-Dec-2016

 -------------
 #p 6-31g* mp2
 -------------

 ------------------------------------------------------
 Input file generated by CHIRIPA (05-May-2021 14:57:24)
 ------------------------------------------------------
 Symbolic Z-matrix:
 Charge =  0 Multiplicity = 1

                         Standard orientation:
 ---------------------------------------------------------------------
 Center     Atomic      Atomic             Coordinates (Angstroms)
 Number     Number       Type             X           Y           Z
 ---------------------------------------------------------------------
      1          6           0        3.885931    0.391205   -1.426507
      2          6           0        3.617848   -0.967034   -1.226912
      3          6           0        2.741418   -1.376942   -0.217757
      4          6           0        2.147887   -0.397382    0.576896
      5          6           0        2.394797    0.963504    0.402790
      6          6           0        3.274628    1.350449   -0.612454
      7          1           0        4.568083    0.700712   -2.212808
      8          1           0        4.091158   -1.714200   -1.857599
      9          1           0        2.516064   -2.421705   -0.041393
     10          1           0        1.907848    1.685080    1.047481
     11          1           0        3.480958    2.405982   -0.765172
     12          7           0        1.218250   -0.819178    1.648466
     13          8           0        0.708122    0.063433    2.335055
     14          8           0        1.017331   -2.024406    1.781484
     15          6           0       -1.262279    2.582151    0.052440
     16          6           0       -2.365226    2.156783    0.800163
     17          6           0       -2.948896    0.909699    0.557967
     18          6           0       -2.401532    0.109929   -0.444056
     19          6           0       -1.303274    0.505617   -1.205996
     20          6           0       -0.735751    1.756666   -0.946492
     21          1           0       -0.815141    3.552456    0.247306
     22          1           0       -2.776240    2.795768    1.576571
     23          1           0       -3.803323    0.555584    1.121860
     24          1           0       -0.915748   -0.153459   -1.973367
     25          1           0        0.120754    2.084412   -1.528752
     26          7           0       -3.010890   -1.212401   -0.709619
     27          8           0       -2.509925   -1.898338   -1.597966
     28          8           0       -3.977932   -1.537870   -0.024392
 ---------------------------------------------------------------------

 SCF Done:  E(RHF) =  -868.336563017     A.U. after   16 cycles
 E2 =    -0.2603766666D+01 EUMP2 =    -0.87094032968351D+03

 The electronic state is 1-A.
 Alpha  occ. eigenvalues --  -20.60975 -20.60964 -20.60316 -20.60291 -15.86027
 Alpha  occ. eigenvalues --  -15.85362 -11.31544 -11.30785 -11.28229 -11.28128
 Alpha  occ. eigenvalues --  -11.27969 -11.27384 -11.27274 -11.27273 -11.27162
 Alpha  occ. eigenvalues --  -11.27147 -11.26467 -11.26359  -1.60040  -1.59372
 Alpha  occ. eigenvalues --   -1.39588  -1.38928  -1.19782  -1.18950  -1.09130
 Alpha  occ. eigenvalues --   -1.08362  -1.05222  -1.04366  -0.95936  -0.95188
 Alpha  occ. eigenvalues --   -0.86590  -0.85787  -0.82770  -0.82022  -0.77785
 Alpha  occ. eigenvalues --   -0.77046  -0.72249  -0.71592  -0.71381  -0.70876
 Alpha  occ. eigenvalues --   -0.70670  -0.70121  -0.65425  -0.65208  -0.64629
 Alpha  occ. eigenvalues --   -0.64417  -0.62549  -0.61734  -0.55695  -0.54948
 Alpha  occ. eigenvalues --   -0.53647  -0.53304  -0.52592  -0.52448  -0.49025
 Alpha  occ. eigenvalues --   -0.48986  -0.48352  -0.48333  -0.44942  -0.44323
 Alpha  occ. eigenvalues --   -0.37893  -0.37235  -0.36675  -0.35631
 Alpha virt. eigenvalues --    0.04707   0.05496   0.10496   0.12016   0.16143
 Alpha virt. eigenvalues --    0.16908   0.20684   0.21896   0.26560   0.27610
 Alpha virt. eigenvalues --    0.27755   0.28948   0.30177   0.31318   0.32292

 Mulliken charges:
               1
     1  C   -0.171424
     2  C   -0.219806
     3  C   -0.170084
     4  C    0.159237
     5  C   -0.168980
     6  C   -0.226354
     7  H    0.226651
     8  H    0.226415
     9  H    0.280597
    10  H    0.272930
    11  H    0.220412
    12  N    0.488312
    13  O   -0.461563
    14  O   -0.455777
    15  C   -0.171336
    16  C   -0.210069
    17  C   -0.164621
    18  C    0.162217
    19  C   -0.177493
    20  C   -0.218829
    21  H    0.219544
    22  H    0.223800
    23  H    0.276902
    24  H    0.272927
    25  H    0.218341
    26  N    0.489450
    27  O   -0.463335
    28  O   -0.458064
 Sum of Mulliken charges =  -0.00000

 Dipole moment (field-independent basis, Debye):
    X=              5.3021    Y=              5.9025    Z=             -2.6270  Tot=              8.3578
 Quadrupole moment (field-independent basis, Debye-Ang):
   XX=            -99.3643   YY=           -101.1164   ZZ=           -108.2725
   XY=            -10.9878   XZ=            -12.9770   YZ=              2.6853

 Normal termination of Gaussian 16 at Wed May  5 17:56:43 2021.
