 Gaussian 16, Revision A.03,
 Gaussian 16:  EM64L-G16RevA.03 25-Dec-2016

 -------------
 #p 6-31g* mp2
 -------------

 ------------------------------------------------------
 Input file generated by CHIRIPA (05-May-2021 14:53:16)
 ------------------------------------------------------
 Symbolic Z-matrix:
 Charge =  0 Multiplicity = 1

                         Standard orientation:
 ---------------------------------------------------------------------
 Center     Atomic      Atomic             Coordinates (Angstroms)
 Number     Number       Type             X           Y           Z
 ---------------------------------------------------------------------
      1          6           0       -4.284210   -0.244607   -0.046921
      2          6           0       -4.014985   -1.739289    0.130362
      3          6           0       -5.298819   -2.561382    0.247530
      4          1           0       -4.877203    0.118100    0.803813
      5          1           0       -4.900314   -0.094015   -0.944213
      6          1           0       -3.398415   -1.886899    1.026280
      7          1           0       -3.422401   -2.098439   -0.720797
      8          1           0       -5.914878   -2.443683   -0.649810
      9          1           0       -5.890756   -2.230941    1.107193
     10          1           0       -5.083110   -3.626952    0.373590
     11          6           0       -3.010523    0.590487   -0.165523
     12          6           0       -3.279748    2.085168   -0.342806
     13          6           0       -1.995915    2.907261   -0.459974
     14          1           0       -2.394419    0.439894    0.731769
     15          1           0       -2.417530    0.227779   -1.016257
     16          1           0       -3.872332    2.444319    0.508353
     17          1           0       -3.896318    2.232779   -1.238724
     18          1           0       -1.403978    2.576821   -1.319637
     19          1           0       -1.379855    2.789563    0.437366
     20          1           0       -2.211623    3.972831   -0.586034
     21          6           0        5.251753   -0.726286   -0.412634
     22          6           0        4.894669   -0.251374    0.853648
     23          6           0        3.566686    0.079269    1.139450
     24          6           0        2.617264   -0.077956    0.130901
     25          6           0        2.941767   -0.548686   -1.140477
     26          6           0        4.275883   -0.873167   -1.403908
     27          1           0        6.285744   -0.980745   -0.625962
     28          1           0        5.650429   -0.136298    1.625419
     29          1           0        3.262653    0.449080    2.111160
     30          1           0        2.166107   -0.652791   -1.889432
     31          1           0        4.550307   -1.241764   -2.388221
     32          7           0        1.208142    0.268819    0.421624
     33          8           0        0.390513    0.121348   -0.484120
     34          8           0        0.947983    0.681527    1.549732
 ---------------------------------------------------------------------

 SCF Done:  E(RHF) =  -669.536064932     A.U. after   15 cycles
 E2 =    -0.2092579627D+01 EUMP2 =    -0.67162864455828D+03

 The electronic state is 1-A.
 Alpha  occ. eigenvalues --  -20.61066 -20.61052 -15.86067 -11.31360 -11.27918
 Alpha  occ. eigenvalues --  -11.27913 -11.27647 -11.26915 -11.26905 -11.20415
 Alpha  occ. eigenvalues --  -11.20159 -11.19963 -11.19941 -11.19294 -11.19274
 Alpha  occ. eigenvalues --   -1.60099  -1.39660  -1.19522  -1.08933  -1.06863
 Alpha  occ. eigenvalues --   -1.04913  -1.02079  -0.95780  -0.94513  -0.86316
 Alpha  occ. eigenvalues --   -0.85531  -0.82622  -0.78193  -0.77676  -0.76565
 Alpha  occ. eigenvalues --   -0.72273  -0.71403  -0.70632  -0.65179  -0.64915
 Alpha  occ. eigenvalues --   -0.63513  -0.62261  -0.59497  -0.57927  -0.56108
 Alpha  occ. eigenvalues --   -0.55418  -0.53802  -0.53246  -0.53005  -0.51306
 Alpha  occ. eigenvalues --   -0.50916  -0.49147  -0.49044  -0.48439  -0.46453
 Alpha  occ. eigenvalues --   -0.45277  -0.45026  -0.44009  -0.43958  -0.42286
 Alpha  occ. eigenvalues --   -0.37497  -0.36512
 Alpha virt. eigenvalues --    0.04836   0.11144   0.16336   0.21271   0.24289
 Alpha virt. eigenvalues --    0.25785   0.27201   0.28034   0.28222   0.29108
 Alpha virt. eigenvalues --    0.29406   0.30887   0.32321   0.32785   0.32926

 Mulliken charges:
               1
     1  C   -0.298408
     2  C   -0.297454
     3  C   -0.474603
     4  H    0.144528
     5  H    0.142958
     6  H    0.152878
     7  H    0.150539
     8  H    0.152460
     9  H    0.153293
    10  H    0.155921
    11  C   -0.296110
    12  C   -0.299636
    13  C   -0.474579
    14  H    0.163138
    15  H    0.158723
    16  H    0.145374
    17  H    0.143215
    18  H    0.156457
    19  H    0.166227
    20  H    0.147524
    21  C   -0.170441
    22  C   -0.218588
    23  C   -0.170357
    24  C    0.158403
    25  C   -0.170643
    26  C   -0.218533
    27  H    0.226242
    28  H    0.224045
    29  H    0.275917
    30  H    0.275524
    31  H    0.224029
    32  N    0.491376
    33  O   -0.458784
    34  O   -0.460635
 Sum of Mulliken charges =  -0.00000

 Dipole moment (field-independent basis, Debye):
    X=              5.4845    Y=             -1.3025    Z=             -0.9703  Tot=              5.7199
 Quadrupole moment (field-independent basis, Debye-Ang):
   XX=            -71.6469   YY=            -96.7017   ZZ=            -89.7680
   XY=             -3.8118   XZ=             -0.8052   YZ=              1.7862

 Normal termination of Gaussian 16 at Wed May  5 18:45:39 2021.
