 Gaussian 16, Revision A.03,
 Gaussian 16:  EM64L-G16RevA.03 25-Dec-2016

 -------------
 #p 6-31g* mp2
 -------------

 ------------------------------------------------------
 Input file generated by CHIRIPA (05-May-2021 14:55:25)
 ------------------------------------------------------
 Symbolic Z-matrix:
 Charge =  0 Multiplicity = 1

                         Standard orientation:
 ---------------------------------------------------------------------
 Center     Atomic      Atomic             Coordinates (Angstroms)
 Number     Number       Type             X           Y           Z
 ---------------------------------------------------------------------
      1          6           0       -5.689381   -0.986524    0.232023
      2          6           0       -5.085176   -0.956995   -1.029161
      3          6           0       -3.779887   -0.479519   -1.180107
      4          6           0       -3.104906   -0.037347   -0.043368
      5          6           0       -3.679665   -0.054155    1.226538
      6          6           0       -4.985937   -0.535805    1.353869
      7          1           0       -6.703743   -1.359060    0.340109
      8          1           0       -5.629087   -1.306392   -1.902161
      9          1           0       -3.288108   -0.445530   -2.144688
     10          1           0       -3.112248    0.300857    2.078255
     11          1           0       -5.452653   -0.557571    2.334556
     12          7           0       -1.722534    0.470345   -0.190668
     13          8           0       -1.149168    0.854229    0.826446
     14          8           0       -1.238573    0.474775   -1.320446
     15          6           0        3.774998    0.585251   -0.372106
     16          6           0        2.959596    1.537744    0.503031
     17          6           0        1.981992    2.391951   -0.304691
     18          1           0        4.327830    1.168403   -1.121276
     19          1           0        3.088941   -0.068193   -0.928640
     20          1           0        3.647027    2.188271    1.058794
     21          1           0        2.408791    0.952274    1.250329
     22          1           0        1.273317    1.757677   -0.846980
     23          1           0        2.518589    3.000696   -1.039603
     24          1           0        1.409473    3.065506    0.340604
     25          6           0        4.756811   -0.275439    0.420979
     26          6           0        5.572212   -1.227931   -0.454157
     27          6           0        6.549817   -2.082138    0.353564
     28          1           0        5.442867    0.378006    0.977514
     29          1           0        4.203979   -0.858589    1.170151
     30          1           0        6.123017   -0.642460   -1.201455
     31          1           0        4.884783   -1.878458   -1.009919
     32          1           0        6.013221   -2.690883    1.088476
     33          1           0        7.258491   -1.447864    0.895853
     34          1           0        7.122337   -2.755692   -0.291730
 ---------------------------------------------------------------------

 SCF Done:  E(RHF) =  -669.536768239     A.U. after   15 cycles
 E2 =    -0.2091838837D+01 EUMP2 =    -0.67162860707575D+03

 The electronic state is 1-A.
 Alpha  occ. eigenvalues --  -20.61127 -20.61114 -15.86115 -11.31391 -11.27941
 Alpha  occ. eigenvalues --  -11.27938 -11.27669 -11.26935 -11.26925 -11.20764
 Alpha  occ. eigenvalues --  -11.20404 -11.20330 -11.20001 -11.19863 -11.18799
 Alpha  occ. eigenvalues --   -1.60152  -1.39710  -1.19548  -1.08963  -1.07194
 Alpha  occ. eigenvalues --   -1.04935  -1.02178  -0.95814  -0.94614  -0.86338
 Alpha  occ. eigenvalues --   -0.85640  -0.82646  -0.78329  -0.77709  -0.76923
 Alpha  occ. eigenvalues --   -0.72320  -0.71454  -0.70656  -0.65203  -0.64940
 Alpha  occ. eigenvalues --   -0.63832  -0.62282  -0.59572  -0.58111  -0.56211
 Alpha  occ. eigenvalues --   -0.55452  -0.53918  -0.53270  -0.53025  -0.51321
 Alpha  occ. eigenvalues --   -0.51066  -0.49319  -0.49075  -0.48293  -0.46590
 Alpha  occ. eigenvalues --   -0.45347  -0.45133  -0.44462  -0.44298  -0.42453
 Alpha  occ. eigenvalues --   -0.37524  -0.36533
 Alpha virt. eigenvalues --    0.04823   0.11123   0.16334   0.21263   0.24000
 Alpha virt. eigenvalues --    0.25767   0.27188   0.27841   0.28175   0.28650
 Alpha virt. eigenvalues --    0.29486   0.30850   0.32355   0.32763   0.32847

 Mulliken charges:
               1
     1  C   -0.170381
     2  C   -0.218581
     3  C   -0.170617
     4  C    0.159254
     5  C   -0.170763
     6  C   -0.218604
     7  H    0.226349
     8  H    0.224174
     9  H    0.276048
    10  H    0.276030
    11  H    0.224175
    12  N    0.488677
    13  O   -0.457858
    14  O   -0.459086
    15  C   -0.298321
    16  C   -0.298913
    17  C   -0.480250
    18  H    0.145360
    19  H    0.153049
    20  H    0.142548
    21  H    0.156724
    22  H    0.183005
    23  H    0.140368
    24  H    0.156825
    25  C   -0.297196
    26  C   -0.298655
    27  C   -0.474910
    28  H    0.146624
    29  H    0.148249
    30  H    0.150445
    31  H    0.151156
    32  H    0.153779
    33  H    0.153866
    34  H    0.157430
 Sum of Mulliken charges =  -0.00000

 Dipole moment (field-independent basis, Debye):
    X=             -5.4070    Y=             -1.8683    Z=              0.5060  Tot=              5.7430
 Quadrupole moment (field-independent basis, Debye-Ang):
   XX=            -66.7115   YY=            -95.9598   ZZ=            -90.1864
   XY=              6.7946   XZ=             -1.6858   YZ=              1.3367

 Normal termination of Gaussian 16 at Wed May  5 16:10:10 2021.
