 Gaussian 16, Revision A.03,
 Gaussian 16:  EM64L-G16RevA.03 25-Dec-2016

 -------------
 #p 6-31g* mp2
 -------------

 ------------------------------------------------------
 Input file generated by CHIRIPA (05-May-2021 14:57:25)
 ------------------------------------------------------
 Symbolic Z-matrix:
 Charge =  0 Multiplicity = 1

                         Standard orientation:
 ---------------------------------------------------------------------
 Center     Atomic      Atomic             Coordinates (Angstroms)
 Number     Number       Type             X           Y           Z
 ---------------------------------------------------------------------
      1          6           0       -3.483297   -2.270557   -0.580654
      2          6           0       -2.928584   -2.134158    0.696143
      3          6           0       -2.508196   -0.883243    1.157700
      4          6           0       -2.658027    0.214981    0.312274
      5          6           0       -3.206922    0.111308   -0.964933
      6          6           0       -3.620453   -1.149366   -1.405662
      7          1           0       -3.807201   -3.246088   -0.931112
      8          1           0       -2.820847   -3.003146    1.339024
      9          1           0       -2.075422   -0.749213    2.141651
     10          1           0       -3.301476    0.995926   -1.582936
     11          1           0       -4.050901   -1.252315   -2.397711
     12          7           0       -2.216611    1.544434    0.789878
     13          8           0       -2.359454    2.496464    0.025763
     14          8           0       -1.736143    1.609257    1.919297
     15          6           0        1.637636    2.180478   -0.892704
     16          6           0        0.976706    0.968582   -1.118543
     17          6           0        1.572845   -0.243326   -0.757371
     18          6           0        2.836458   -0.206273   -0.169835
     19          6           0        3.520375    0.984908    0.068153
     20          6           0        2.905126    2.184765   -0.301120
     21          1           0        1.167119    3.117235   -1.176417
     22          1           0       -0.007715    0.962221   -1.577802
     23          1           0        1.083600   -1.195882   -0.920755
     24          1           0        4.500932    0.959302    0.527792
     25          1           0        3.420764    3.124434   -0.124529
     26          7           0        3.477679   -1.482886    0.216810
     27          8           0        4.591568   -1.423271    0.732887
     28          8           0        2.854237   -2.518939   -0.003537
 ---------------------------------------------------------------------

 SCF Done:  E(RHF) =  -868.339465934     A.U. after   16 cycles
 E2 =    -0.2600713661D+01 EUMP2 =    -0.87094017959548D+03

 The electronic state is 1-A.
 Alpha  occ. eigenvalues --  -20.61563 -20.61484 -20.60543 -20.60523 -15.86555
 Alpha  occ. eigenvalues --  -15.85585 -11.31843 -11.30762 -11.28418 -11.28303
 Alpha  occ. eigenvalues --  -11.28030 -11.27381 -11.27367 -11.27327 -11.27285
 Alpha  occ. eigenvalues --  -11.26935 -11.26256 -11.26232  -1.60590  -1.59615
 Alpha  occ. eigenvalues --   -1.40148  -1.39175  -1.19989  -1.18916  -1.09383
 Alpha  occ. eigenvalues --   -1.08316  -1.05357  -1.04312  -0.96235  -0.95187
 Alpha  occ. eigenvalues --   -0.86751  -0.85704  -0.83060  -0.82046  -0.78135
 Alpha  occ. eigenvalues --   -0.77145  -0.72775  -0.71935  -0.71800  -0.71046
 Alpha  occ. eigenvalues --   -0.70935  -0.69962  -0.65619  -0.65323  -0.64564
 Alpha  occ. eigenvalues --   -0.64302  -0.62691  -0.61679  -0.55817  -0.54726
 Alpha  occ. eigenvalues --   -0.53713  -0.53418  -0.52617  -0.52395  -0.49548
 Alpha  occ. eigenvalues --   -0.49522  -0.48574  -0.48547  -0.45564  -0.44625
 Alpha  occ. eigenvalues --   -0.37958  -0.36971  -0.36818  -0.35904
 Alpha virt. eigenvalues --    0.04347   0.05417   0.10570   0.11738   0.15898
 Alpha virt. eigenvalues --    0.16954   0.20899   0.21940   0.26677   0.27360
 Alpha virt. eigenvalues --    0.28022   0.28902   0.30445   0.31293   0.32231

 Mulliken charges:
               1
     1  C   -0.170842
     2  C   -0.217660
     3  C   -0.170796
     4  C    0.156616
     5  C   -0.180377
     6  C   -0.218704
     7  H    0.229592
     8  H    0.229445
     9  H    0.279417
    10  H    0.273472
    11  H    0.225424
    12  N    0.489803
    13  O   -0.468231
    14  O   -0.453565
    15  C   -0.163938
    16  C   -0.225903
    17  C   -0.172154
    18  C    0.158062
    19  C   -0.170249
    20  C   -0.218191
    21  H    0.234274
    22  H    0.222406
    23  H    0.271492
    24  H    0.274310
    25  H    0.223856
    26  N    0.488375
    27  O   -0.460866
    28  O   -0.465069
 Sum of Mulliken charges =  -0.00000

 Dipole moment (field-independent basis, Debye):
    X=             -3.9705    Y=             -0.1647    Z=             -2.8786  Tot=              4.9070
 Quadrupole moment (field-independent basis, Debye-Ang):
   XX=           -106.7280   YY=           -107.0092   ZZ=           -101.8140
   XY=             28.2674   XZ=              3.3158   YZ=             -3.4320

 Normal termination of Gaussian 16 at Wed May  5 19:33:11 2021.
