 Gaussian 16, Revision A.03,
 Gaussian 16:  EM64L-G16RevA.03 25-Dec-2016

 -------------
 #p 6-31g* mp2
 -------------

 ------------------------------------------------------
 Input file generated by CHIRIPA (05-May-2021 14:55:21)
 ------------------------------------------------------
 Symbolic Z-matrix:
 Charge =  0 Multiplicity = 1

                         Standard orientation:
 ---------------------------------------------------------------------
 Center     Atomic      Atomic             Coordinates (Angstroms)
 Number     Number       Type             X           Y           Z
 ---------------------------------------------------------------------
      1          6           0       -2.196482   -2.454896    0.961633
      2          6           0       -3.178255   -1.501761    1.251767
      3          6           0       -3.158448   -0.249981    0.629511
      4          6           0       -2.137732    0.016265   -0.281829
      5          6           0       -1.145425   -0.912434   -0.591887
      6          6           0       -1.184984   -2.157714    0.042353
      7          1           0       -2.219541   -3.424785    1.449670
      8          1           0       -3.964994   -1.729796    1.965270
      9          1           0       -3.906024    0.506374    0.835603
     10          1           0       -0.373771   -0.656033   -1.307586
     11          1           0       -0.421219   -2.895995   -0.184910
     12          7           0       -2.106308    1.338029   -0.946927
     13          8           0       -1.196413    1.548037   -1.746067
     14          8           0       -2.992167    2.138991   -0.656496
     15          6           0        3.132617   -0.216459   -0.233927
     16          6           0        2.816313   -1.691454    0.015728
     17          6           0        3.603685   -2.628265   -0.900909
     18          1           0        2.914803    0.026214   -1.283028
     19          1           0        4.209473   -0.050420   -0.091777
     20          1           0        1.740150   -1.854384   -0.125500
     21          1           0        3.034724   -1.930597    1.064405
     22          1           0        4.680478   -2.494888   -0.754864
     23          1           0        3.378549   -2.418243   -1.951530
     24          1           0        3.362228   -3.677715   -0.705428
     25          6           0        2.353235    0.732497    0.674794
     26          6           0        2.669539    2.207492    0.425138
     27          6           0        1.882166    3.144302    1.341775
     28          1           0        1.276379    0.566458    0.532643
     29          1           0        2.571049    0.489823    1.723893
     30          1           0        2.451128    2.446635   -0.623538
     31          1           0        3.745701    2.370421    0.566366
     32          1           0        2.107302    2.934280    2.392396
     33          1           0        0.805374    3.010926    1.195731
     34          1           0        2.123624    4.193753    1.146294
 ---------------------------------------------------------------------

 SCF Done:  E(RHF) =  -669.534834305     A.U. after   15 cycles
 E2 =    -0.2094160540D+01 EUMP2 =    -0.67162899484466D+03

 The electronic state is 1-A.
 Alpha  occ. eigenvalues --  -20.60892 -20.60886 -15.85937 -11.31281 -11.27839
 Alpha  occ. eigenvalues --  -11.27835 -11.27564 -11.26846 -11.26821 -11.22093
 Alpha  occ. eigenvalues --  -11.21557 -11.21533 -11.21277 -11.21200 -11.20611
 Alpha  occ. eigenvalues --   -1.59961  -1.39515  -1.19453  -1.08844  -1.08499
 Alpha  occ. eigenvalues --   -1.04856  -1.03563  -0.96004  -0.95684  -0.87027
 Alpha  occ. eigenvalues --   -0.86246  -0.82531  -0.79699  -0.78265  -0.77549
 Alpha  occ. eigenvalues --   -0.72152  -0.71285  -0.70560  -0.65226  -0.65062
 Alpha  occ. eigenvalues --   -0.64859  -0.62208  -0.60922  -0.59430  -0.57603
 Alpha  occ. eigenvalues --   -0.55354  -0.55278  -0.53198  -0.52947  -0.52711
 Alpha  occ. eigenvalues --   -0.52411  -0.49962  -0.48911  -0.48908  -0.47976
 Alpha  occ. eigenvalues --   -0.46739  -0.45802  -0.45665  -0.44886  -0.43807
 Alpha  occ. eigenvalues --   -0.37414  -0.36377
 Alpha virt. eigenvalues --    0.04920   0.11100   0.16315   0.19962   0.22951
 Alpha virt. eigenvalues --    0.24057   0.26082   0.26660   0.27535   0.28343
 Alpha virt. eigenvalues --    0.29183   0.30641   0.31412   0.31701   0.32602

 Mulliken charges:
               1
     1  C   -0.171424
     2  C   -0.218293
     3  C   -0.170804
     4  C    0.157699
     5  C   -0.170528
     6  C   -0.218449
     7  H    0.226259
     8  H    0.223912
     9  H    0.275913
    10  H    0.276882
    11  H    0.226211
    12  N    0.488349
    13  O   -0.461452
    14  O   -0.459365
    15  C   -0.300205
    16  C   -0.304597
    17  C   -0.475955
    18  H    0.152372
    19  H    0.151536
    20  H    0.142776
    21  H    0.153625
    22  H    0.159301
    23  H    0.155910
    24  H    0.156446
    25  C   -0.301257
    26  C   -0.300414
    27  C   -0.475502
    28  H    0.150969
    29  H    0.147393
    30  H    0.161232
    31  H    0.149066
    32  H    0.150897
    33  H    0.159573
    34  H    0.161923
 Sum of Mulliken charges =  -0.00000

 Dipole moment (field-independent basis, Debye):
    X=             -0.1669    Y=             -4.5494    Z=              2.3169  Tot=              5.1082
 Quadrupole moment (field-independent basis, Debye-Ang):
   XX=            -90.5602   YY=            -95.6796   ZZ=            -95.3941
   XY=              9.3564   XZ=             -6.8505   YZ=              1.3709

 Normal termination of Gaussian 16 at Wed May  5 22:15:20 2021.
