 Gaussian 16, Revision A.03,
 Gaussian 16:  EM64L-G16RevA.03 25-Dec-2016

 -------------
 #p 6-31g* mp2
 -------------

 ------------------------------------------------------
 Input file generated by CHIRIPA (05-May-2021 14:57:23)
 ------------------------------------------------------
 Symbolic Z-matrix:
 Charge =  0 Multiplicity = 1

                         Standard orientation:
 ---------------------------------------------------------------------
 Center     Atomic      Atomic             Coordinates (Angstroms)
 Number     Number       Type             X           Y           Z
 ---------------------------------------------------------------------
      1          6           0        3.943416    2.082915    0.060924
      2          6           0        3.139187    1.702554    1.140305
      3          6           0        2.531479    0.443715    1.164005
      4          6           0        2.750460   -0.413577    0.086792
      5          6           0        3.546302   -0.063675   -1.002930
      6          6           0        4.144053    1.200143   -1.005368
      7          1           0        4.411631    3.062746    0.050772
      8          1           0        2.981605    2.386070    1.969774
      9          1           0        1.904080    0.123610    1.987000
     10          1           0        3.684792   -0.766707   -1.815323
     11          1           0        4.768126    1.492849   -1.844953
     12          7           0        2.112377   -1.748889    0.100628
     13          8           0        2.320999   -2.485869   -0.860608
     14          8           0        1.415707   -2.033243    1.072447
     15          6           0       -2.935923    2.712718   -0.198640
     16          6           0       -4.122726    1.977874   -0.109057
     17          6           0       -4.090214    0.581657   -0.045246
     18          6           0       -2.847861   -0.050047   -0.073478
     19          6           0       -1.648090    0.654200   -0.162233
     20          6           0       -1.704564    2.049705   -0.224895
     21          1           0       -2.970487    3.797055   -0.247764
     22          1           0       -5.080451    2.490108   -0.088475
     23          1           0       -4.993706   -0.011848    0.024545
     24          1           0       -0.708508    0.115442   -0.180730
     25          1           0       -0.781275    2.617815   -0.294419
     26          7           0       -2.800757   -1.527781   -0.006532
     27          8           0       -1.693473   -2.060559   -0.033110
     28          8           0       -3.872015   -2.125272    0.071250
 ---------------------------------------------------------------------

 SCF Done:  E(RHF) =  -868.335298488     A.U. after   16 cycles
 E2 =    -0.2602282918D+01 EUMP2 =    -0.87093758140575D+03

 The electronic state is 1-A.
 Alpha  occ. eigenvalues --  -20.60577 -20.60493 -20.60045 -20.59931 -15.85586
 Alpha  occ. eigenvalues --  -15.85040 -11.31428 -11.30797 -11.28040 -11.27987
 Alpha  occ. eigenvalues --  -11.27816 -11.27415 -11.27411 -11.27251 -11.27137
 Alpha  occ. eigenvalues --  -11.27084 -11.26538 -11.26510  -1.59588  -1.59070
 Alpha  occ. eigenvalues --   -1.39133  -1.38605  -1.19629  -1.19013  -1.08929
 Alpha  occ. eigenvalues --   -1.08342  -1.05075  -1.04474  -0.95680  -0.95106
 Alpha  occ. eigenvalues --   -0.86446  -0.85854  -0.82499  -0.81927  -0.77480
 Alpha  occ. eigenvalues --   -0.76913  -0.71801  -0.71324  -0.70841  -0.70687
 Alpha  occ. eigenvalues --   -0.70409  -0.70122  -0.65245  -0.65051  -0.64651
 Alpha  occ. eigenvalues --   -0.64485  -0.62397  -0.61815  -0.55535  -0.54981
 Alpha  occ. eigenvalues --   -0.53406  -0.53145  -0.52784  -0.52574  -0.48576
 Alpha  occ. eigenvalues --   -0.48525  -0.48052  -0.47995  -0.44432  -0.43869
 Alpha  occ. eigenvalues --   -0.37636  -0.37021  -0.36718  -0.36091
 Alpha virt. eigenvalues --    0.05006   0.05666   0.10862   0.11561   0.16425
 Alpha virt. eigenvalues --    0.17068   0.21088   0.21552   0.26856   0.27263
 Alpha virt. eigenvalues --    0.28013   0.28329   0.30345   0.31208   0.32103

 Mulliken charges:
               1
     1  C   -0.173223
     2  C   -0.220921
     3  C   -0.179335
     4  C    0.154701
     5  C   -0.171561
     6  C   -0.218571
     7  H    0.225368
     8  H    0.223173
     9  H    0.278121
    10  H    0.278352
    11  H    0.224512
    12  N    0.487940
    13  O   -0.456289
    14  O   -0.447778
    15  C   -0.171835
    16  C   -0.218700
    17  C   -0.170904
    18  C    0.159097
    19  C   -0.171446
    20  C   -0.220669
    21  H    0.222444
    22  H    0.221953
    23  H    0.275710
    24  H    0.274926
    25  H    0.219374
    26  N    0.486185
    27  O   -0.445561
    28  O   -0.465062
 Sum of Mulliken charges =  -0.00000

 Dipole moment (field-independent basis, Debye):
    X=              2.2257    Y=              9.5034    Z=             -0.2659  Tot=              9.7641
 Quadrupole moment (field-independent basis, Debye-Ang):
   XX=            -86.6929   YY=           -110.2170   ZZ=           -101.8437
   XY=             -3.1461   XZ=             -1.7986   YZ=              1.0269

 Normal termination of Gaussian 16 at Thu May  6 05:00:46 2021.
