 Gaussian 16, Revision A.03,
 Gaussian 16:  EM64L-G16RevA.03 25-Dec-2016

 -------------
 #p 6-31g* mp2
 -------------

 ------------------------------------------------------
 Input file generated by CHIRIPA (05-May-2021 14:57:26)
 ------------------------------------------------------
 Symbolic Z-matrix:
 Charge =  0 Multiplicity = 1

                         Standard orientation:
 ---------------------------------------------------------------------
 Center     Atomic      Atomic             Coordinates (Angstroms)
 Number     Number       Type             X           Y           Z
 ---------------------------------------------------------------------
      1          6           0        3.647342   -2.228898    0.789345
      2          6           0        3.199729   -1.991867   -0.514487
      3          6           0        2.959940   -0.687463   -0.956733
      4          6           0        3.179195    0.361051   -0.064638
      5          6           0        3.624825    0.157180    1.240406
      6          6           0        3.858090   -1.155511    1.661094
      7          1           0        3.831082   -3.245409    1.124519
      8          1           0        3.035201   -2.823538   -1.193677
      9          1           0        2.613115   -0.475471   -1.960819
     10          1           0        3.779790    1.006627    1.894504
     11          1           0        4.205681   -1.336607    2.674223
     12          7           0        2.928795    1.746352   -0.521412
     13          8           0        3.129595    2.652875    0.283902
     14          8           0        2.536472    1.899395   -1.676097
     15          6           0       -0.834391   -0.741953   -0.559672
     16          6           0       -1.878039   -1.596195   -0.930601
     17          6           0       -3.203909   -1.268777   -0.631579
     18          6           0       -3.451141   -0.073840    0.042434
     19          6           0       -2.433027    0.798026    0.425294
     20          6           0       -1.114721    0.450329    0.115901
     21          1           0        0.192640   -1.004176   -0.795988
     22          1           0       -1.663297   -2.522788   -1.455345
     23          1           0       -4.031014   -1.911782   -0.907009
     24          1           0       -2.678346    1.714842    0.947486
     25          1           0       -0.306216    1.115665    0.405199
     26          7           0       -4.850777    0.283517    0.364485
     27          8           0       -5.042202    1.342046    0.959050
     28          8           0       -5.729881   -0.501684    0.016247
 ---------------------------------------------------------------------

 SCF Done:  E(RHF) =  -868.337073074     A.U. after   16 cycles
 E2 =    -0.2601851113D+01 EUMP2 =    -0.87093892418635D+03

 The electronic state is 1-A.
 Alpha  occ. eigenvalues --  -20.61928 -20.61923 -20.60580 -20.60569 -15.86983
 Alpha  occ. eigenvalues --  -15.85631 -11.32455 -11.30972 -11.29028 -11.28948
 Alpha  occ. eigenvalues --  -11.28672 -11.28043 -11.27928 -11.27577 -11.27507
 Alpha  occ. eigenvalues --  -11.27219 -11.26607 -11.26500  -1.61019  -1.59653
 Alpha  occ. eigenvalues --   -1.40560  -1.39207  -1.20624  -1.19145  -1.09970
 Alpha  occ. eigenvalues --   -1.08547  -1.06024  -1.04547  -0.96794  -0.95386
 Alpha  occ. eigenvalues --   -0.87391  -0.85952  -0.83608  -0.82221  -0.78663
 Alpha  occ. eigenvalues --   -0.77270  -0.73172  -0.72395  -0.71848  -0.71668
 Alpha  occ. eigenvalues --   -0.70976  -0.70274  -0.66237  -0.65963  -0.64799
 Alpha  occ. eigenvalues --   -0.64567  -0.63337  -0.61900  -0.56440  -0.55384
 Alpha  occ. eigenvalues --   -0.54097  -0.53998  -0.52872  -0.52642  -0.49949
 Alpha  occ. eigenvalues --   -0.49936  -0.48609  -0.48604  -0.45929  -0.44618
 Alpha  occ. eigenvalues --   -0.38567  -0.37608  -0.37119  -0.36149
 Alpha virt. eigenvalues --    0.03805   0.05267   0.09965   0.11501   0.15266
 Alpha virt. eigenvalues --    0.16756   0.20173   0.21670   0.26017   0.26910
 Alpha virt. eigenvalues --    0.27252   0.28979   0.30068   0.30935   0.32044

 Mulliken charges:
               1
     1  C   -0.169107
     2  C   -0.219537
     3  C   -0.189149
     4  C    0.158126
     5  C   -0.171141
     6  C   -0.216690
     7  H    0.230616
     8  H    0.226321
     9  H    0.278461
    10  H    0.279556
    11  H    0.228962
    12  N    0.485754
    13  O   -0.456790
    14  O   -0.457634
    15  C   -0.172166
    16  C   -0.221643
    17  C   -0.170849
    18  C    0.157942
    19  C   -0.170759
    20  C   -0.220648
    21  H    0.227706
    22  H    0.218871
    23  H    0.274195
    24  H    0.277306
    25  H    0.225803
    26  N    0.488008
    27  O   -0.459753
    28  O   -0.461761
 Sum of Mulliken charges =  -0.00000

 Dipole moment (field-independent basis, Debye):
    X=              6.1893    Y=             -6.0791    Z=              0.6426  Tot=              8.6992
 Quadrupole moment (field-independent basis, Debye-Ang):
   XX=           -132.7852   YY=           -104.4578   ZZ=           -100.7247
   XY=             -9.7648   XZ=             11.8854   YZ=              4.6180

 Normal termination of Gaussian 16 at Thu May  6 21:23:00 2021.
