 Gaussian 16, Revision A.03,
 Gaussian 16:  EM64L-G16RevA.03 25-Dec-2016

 -------------
 #p 6-31g* mp2
 -------------

 ------------------------------------------------------
 Input file generated by CHIRIPA (05-May-2021 14:57:26)
 ------------------------------------------------------
 Symbolic Z-matrix:
 Charge =  0 Multiplicity = 1

                         Standard orientation:
 ---------------------------------------------------------------------
 Center     Atomic      Atomic             Coordinates (Angstroms)
 Number     Number       Type             X           Y           Z
 ---------------------------------------------------------------------
      1          6           0       -3.150290    2.323234    0.587384
      2          6           0       -2.502730    1.593430   -0.414900
      3          6           0       -2.932492    0.304687   -0.745045
      4          6           0       -4.017903   -0.225852   -0.049559
      5          6           0       -4.683775    0.476235    0.953924
      6          6           0       -4.236830    1.763294    1.267399
      7          1           0       -2.809766    3.323706    0.837374
      8          1           0       -1.658644    2.025758   -0.944670
      9          1           0       -2.449431   -0.282392   -1.516671
     10          1           0       -5.522410    0.018622    1.464512
     11          1           0       -4.741647    2.327754    2.046238
     12          7           0       -4.481968   -1.589295   -0.390244
     13          8           0       -5.440574   -2.034204    0.237265
     14          8           0       -3.878309   -2.187236   -1.278332
     15          6           0        1.819029    1.222823   -0.613942
     16          6           0        1.755768    0.024778    0.105229
     17          6           0        2.925291   -0.660652    0.447210
     18          6           0        4.146604   -0.116967    0.052126
     19          6           0        4.242404    1.074580   -0.665039
     20          6           0        3.059958    1.742984   -0.996107
     21          1           0        0.905497    1.748667   -0.875362
     22          1           0        0.793439   -0.381539    0.403348
     23          1           0        2.905232   -1.589986    1.003405
     24          1           0        5.216374    1.454828   -0.948259
     25          1           0        3.112119    2.673207   -1.554683
     26          7           0        5.391566   -0.833588    0.408391
     27          8           0        6.455158   -0.333675    0.048536
     28          8           0        5.280203   -1.881620    1.040738
 ---------------------------------------------------------------------

 SCF Done:  E(RHF) =  -868.336760499     A.U. after   16 cycles
 E2 =    -0.2599825040D+01 EUMP2 =    -0.87093658553854D+03

 The electronic state is 1-A.
 Alpha  occ. eigenvalues --  -20.61464 -20.61454 -20.61016 -20.61009 -15.86525
 Alpha  occ. eigenvalues --  -15.86071 -11.32055 -11.31550 -11.28725 -11.28615
 Alpha  occ. eigenvalues --  -11.28438 -11.28124 -11.28094 -11.28018 -11.27838
 Alpha  occ. eigenvalues --  -11.27626 -11.27223 -11.27174  -1.60536  -1.60087
 Alpha  occ. eigenvalues --   -1.40085  -1.39637  -1.20262  -1.19740  -1.09619
 Alpha  occ. eigenvalues --   -1.09143  -1.05703  -1.05147  -0.96419  -0.95957
 Alpha  occ. eigenvalues --   -0.87088  -0.86555  -0.83262  -0.82772  -0.78283
 Alpha  occ. eigenvalues --   -0.77773  -0.72735  -0.72288  -0.71866  -0.71410
 Alpha  occ. eigenvalues --   -0.71345  -0.70948  -0.65913  -0.65730  -0.65401
 Alpha  occ. eigenvalues --   -0.65153  -0.63047  -0.62479  -0.56193  -0.55764
 Alpha  occ. eigenvalues --   -0.54006  -0.53771  -0.53484  -0.53242  -0.49509
 Alpha  occ. eigenvalues --   -0.49482  -0.49057  -0.49035  -0.45454  -0.45016
 Alpha  occ. eigenvalues --   -0.38235  -0.37772  -0.37316  -0.36737
 Alpha virt. eigenvalues --    0.04260   0.04743   0.10285   0.10906   0.15596
 Alpha virt. eigenvalues --    0.16196   0.18134   0.21926   0.24587   0.26635
 Alpha virt. eigenvalues --    0.27630   0.28723   0.29733   0.31363   0.32262

 Mulliken charges:
               1
     1  C   -0.170072
     2  C   -0.224688
     3  C   -0.174734
     4  C    0.159121
     5  C   -0.169093
     6  C   -0.218276
     7  H    0.227584
     8  H    0.218418
     9  H    0.276540
    10  H    0.278906
    11  H    0.227062
    12  N    0.487936
    13  O   -0.457378
    14  O   -0.459313
    15  C   -0.172989
    16  C   -0.220500
    17  C   -0.169993
    18  C    0.159284
    19  C   -0.170460
    20  C   -0.218865
    21  H    0.217104
    22  H    0.226218
    23  H    0.278457
    24  H    0.276756
    25  H    0.223183
    26  N    0.487865
    27  O   -0.459646
    28  O   -0.458429
 Sum of Mulliken charges =  -0.00000

 Dipole moment (field-independent basis, Debye):
    X=             -2.8906    Y=              7.2123    Z=              0.0846  Tot=              7.7705
 Quadrupole moment (field-independent basis, Debye-Ang):
   XX=           -149.3333   YY=           -105.9882   ZZ=           -102.6635
   XY=             -7.0254   XZ=            -14.9757   YZ=             -1.6494

 Normal termination of Gaussian 16 at Thu May  6 21:22:33 2021.
