 Gaussian 16, Revision A.03,
 Gaussian 16:  EM64L-G16RevA.03 25-Dec-2016

 -------------
 #p 6-31g* mp2
 -------------

 ------------------------------------------------------
 Input file generated by CHIRIPA (05-May-2021 14:53:12)
 ------------------------------------------------------
 Symbolic Z-matrix:
 Charge =  0 Multiplicity = 1

                         Standard orientation:
 ---------------------------------------------------------------------
 Center     Atomic      Atomic             Coordinates (Angstroms)
 Number     Number       Type             X           Y           Z
 ---------------------------------------------------------------------
      1          6           0        2.998931   -0.259896   -0.296929
      2          6           0        4.122683   -1.222386    0.088788
      3          6           0        3.769116   -2.684363   -0.185812
      4          1           0        2.088606   -0.528610    0.256286
      5          1           0        2.765943   -0.387727   -1.363124
      6          1           0        4.354428   -1.091800    1.153616
      7          1           0        5.030491   -0.951230   -0.465266
      8          1           0        3.558139   -2.836486   -1.249273
      9          1           0        2.878235   -2.977855    0.378807
     10          1           0        4.586381   -3.355045    0.097250
     11          6           0        3.337428    1.205371   -0.028336
     12          6           0        2.213676    2.167861   -0.414053
     13          6           0        2.567243    3.629839   -0.139453
     14          1           0        3.570416    1.333202    1.037858
     15          1           0        4.247753    1.474085   -0.581552
     16          1           0        1.305868    1.896705    0.140001
     17          1           0        1.981931    2.037275   -1.478881
     18          1           0        3.458124    3.923330   -0.704072
     19          1           0        2.778220    3.781961    0.924008
     20          1           0        1.749978    4.300520   -0.422516
     21          6           0       -4.713827    0.638683   -0.454427
     22          6           0       -4.122189    0.914203    0.782737
     23          6           0       -2.882058    0.361182    1.115589
     24          6           0       -2.258712   -0.466777    0.183272
     25          6           0       -2.822552   -0.760183   -1.057407
     26          6           0       -4.063267   -0.196159   -1.368939
     27          1           0       -5.677416    1.072557   -0.704714
     28          1           0       -4.625127    1.562200    1.494917
     29          1           0       -2.401424    0.557804    2.066245
     30          1           0       -2.297008   -1.409856   -1.746715
     31          1           0       -4.520370   -0.411879   -2.330482
     32          7           0       -0.945532   -1.058060    0.524362
     33          8           0       -0.416788   -1.784353   -0.314425
     34          8           0       -0.469872   -0.784018    1.624037
 ---------------------------------------------------------------------

 SCF Done:  E(RHF) =  -669.536897631     A.U. after   15 cycles
 E2 =    -0.2092527595D+01 EUMP2 =    -0.67162942522542D+03

 The electronic state is 1-A.
 Alpha  occ. eigenvalues --  -20.61137 -20.61127 -15.86112 -11.31380 -11.27929
 Alpha  occ. eigenvalues --  -11.27922 -11.27654 -11.26918 -11.26909 -11.20782
 Alpha  occ. eigenvalues --  -11.20472 -11.20242 -11.20194 -11.19670 -11.19542
 Alpha  occ. eigenvalues --   -1.60164  -1.39719  -1.19535  -1.08953  -1.07181
 Alpha  occ. eigenvalues --   -1.04920  -1.02379  -0.95804  -0.94811  -0.86323
 Alpha  occ. eigenvalues --   -0.85833  -0.82642  -0.78500  -0.77707  -0.76914
 Alpha  occ. eigenvalues --   -0.72323  -0.71463  -0.70644  -0.65190  -0.64925
 Alpha  occ. eigenvalues --   -0.63805  -0.62267  -0.59782  -0.58240  -0.56416
 Alpha  occ. eigenvalues --   -0.55431  -0.54088  -0.53253  -0.53010  -0.51594
 Alpha  occ. eigenvalues --   -0.51230  -0.49214  -0.49106  -0.48691  -0.46798
 Alpha  occ. eigenvalues --   -0.45552  -0.45140  -0.44446  -0.44193  -0.42587
 Alpha  occ. eigenvalues --   -0.37504  -0.36515
 Alpha virt. eigenvalues --    0.04785   0.11138   0.16293   0.21272   0.24034
 Alpha virt. eigenvalues --    0.25489   0.27200   0.27783   0.28129   0.28748
 Alpha virt. eigenvalues --    0.29096   0.30947   0.32318   0.32551   0.32644

 Mulliken charges:
               1
     1  C   -0.309338
     2  C   -0.298231
     3  C   -0.476145
     4  H    0.179123
     5  H    0.144069
     6  H    0.149458
     7  H    0.144130
     8  H    0.151694
     9  H    0.169659
    10  H    0.151846
    11  C   -0.296461
    12  C   -0.299080
    13  C   -0.474671
    14  H    0.148539
    15  H    0.144048
    16  H    0.151333
    17  H    0.148405
    18  H    0.153782
    19  H    0.154690
    20  H    0.154903
    21  C   -0.170264
    22  C   -0.218584
    23  C   -0.170749
    24  C    0.161072
    25  C   -0.170459
    26  C   -0.218637
    27  H    0.226352
    28  H    0.224155
    29  H    0.275882
    30  H    0.276193
    31  H    0.224170
    32  N    0.487435
    33  O   -0.457058
    34  O   -0.461260
 Sum of Mulliken charges =  -0.00000

 Dipole moment (field-independent basis, Debye):
    X=             -5.0379    Y=              1.8956    Z=             -1.1147  Tot=              5.4969
 Quadrupole moment (field-independent basis, Debye-Ang):
   XX=            -75.5875   YY=            -98.1244   ZZ=            -90.6030
   XY=             -2.9842   XZ=              1.7914   YZ=              3.1503

 Normal termination of Gaussian 16 at Wed May  5 17:01:00 2021.
