 Gaussian 16, Revision A.03,
 Gaussian 16:  EM64L-G16RevA.03 25-Dec-2016

 -------------
 #p 6-31g* mp2
 -------------

 ------------------------------------------------------
 Input file generated by CHIRIPA (05-May-2021 14:57:23)
 ------------------------------------------------------
 Symbolic Z-matrix:
 Charge =  0 Multiplicity = 1

                         Standard orientation:
 ---------------------------------------------------------------------
 Center     Atomic      Atomic             Coordinates (Angstroms)
 Number     Number       Type             X           Y           Z
 ---------------------------------------------------------------------
      1          6           0        1.331376   -1.968219    0.937105
      2          6           0        2.450330   -2.344207    0.186708
      3          6           0        3.377687   -1.386274   -0.233915
      4          6           0        3.153949   -0.055360    0.115224
      5          6           0        2.048895    0.350580    0.861789
      6          6           0        1.134577   -0.624395    1.271661
      7          1           0        0.616048   -2.718983    1.259679
      8          1           0        2.605726   -3.387101   -0.074575
      9          1           0        4.252580   -1.649704   -0.815795
     10          1           0        1.920947    1.397957    1.106838
     11          1           0        0.266487   -0.329500    1.854329
     12          7           0        4.128798    0.967781   -0.324379
     13          8           0        3.908925    2.133760   -0.003776
     14          8           0        5.094299    0.584367   -0.981219
     15          6           0       -3.301445   -2.263543   -0.476048
     16          6           0       -4.389969   -1.459773   -0.121662
     17          6           0       -4.230854   -0.080344    0.040839
     18          6           0       -2.963491    0.464471   -0.159797
     19          6           0       -1.859546   -0.309862   -0.513360
     20          6           0       -2.041928   -1.687039   -0.670423
     21          1           0       -3.434087   -3.334241   -0.600171
     22          1           0       -5.369280   -1.904758    0.029938
     23          1           0       -5.056418    0.565276    0.314772
     24          1           0       -0.895479    0.162540   -0.657682
     25          1           0       -1.194770   -2.308808   -0.945688
     26          7           0       -2.782726    1.923618    0.009357
     27          8           0       -1.655912    2.379270   -0.173145
     28          8           0       -3.771281    2.584017    0.321239
 ---------------------------------------------------------------------

 SCF Done:  E(RHF) =  -868.336781265     A.U. after   16 cycles
 E2 =    -0.2602792616D+01 EUMP2 =    -0.87093957388077D+03

 The electronic state is 1-A.
 Alpha  occ. eigenvalues --  -20.61296 -20.61277 -20.60885 -20.60853 -15.86342
 Alpha  occ. eigenvalues --  -15.85931 -11.31755 -11.31522 -11.28334 -11.28267
 Alpha  occ. eigenvalues --  -11.28138 -11.28120 -11.28014 -11.27953 -11.27356
 Alpha  occ. eigenvalues --  -11.27345 -11.27250 -11.27119  -1.60365  -1.59943
 Alpha  occ. eigenvalues --   -1.39916  -1.39488  -1.19961  -1.19737  -1.09343
 Alpha  occ. eigenvalues --   -1.09113  -1.05382  -1.05121  -0.96158  -0.95889
 Alpha  occ. eigenvalues --   -0.86771  -0.86521  -0.82980  -0.82693  -0.78040
 Alpha  occ. eigenvalues --   -0.77668  -0.72550  -0.72142  -0.71702  -0.71273
 Alpha  occ. eigenvalues --   -0.71055  -0.70840  -0.65601  -0.65394  -0.65335
 Alpha  occ. eigenvalues --   -0.65117  -0.62738  -0.62399  -0.55883  -0.55684
 Alpha  occ. eigenvalues --   -0.53843  -0.53477  -0.53346  -0.53126  -0.49313
 Alpha  occ. eigenvalues --   -0.49306  -0.48925  -0.48880  -0.45309  -0.44842
 Alpha  occ. eigenvalues --   -0.37993  -0.37951  -0.37074  -0.36428
 Alpha virt. eigenvalues --    0.04471   0.04758   0.10352   0.11099   0.15878
 Alpha virt. eigenvalues --    0.16250   0.20482   0.21428   0.26456   0.26977
 Alpha virt. eigenvalues --    0.27667   0.28222   0.30392   0.30929   0.32424

 Mulliken charges:
               1
     1  C   -0.178085
     2  C   -0.221278
     3  C   -0.170458
     4  C    0.158854
     5  C   -0.171291
     6  C   -0.227550
     7  H    0.224000
     8  H    0.222709
     9  H    0.277057
    10  H    0.287317
    11  H    0.230909
    12  N    0.487833
    13  O   -0.454269
    14  O   -0.460781
    15  C   -0.171501
    16  C   -0.218765
    17  C   -0.170326
    18  C    0.156234
    19  C   -0.176831
    20  C   -0.225741
    21  H    0.225544
    22  H    0.225157
    23  H    0.277356
    24  H    0.281788
    25  H    0.222929
    26  N    0.487766
    27  O   -0.460896
    28  O   -0.457681
 Sum of Mulliken charges =  -0.00000

 Dipole moment (field-independent basis, Debye):
    X=             -3.9921    Y=             -8.4900    Z=              0.9909  Tot=              9.4339
 Quadrupole moment (field-independent basis, Debye-Ang):
   XX=           -116.2856   YY=           -107.6684   ZZ=           -104.3687
   XY=              1.3681   XZ=              3.8831   YZ=              2.0943

 Normal termination of Gaussian 16 at Thu May  6 19:36:30 2021.
