 Gaussian 16, Revision A.03,
 Gaussian 16:  EM64L-G16RevA.03 25-Dec-2016

 -------------
 #p 6-31g* mp2
 -------------

 ------------------------------------------------------
 Input file generated by CHIRIPA (05-May-2021 14:53:14)
 ------------------------------------------------------
 Symbolic Z-matrix:
 Charge =  0 Multiplicity = 1

                         Standard orientation:
 ---------------------------------------------------------------------
 Center     Atomic      Atomic             Coordinates (Angstroms)
 Number     Number       Type             X           Y           Z
 ---------------------------------------------------------------------
      1          6           0       -3.147840    0.606149   -0.408374
      2          6           0       -3.095801    2.132327   -0.330545
      3          6           0       -1.691963    2.688923   -0.569781
      4          1           0       -2.453499    0.183771    0.330836
      5          1           0       -2.787851    0.283801   -1.395236
      6          1           0       -3.457085    2.451769    0.655379
      7          1           0       -3.790488    2.551119   -1.069896
      8          1           0       -1.326091    2.398763   -1.560006
      9          1           0       -0.990793    2.298849    0.175071
     10          1           0       -1.677698    3.781643   -0.509613
     11          6           0       -4.544635    0.034738   -0.171353
     12          6           0       -4.596674   -1.491441   -0.249182
     13          6           0       -6.000512   -2.048036   -0.009947
     14          1           0       -4.904624    0.357085    0.815508
     15          1           0       -5.238976    0.457116   -0.910564
     16          1           0       -3.901986   -1.910233    0.490168
     17          1           0       -4.235390   -1.810882   -1.235107
     18          1           0       -6.701682   -1.657962   -0.754799
     19          1           0       -6.366384   -1.757877    0.980278
     20          1           0       -6.014776   -3.140756   -0.070115
     21          6           0        5.185452   -0.580133   -0.999204
     22          6           0        4.319265   -1.661694   -0.808244
     23          6           0        3.108451   -1.490589   -0.130601
     24          6           0        2.794063   -0.218464    0.344949
     25          6           0        3.636045    0.878774    0.170524
     26          6           0        4.841683    0.684421   -0.510073
     27          1           0        6.124030   -0.722081   -1.526761
     28          1           0        4.583640   -2.644893   -1.187020
     29          1           0        2.419331   -2.310558    0.031206
     30          1           0        3.345103    1.846967    0.559592
     31          1           0        5.512431    1.526193   -0.656910
     32          7           0        1.514968   -0.025016    1.063903
     33          8           0        1.261126    1.105782    1.473166
     34          8           0        0.790475   -1.007853    1.204542
 ---------------------------------------------------------------------

 SCF Done:  E(RHF) =  -669.536796647     A.U. after   15 cycles
 E2 =    -0.2091210688D+01 EUMP2 =    -0.67162800733465D+03

 The electronic state is 1-A.
 Alpha  occ. eigenvalues --  -20.61036 -20.61031 -15.86043 -11.31318 -11.27876
 Alpha  occ. eigenvalues --  -11.27870 -11.27609 -11.26874 -11.26864 -11.20745
 Alpha  occ. eigenvalues --  -11.20475 -11.20435 -11.20388 -11.20165 -11.19750
 Alpha  occ. eigenvalues --   -1.60079  -1.39637  -1.19482  -1.08896  -1.07397
 Alpha  occ. eigenvalues --   -1.04871  -1.02525  -0.95745  -0.94971  -0.86274
 Alpha  occ. eigenvalues --   -0.85991  -0.82581  -0.78606  -0.77639  -0.77187
 Alpha  occ. eigenvalues --   -0.72267  -0.71380  -0.70592  -0.65139  -0.64875
 Alpha  occ. eigenvalues --   -0.64021  -0.62218  -0.59915  -0.58368  -0.56586
 Alpha  occ. eigenvalues --   -0.55381  -0.54245  -0.53204  -0.52963  -0.51699
 Alpha  occ. eigenvalues --   -0.51400  -0.49109  -0.49030  -0.48831  -0.46924
 Alpha  occ. eigenvalues --   -0.45661  -0.44990  -0.44744  -0.44578  -0.42776
 Alpha  occ. eigenvalues --   -0.37457  -0.36469
 Alpha virt. eigenvalues --    0.04845   0.11187   0.16328   0.21316   0.23890
 Alpha virt. eigenvalues --    0.25337   0.27244   0.27677   0.28149   0.28624
 Alpha virt. eigenvalues --    0.29031   0.30879   0.32307   0.32503   0.32700

 Mulliken charges:
               1
     1  C   -0.303294
     2  C   -0.297166
     3  C   -0.487693
     4  H    0.167127
     5  H    0.143818
     6  H    0.151531
     7  H    0.145538
     8  H    0.146177
     9  H    0.180718
    10  H    0.153622
    11  C   -0.297459
    12  C   -0.299771
    13  C   -0.475127
    14  H    0.149070
    15  H    0.145460
    16  H    0.157094
    17  H    0.148947
    18  H    0.152827
    19  H    0.154749
    20  H    0.157716
    21  C   -0.170419
    22  C   -0.218652
    23  C   -0.170581
    24  C    0.158512
    25  C   -0.170362
    26  C   -0.218633
    27  H    0.226109
    28  H    0.223906
    29  H    0.275923
    30  H    0.276225
    31  H    0.224003
    32  N    0.488888
    33  O   -0.459556
    34  O   -0.459249
 Sum of Mulliken charges =  -0.00000

 Dipole moment (field-independent basis, Debye):
    X=              4.8539    Y=             -0.7795    Z=             -2.3539  Tot=              5.4506
 Quadrupole moment (field-independent basis, Debye-Ang):
   XX=            -71.8021   YY=            -90.6052   ZZ=            -96.4666
   XY=             -2.0844   XZ=             -5.7745   YZ=              1.3475

 Normal termination of Gaussian 16 at Thu May  6 20:20:57 2021.
