 Gaussian 16, Revision A.03,
 Gaussian 16:  EM64L-G16RevA.03 25-Dec-2016

 -------------
 #p 6-31g* mp2
 -------------

 ------------------------------------------------------
 Input file generated by CHIRIPA (05-May-2021 14:51:08)
 ------------------------------------------------------
 Symbolic Z-matrix:
 Charge =  0 Multiplicity = 1

                         Standard orientation:
 ---------------------------------------------------------------------
 Center     Atomic      Atomic             Coordinates (Angstroms)
 Number     Number       Type             X           Y           Z
 ---------------------------------------------------------------------
      1          6           0       -3.029946   -0.069774   -0.038713
      2          6           0       -3.581848    0.063416   -1.458449
      3          6           0       -4.462904    1.300267   -1.636585
      4          1           0       -3.867430   -0.109068    0.671233
      5          1           0       -2.452420    0.831675    0.208770
      6          1           0       -4.157006   -0.838620   -1.703684
      7          1           0       -2.742957    0.102204   -2.165113
      8          1           0       -3.896447    2.211407   -1.418523
      9          1           0       -5.318530    1.265238   -0.954472
     10          1           0       -4.846770    1.375899   -2.658733
     11          6           0       -2.147237   -1.301442    0.155057
     12          6           0       -1.595335   -1.434632    1.574793
     13          6           0       -0.714279   -2.671484    1.752929
     14          1           0       -2.724763   -2.202892   -0.092426
     15          1           0       -1.309754   -1.262149   -0.554889
     16          1           0       -2.434226   -1.473421    2.281457
     17          1           0       -1.020177   -0.532597    1.820028
     18          1           0        0.141347   -2.636455    1.070816
     19          1           0       -1.280736   -3.582624    1.534867
     20          1           0       -0.330413   -2.747115    2.775077
     21          6           0        2.681954    0.182635   -0.625388
     22          6           0        4.080699   -0.433740   -0.665138
     23          6           0        4.251999   -1.437951   -1.805319
     24          1           0        1.937624   -0.619099   -0.524699
     25          1           0        2.479786    0.678111   -1.585090
     26          1           0        4.280705   -0.926718    0.294855
     27          1           0        4.821797    0.369569   -0.765551
     28          1           0        4.078995   -0.955562   -2.772775
     29          1           0        3.534829   -2.259214   -1.706343
     30          1           0        5.259104   -1.866325   -1.815089
     31          6           0        2.495228    1.188581    0.509044
     32          6           0        1.096485    1.804958    0.548794
     33          6           0        0.925184    2.809167    1.688975
     34          1           0        2.697397    0.693106    1.468745
     35          1           0        3.239559    1.990317    0.408355
     36          1           0        0.355386    1.001648    0.649207
     37          1           0        0.896477    2.297933   -0.411199
     38          1           0        1.642353    3.630430    1.590000
     39          1           0        1.098188    2.326779    2.656431
     40          1           0       -0.081920    3.237541    1.698744
 ---------------------------------------------------------------------

 SCF Done:  E(RHF) =  -470.733273897     A.U. after   11 cycles
 E2 =    -0.1583933052D+01 EUMP2 =    -0.47231720694971D+03

 The electronic state is 1-A.
 Alpha  occ. eigenvalues --  -11.21649 -11.21642 -11.21635 -11.21592 -11.21467
 Alpha  occ. eigenvalues --  -11.21419 -11.21406 -11.21353 -11.21139 -11.21132
 Alpha  occ. eigenvalues --  -11.21101 -11.21064  -1.08508  -1.08431  -1.03594
 Alpha  occ. eigenvalues --   -1.03542  -0.96031  -0.96000  -0.87050  -0.87014
 Alpha  occ. eigenvalues --   -0.79680  -0.79589  -0.78328  -0.78237  -0.65360
 Alpha  occ. eigenvalues --   -0.64880  -0.61128  -0.60806  -0.59405  -0.59359
 Alpha  occ. eigenvalues --   -0.57648  -0.57606  -0.55343  -0.55265  -0.52722
 Alpha  occ. eigenvalues --   -0.52697  -0.52455  -0.52426  -0.50038  -0.49891
 Alpha  occ. eigenvalues --   -0.48025  -0.47913  -0.46884  -0.46501  -0.46055
 Alpha  occ. eigenvalues --   -0.45793  -0.45710  -0.45421  -0.43836  -0.43802
 Alpha virt. eigenvalues --    0.19101   0.22572   0.23750   0.24262   0.25776
 Alpha virt. eigenvalues --    0.26577   0.26875   0.27893   0.28734   0.29450
 Alpha virt. eigenvalues --    0.30477   0.31559   0.31722   0.31998   0.32195

 Mulliken charges:
               1
     1  C   -0.300528
     2  C   -0.299613
     3  C   -0.475757
     4  H    0.149610
     5  H    0.151820
     6  H    0.151805
     7  H    0.152422
     8  H    0.155248
     9  H    0.155094
    10  H    0.160234
    11  C   -0.299751
    12  C   -0.304771
    13  C   -0.476890
    14  H    0.149979
    15  H    0.150745
    16  H    0.152690
    17  H    0.155902
    18  H    0.155182
    19  H    0.155816
    20  H    0.160358
    21  C   -0.300634
    22  C   -0.299713
    23  C   -0.475765
    24  H    0.150541
    25  H    0.149669
    26  H    0.152325
    27  H    0.152208
    28  H    0.155206
    29  H    0.155166
    30  H    0.160527
    31  C   -0.297790
    32  C   -0.309815
    33  C   -0.475930
    34  H    0.149879
    35  H    0.150069
    36  H    0.161128
    37  H    0.151853
    38  H    0.155750
    39  H    0.155435
    40  H    0.160292
 Sum of Mulliken charges =  -0.00000

 Dipole moment (field-independent basis, Debye):
    X=              0.0072    Y=              0.0057    Z=              0.0043  Tot=              0.0101
 Quadrupole moment (field-independent basis, Debye-Ang):
   XX=            -84.4422   YY=            -85.1927   ZZ=            -84.9988
   XY=              1.4889   XZ=             -0.3980   YZ=             -0.9506

 Normal termination of Gaussian 16 at Thu May  6 06:52:07 2021.
