 Gaussian 16, Revision A.03,
 Gaussian 16:  EM64L-G16RevA.03 25-Dec-2016

 -------------
 #p 6-31g* mp2
 -------------

 ------------------------------------------------------
 Input file generated by CHIRIPA (05-May-2021 14:51:10)
 ------------------------------------------------------
 Symbolic Z-matrix:
 Charge =  0 Multiplicity = 1

                         Standard orientation:
 ---------------------------------------------------------------------
 Center     Atomic      Atomic             Coordinates (Angstroms)
 Number     Number       Type             X           Y           Z
 ---------------------------------------------------------------------
      1          6           0        3.036259   -0.469584    0.135676
      2          6           0        3.145108   -1.576263   -0.913799
      3          6           0        2.597880   -2.915649   -0.419450
      4          1           0        3.577676   -0.776888    1.040871
      5          1           0        1.983135   -0.351695    0.426238
      6          1           0        4.197541   -1.691083   -1.203310
      7          1           0        2.603530   -1.266207   -1.816670
      8          1           0        1.541060   -2.823723   -0.148745
      9          1           0        3.144127   -3.251013    0.468101
     10          1           0        2.685559   -3.692476   -1.185421
     11          6           0        3.579231    0.875445   -0.343705
     12          6           0        3.470383    1.982125    0.705770
     13          6           0        4.017611    3.321511    0.211421
     14          1           0        4.632356    0.757557   -0.634267
     15          1           0        3.037815    1.182749   -1.248900
     16          1           0        4.011960    1.672069    1.608641
     17          1           0        2.417950    2.096944    0.995280
     18          1           0        3.471363    3.656875   -0.676130
     19          1           0        5.074431    3.229585   -0.059285
     20          1           0        3.929932    4.098338    0.977392
     21          6           0       -3.641121    0.448506    0.322927
     22          6           0       -4.472763    1.104466   -0.779830
     23          6           0       -5.133387    2.406766   -0.326638
     24          1           0       -4.284933    0.251941    1.191152
     25          1           0       -2.869303    1.154457    0.659568
     26          1           0       -5.241902    0.396984   -1.115252
     27          1           0       -3.826938    1.299319   -1.645601
     28          1           0       -4.377204    3.132766   -0.010868
     29          1           0       -5.800206    2.225305    0.522495
     30          1           0       -5.722896    2.858772   -1.130398
     31          6           0       -2.974370   -0.854368   -0.114898
     32          6           0       -2.142729   -1.510328    0.987860
     33          6           0       -1.482104   -2.812628    0.534667
     34          1           0       -3.746188   -1.560318   -0.451539
     35          1           0       -2.330558   -0.657802   -0.983122
     36          1           0       -2.788552   -1.705180    1.853631
     37          1           0       -1.373588   -0.802846    1.323282
     38          1           0       -0.815285   -2.631167   -0.314465
     39          1           0       -2.238288   -3.538628    0.218898
     40          1           0       -0.892594   -3.264633    1.338427
 ---------------------------------------------------------------------

 SCF Done:  E(RHF) =  -470.733136720     A.U. after   11 cycles
 E2 =    -0.1582687729D+01 EUMP2 =    -0.47231582444897D+03

 The electronic state is 1-A.
 Alpha  occ. eigenvalues --  -11.21662 -11.21636 -11.21619 -11.21580 -11.21453
 Alpha  occ. eigenvalues --  -11.21414 -11.21393 -11.21354 -11.21117 -11.21098
 Alpha  occ. eigenvalues --  -11.21087 -11.20957  -1.08479  -1.08430  -1.03586
 Alpha  occ. eigenvalues --   -1.03511  -0.96050  -0.95945  -0.87086  -0.86943
 Alpha  occ. eigenvalues --   -0.79673  -0.79550  -0.78290  -0.78244  -0.65157
 Alpha  occ. eigenvalues --   -0.65026  -0.61117  -0.60803  -0.59400  -0.59326
 Alpha  occ. eigenvalues --   -0.57635  -0.57581  -0.55526  -0.55079  -0.52758
 Alpha  occ. eigenvalues --   -0.52650  -0.52466  -0.52343  -0.50185  -0.49689
 Alpha  occ. eigenvalues --   -0.47981  -0.47867  -0.46762  -0.46491  -0.45862
 Alpha  occ. eigenvalues --   -0.45771  -0.45748  -0.45671  -0.43825  -0.43777
 Alpha virt. eigenvalues --    0.20895   0.23239   0.23589   0.24939   0.26115
 Alpha virt. eigenvalues --    0.26802   0.27083   0.27287   0.28092   0.29011
 Alpha virt. eigenvalues --    0.30880   0.31512   0.31591   0.31697   0.32068

 Mulliken charges:
               1
     1  C   -0.298623
     2  C   -0.299296
     3  C   -0.483949
     4  H    0.149855
     5  H    0.149042
     6  H    0.151879
     7  H    0.151031
     8  H    0.164740
     9  H    0.154609
    10  H    0.159763
    11  C   -0.298257
    12  C   -0.299550
    13  C   -0.475701
    14  H    0.149736
    15  H    0.149371
    16  H    0.152089
    17  H    0.151466
    18  H    0.155078
    19  H    0.155300
    20  H    0.160287
    21  C   -0.298306
    22  C   -0.299682
    23  C   -0.475734
    24  H    0.149880
    25  H    0.149355
    26  H    0.152066
    27  H    0.151858
    28  H    0.155190
    29  H    0.155283
    30  H    0.160376
    31  C   -0.298558
    32  C   -0.300499
    33  C   -0.480073
    34  H    0.149862
    35  H    0.149520
    36  H    0.152535
    37  H    0.151954
    38  H    0.158355
    39  H    0.155982
    40  H    0.161768
 Sum of Mulliken charges =  -0.00000

 Dipole moment (field-independent basis, Debye):
    X=             -0.0410    Y=             -0.0162    Z=              0.0143  Tot=              0.0464
 Quadrupole moment (field-independent basis, Debye-Ang):
   XX=            -83.6492   YY=            -86.3990   ZZ=            -84.6566
   XY=              0.4460   XZ=              0.2724   YZ=             -0.2462

 Normal termination of Gaussian 16 at Wed May  5 16:42:26 2021.
