 Gaussian 16, Revision A.03,
 Gaussian 16:  EM64L-G16RevA.03 25-Dec-2016

 -------------
 #p 6-31g* mp2
 -------------

 ------------------------------------------------------
 Input file generated by CHIRIPA (05-May-2021 14:51:11)
 ------------------------------------------------------
 Symbolic Z-matrix:
 Charge =  0 Multiplicity = 1

                         Standard orientation:
 ---------------------------------------------------------------------
 Center     Atomic      Atomic             Coordinates (Angstroms)
 Number     Number       Type             X           Y           Z
 ---------------------------------------------------------------------
      1          6           0       -3.220759    0.307439   -0.288367
      2          6           0       -3.575641   -0.847732    0.648449
      3          6           0       -4.542481   -1.847860    0.013816
      4          1           0       -4.142463    0.825290   -0.587092
      5          1           0       -2.778112   -0.098586   -1.208477
      6          1           0       -4.016216   -0.439569    1.567096
      7          1           0       -2.652967   -1.362775    0.945130
      8          1           0       -4.107525   -2.282496   -0.892001
      9          1           0       -5.478520   -1.354044   -0.266501
     10          1           0       -4.782667   -2.665333    0.700773
     11          6           0       -2.255038    1.315626    0.331850
     12          6           0       -1.900156    2.470797   -0.604967
     13          6           0       -0.933316    3.470925    0.029666
     14          1           0       -2.697684    1.721651    1.251960
     15          1           0       -1.333333    0.797775    0.630574
     16          1           0       -2.822830    2.985840   -0.901647
     17          1           0       -1.459580    2.062634   -1.523614
     18          1           0        0.002723    2.977109    0.309983
     19          1           0       -1.368272    3.905561    0.935483
     20          1           0       -0.693130    4.288398   -0.657291
     21          6           0        2.004043   -0.903770    0.168998
     22          6           0        1.357143   -2.126299   -0.482867
     23          6           0       -0.111003   -2.297409   -0.091634
     24          1           0        1.921970   -0.991928    1.260986
     25          1           0        1.440647   -0.004204   -0.115187
     26          1           0        1.922415   -3.023129   -0.198656
     27          1           0        1.440935   -2.035312   -1.573425
     28          1           0       -0.693981   -1.420099   -0.390073
     29          1           0       -0.209764   -2.413529    0.992508
     30          1           0       -0.553713   -3.177281   -0.568803
     31          6           0        3.471753   -0.719294   -0.212480
     32          6           0        4.118654    0.503234    0.439386
     33          6           0        5.586800    0.674344    0.048151
     34          1           0        4.035149   -1.618861    0.071705
     35          1           0        3.553826   -0.631137   -1.304468
     36          1           0        4.034861    0.412247    1.529943
     37          1           0        3.553381    1.400065    0.155173
     38          1           0        5.685561    0.790464   -1.035990
     39          1           0        6.169777   -0.202966    0.346591
     40          1           0        6.029510    1.554217    0.525321
 ---------------------------------------------------------------------

 SCF Done:  E(RHF) =  -470.732132636     A.U. after   11 cycles
 E2 =    -0.1584790760D+01 EUMP2 =    -0.47231692339608D+03

 The electronic state is 1-A.
 Alpha  occ. eigenvalues --  -11.21681 -11.21647 -11.21608 -11.21490 -11.21421
 Alpha  occ. eigenvalues --  -11.21421 -11.21358 -11.21300 -11.21144 -11.21101
 Alpha  occ. eigenvalues --  -11.21084 -11.20972  -1.08520  -1.08382  -1.03615
 Alpha  occ. eigenvalues --   -1.03465  -0.96064  -0.95936  -0.87112  -0.86928
 Alpha  occ. eigenvalues --   -0.79720  -0.79514  -0.78371  -0.78146  -0.65318
 Alpha  occ. eigenvalues --   -0.64923  -0.61031  -0.60866  -0.59422  -0.59306
 Alpha  occ. eigenvalues --   -0.57656  -0.57542  -0.55464  -0.55109  -0.52751
 Alpha  occ. eigenvalues --   -0.52661  -0.52474  -0.52345  -0.50044  -0.49819
 Alpha  occ. eigenvalues --   -0.48105  -0.47804  -0.46737  -0.46540  -0.46127
 Alpha  occ. eigenvalues --   -0.45790  -0.45693  -0.45250  -0.43852  -0.43733
 Alpha virt. eigenvalues --    0.19976   0.22555   0.23652   0.24588   0.25749
 Alpha virt. eigenvalues --    0.26593   0.26892   0.27541   0.28006   0.30191
 Alpha virt. eigenvalues --    0.30443   0.31217   0.31702   0.31876   0.32275

 Mulliken charges:
               1
     1  C   -0.300995
     2  C   -0.306545
     3  C   -0.475326
     4  H    0.150634
     5  H    0.148644
     6  H    0.150973
     7  H    0.162584
     8  H    0.154990
     9  H    0.154472
    10  H    0.159760
    11  C   -0.303972
    12  C   -0.299186
    13  C   -0.476610
    14  H    0.150040
    15  H    0.154050
    16  H    0.152272
    17  H    0.150770
    18  H    0.155487
    19  H    0.155564
    20  H    0.160151
    21  C   -0.300953
    22  C   -0.300248
    23  C   -0.483448
    24  H    0.149987
    25  H    0.150817
    26  H    0.152317
    27  H    0.151943
    28  H    0.164354
    29  H    0.155291
    30  H    0.161058
    31  C   -0.298289
    32  C   -0.299845
    33  C   -0.475758
    34  H    0.149962
    35  H    0.149845
    36  H    0.152153
    37  H    0.151960
    38  H    0.155286
    39  H    0.155259
    40  H    0.160552
 Sum of Mulliken charges =  -0.00000

 Dipole moment (field-independent basis, Debye):
    X=              0.0495    Y=             -0.0307    Z=              0.0176  Tot=              0.0608
 Quadrupole moment (field-independent basis, Debye-Ang):
   XX=            -85.8481   YY=            -84.8741   ZZ=            -84.1591
   XY=             -1.4369   XZ=             -0.0946   YZ=             -0.4774

 Normal termination of Gaussian 16 at Thu May  6 05:26:22 2021.
