 Gaussian 16, Revision A.03,
 Gaussian 16:  EM64L-G16RevA.03 25-Dec-2016

 -------------
 #p 6-31g* mp2
 -------------

 ------------------------------------------------------
 Input file generated by CHIRIPA (05-May-2021 14:51:11)
 ------------------------------------------------------
 Symbolic Z-matrix:
 Charge =  0 Multiplicity = 1

                         Standard orientation:
 ---------------------------------------------------------------------
 Center     Atomic      Atomic             Coordinates (Angstroms)
 Number     Number       Type             X           Y           Z
 ---------------------------------------------------------------------
      1          6           0       -2.471589   -0.123268   -0.253141
      2          6           0       -3.590469   -0.787501   -1.056190
      3          6           0       -3.492715   -2.313358   -1.055879
      4          1           0       -1.500791   -0.430003   -0.665947
      5          1           0       -2.502508   -0.493382    0.781004
      6          1           0       -3.558314   -0.415203   -2.088167
      7          1           0       -4.558720   -0.478998   -0.641544
      8          1           0       -3.547312   -2.702673   -0.034089
      9          1           0       -2.541222   -2.638514   -1.488931
     10          1           0       -4.302214   -2.767624   -1.635718
     11          6           0       -2.555725    1.402040   -0.244059
     12          6           0       -1.436845    2.066273    0.558991
     13          6           0       -1.534599    3.592130    0.558679
     14          1           0       -2.524806    1.772154   -1.278203
     15          1           0       -3.526523    1.708775    0.168748
     16          1           0       -0.468593    1.757770    0.144345
     17          1           0       -1.469000    1.693975    1.590967
     18          1           0       -2.486092    3.917286    0.991732
     19          1           0       -1.480001    3.981445   -0.463110
     20          1           0       -0.725100    4.046396    1.138518
     21          6           0        1.982742   -1.186558    0.295120
     22          6           0        1.085837   -1.058041    1.526798
     23          6           0        0.028735   -2.159893    1.605865
     24          1           0        1.358883   -1.163686   -0.608883
     25          1           0        2.475673   -2.168492    0.309957
     26          1           0        0.595811   -0.076094    1.510361
     27          1           0        1.711921   -1.081030    2.427967
     28          1           0        0.502493   -3.146024    1.647099
     29          1           0       -0.619959   -2.135379    0.724278
     30          1           0       -0.601313   -2.048804    2.493873
     31          6           0        3.044572   -0.092214    0.202079
     32          6           0        3.941477   -0.220731   -1.029598
     33          6           0        4.998579    0.881121   -1.108666
     34          1           0        2.551641    0.889720    0.187243
     35          1           0        3.668431   -0.115086    1.106083
     36          1           0        3.315393   -0.197742   -1.930768
     37          1           0        4.431503   -1.202678   -1.013161
     38          1           0        5.647272    0.856607   -0.227079
     39          1           0        4.524820    1.867252   -1.149899
     40          1           0        5.628627    0.770032   -1.996674
 ---------------------------------------------------------------------

 SCF Done:  E(RHF) =  -470.731445235     A.U. after   11 cycles
 E2 =    -0.1585748259D+01 EUMP2 =    -0.47231719349407D+03

 The electronic state is 1-A.
 Alpha  occ. eigenvalues --  -11.21695 -11.21650 -11.21597 -11.21459 -11.21421
 Alpha  occ. eigenvalues --  -11.21387 -11.21375 -11.21310 -11.21141 -11.21115
 Alpha  occ. eigenvalues --  -11.21068 -11.20822  -1.08542  -1.08351  -1.03608
 Alpha  occ. eigenvalues --   -1.03451  -0.96059  -0.95898  -0.87089  -0.86908
 Alpha  occ. eigenvalues --   -0.79784  -0.79430  -0.78375  -0.78185  -0.65223
 Alpha  occ. eigenvalues --   -0.64937  -0.61001  -0.60875  -0.59471  -0.59260
 Alpha  occ. eigenvalues --   -0.57670  -0.57514  -0.55332  -0.55228  -0.52741
 Alpha  occ. eigenvalues --   -0.52595  -0.52491  -0.52332  -0.49996  -0.49902
 Alpha  occ. eigenvalues --   -0.48079  -0.47903  -0.46718  -0.46468  -0.46092
 Alpha  occ. eigenvalues --   -0.45762  -0.45562  -0.45278  -0.43848  -0.43714
 Alpha virt. eigenvalues --    0.20217   0.22702   0.23581   0.24165   0.25008
 Alpha virt. eigenvalues --    0.26052   0.27309   0.27425   0.28583   0.30099
 Alpha virt. eigenvalues --    0.30898   0.31179   0.31552   0.31849   0.32320

 Mulliken charges:
               1
     1  C   -0.304827
     2  C   -0.299079
     3  C   -0.477707
     4  H    0.151682
     5  H    0.155075
     6  H    0.151687
     7  H    0.152101
     8  H    0.156906
     9  H    0.155233
    10  H    0.160764
    11  C   -0.297262
    12  C   -0.304615
    13  C   -0.475244
    14  H    0.149289
    15  H    0.149923
    16  H    0.154372
    17  H    0.153481
    18  H    0.155548
    19  H    0.155267
    20  H    0.160588
    21  C   -0.299418
    22  C   -0.307663
    23  C   -0.480707
    24  H    0.148636
    25  H    0.149690
    26  H    0.161180
    27  H    0.151080
    28  H    0.153326
    29  H    0.164575
    30  H    0.157073
    31  C   -0.299573
    32  C   -0.299497
    33  C   -0.475681
    34  H    0.149776
    35  H    0.150011
    36  H    0.151393
    37  H    0.152096
    38  H    0.155269
    39  H    0.155062
    40  H    0.160189
 Sum of Mulliken charges =  -0.00000

 Dipole moment (field-independent basis, Debye):
    X=             -0.0817    Y=              0.0365    Z=             -0.0093  Tot=              0.0900
 Quadrupole moment (field-independent basis, Debye-Ang):
   XX=            -84.5926   YY=            -86.2840   ZZ=            -83.9384
   XY=             -0.9544   XZ=             -0.0429   YZ=             -0.1822

 Normal termination of Gaussian 16 at Thu May  6 02:16:08 2021.
