 Gaussian 16, Revision A.03,
 Gaussian 16:  EM64L-G16RevA.03 25-Dec-2016

 -------------
 #p 6-31g* mp2
 -------------

 ------------------------------------------------------
 Input file generated by CHIRIPA (05-May-2021 14:57:24)
 ------------------------------------------------------
 Symbolic Z-matrix:
 Charge =  0 Multiplicity = 1

                         Standard orientation:
 ---------------------------------------------------------------------
 Center     Atomic      Atomic             Coordinates (Angstroms)
 Number     Number       Type             X           Y           Z
 ---------------------------------------------------------------------
      1          6           0        5.704007   -1.322825   -0.586020
      2          6           0        5.153851   -1.557774    0.678357
      3          6           0        4.060580   -0.810728    1.126942
      4          6           0        3.540197    0.167773    0.281350
      5          6           0        4.066137    0.425487   -0.983664
      6          6           0        5.159354   -0.333688   -1.411539
      7          1           0        6.553266   -1.907859   -0.926447
      8          1           0        5.574776   -2.325303    1.321604
      9          1           0        3.615085   -0.971769    2.101118
     10          1           0        3.624837    1.197420   -1.602365
     11          1           0        5.584560   -0.149038   -2.393960
     12          7           0        2.382828    0.965058    0.745285
     13          8           0        1.942691    1.821360   -0.018694
     14          8           0        1.937733    0.718570    1.864111
     15          6           0       -1.865512    1.588824   -0.699684
     16          6           0       -3.032399    2.033364   -0.069382
     17          6           0       -4.072442    1.141741    0.209662
     18          6           0       -3.911288   -0.193489   -0.157053
     19          6           0       -2.760886   -0.666871   -0.786160
     20          6           0       -1.733712    0.242498   -1.055433
     21          1           0       -1.062580    2.288351   -0.912656
     22          1           0       -3.137516    3.078369    0.208032
     23          1           0       -4.986569    1.458999    0.696629
     24          1           0       -2.685181   -1.714575   -1.050741
     25          1           0       -0.828620   -0.105557   -1.545037
     26          7           0       -5.005524   -1.146804    0.133186
     27          8           0       -4.838996   -2.318086   -0.199987
     28          8           0       -6.008993   -0.704680    0.688354
 ---------------------------------------------------------------------

 SCF Done:  E(RHF) =  -868.339820887     A.U. after   16 cycles
 E2 =    -0.2598493966D+01 EUMP2 =    -0.87093831485281D+03

 The electronic state is 1-A.
 Alpha  occ. eigenvalues --  -20.61775 -20.61704 -20.60045 -20.60038 -15.86771
 Alpha  occ. eigenvalues --  -15.85094 -11.31916 -11.30234 -11.28480 -11.28424
 Alpha  occ. eigenvalues --  -11.28135 -11.27421 -11.27385 -11.26836 -11.26813
 Alpha  occ. eigenvalues --  -11.26318 -11.25720 -11.25688  -1.60803  -1.59126
 Alpha  occ. eigenvalues --   -1.40364  -1.38686  -1.20063  -1.18382  -1.09495
 Alpha  occ. eigenvalues --   -1.07773  -1.05429  -1.03779  -0.96368  -0.94650
 Alpha  occ. eigenvalues --   -0.86836  -0.85163  -0.83208  -0.81517  -0.78284
 Alpha  occ. eigenvalues --   -0.76633  -0.73004  -0.72117  -0.71317  -0.71158
 Alpha  occ. eigenvalues --   -0.70447  -0.69376  -0.65715  -0.65421  -0.64023
 Alpha  occ. eigenvalues --   -0.63778  -0.62778  -0.61157  -0.55925  -0.54126
 Alpha  occ. eigenvalues --   -0.53772  -0.53511  -0.52087  -0.51870  -0.49765
 Alpha  occ. eigenvalues --   -0.49718  -0.48084  -0.48052  -0.45813  -0.44144
 Alpha  occ. eigenvalues --   -0.38026  -0.37024  -0.36256  -0.35400
 Alpha virt. eigenvalues --    0.04215   0.05937   0.10632   0.12276   0.15749
 Alpha virt. eigenvalues --    0.17509   0.20811   0.22507   0.26744   0.27647
 Alpha virt. eigenvalues --    0.28186   0.29495   0.30470   0.31898   0.32107

 Mulliken charges:
               1
     1  C   -0.169916
     2  C   -0.218386
     3  C   -0.170326
     4  C    0.156951
     5  C   -0.172309
     6  C   -0.218370
     7  H    0.228285
     8  H    0.226405
     9  H    0.277728
    10  H    0.273236
    11  H    0.225119
    12  N    0.489336
    13  O   -0.471917
    14  O   -0.453575
    15  C   -0.165270
    16  C   -0.219675
    17  C   -0.171142
    18  C    0.156994
    19  C   -0.171700
    20  C   -0.219160
    21  H    0.241360
    22  H    0.222348
    23  H    0.272599
    24  H    0.270918
    25  H    0.218872
    26  N    0.488428
    27  O   -0.464032
    28  O   -0.462802
 Sum of Mulliken charges =  -0.00000

 Dipole moment (field-independent basis, Debye):
    X=              8.4239    Y=              0.6173    Z=             -2.5601  Tot=              8.8259
 Quadrupole moment (field-independent basis, Debye-Ang):
   XX=           -106.0794   YY=           -103.8402   ZZ=           -101.6231
   XY=            -26.5370   XZ=             -2.5523   YZ=             -2.2755

 Normal termination of Gaussian 16 at Thu May  6 18:00:51 2021.
