 Gaussian 16, Revision A.03,
 Gaussian 16:  EM64L-G16RevA.03 25-Dec-2016

 -------------
 #p 6-31g* mp2
 -------------

 ------------------------------------------------------
 Input file generated by CHIRIPA (05-May-2021 14:53:15)
 ------------------------------------------------------
 Symbolic Z-matrix:
 Charge =  0 Multiplicity = 1

                         Standard orientation:
 ---------------------------------------------------------------------
 Center     Atomic      Atomic             Coordinates (Angstroms)
 Number     Number       Type             X           Y           Z
 ---------------------------------------------------------------------
      1          6           0        3.789641    1.051956    0.300113
      2          6           0        2.551144    1.898705    0.004940
      3          6           0        2.600896    3.272380    0.674518
      4          1           0        3.890842    0.928195    1.387029
      5          1           0        4.684299    1.593260   -0.037484
      6          1           0        1.658977    1.355362    0.341737
      7          1           0        2.452772    2.020303   -1.081409
      8          1           0        3.473432    3.837197    0.330620
      9          1           0        2.675126    3.168478    1.761852
     10          1           0        1.705826    3.860958    0.450273
     11          6           0        3.754644   -0.324136   -0.362364
     12          6           0        4.993140   -1.170885   -0.067190
     13          6           0        4.943388   -2.544561   -0.736768
     14          1           0        2.859986   -0.865440   -0.024767
     15          1           0        3.653443   -0.200375   -1.449280
     16          1           0        5.091513   -1.292484    1.019158
     17          1           0        5.885308   -0.627543   -0.403987
     18          1           0        4.869158   -2.440659   -1.824102
     19          1           0        4.070853   -3.109378   -0.392871
     20          1           0        5.838458   -3.133139   -0.512524
     21          6           0       -0.540026   -0.827253    0.551262
     22          6           0       -1.568047   -1.392346    1.313078
     23          6           0       -2.905277   -1.098598    1.030103
     24          6           0       -3.179682   -0.231815   -0.026626
     25          6           0       -2.177665    0.347042   -0.803914
     26          6           0       -0.847574    0.039110   -0.502944
     27          1           0        0.495994   -1.060953    0.778074
     28          1           0       -1.332162   -2.065508    2.132380
     29          1           0       -3.720748   -1.522098    1.603752
     30          1           0       -2.444004    1.014571   -1.614400
     31          1           0       -0.051254    0.479434   -1.096270
     32          7           0       -4.591569    0.086671   -0.335725
     33          8           0       -4.806980    0.853276   -1.271969
     34          8           0       -5.456061   -0.436335    0.364100
 ---------------------------------------------------------------------

 SCF Done:  E(RHF) =  -669.534716392     A.U. after   15 cycles
 E2 =    -0.2093027797D+01 EUMP2 =    -0.67162774418860D+03

 The electronic state is 1-A.
 Alpha  occ. eigenvalues --  -20.60736 -20.60731 -15.85788 -11.31154 -11.27716
 Alpha  occ. eigenvalues --  -11.27694 -11.27435 -11.26738 -11.26656 -11.22686
 Alpha  occ. eigenvalues --  -11.22599 -11.22510 -11.22397 -11.21882 -11.21876
 Alpha  occ. eigenvalues --   -1.59811  -1.39365  -1.19319  -1.09494  -1.08715
 Alpha  occ. eigenvalues --   -1.04722  -1.04476  -0.96907  -0.95556  -0.87921
 Alpha  occ. eigenvalues --   -0.86125  -0.82383  -0.80579  -0.79357  -0.77420
 Alpha  occ. eigenvalues --   -0.72007  -0.71134  -0.70460  -0.66145  -0.64964
 Alpha  occ. eigenvalues --   -0.64712  -0.62120  -0.61830  -0.60265  -0.58538
 Alpha  occ. eigenvalues --   -0.56218  -0.55216  -0.53572  -0.53333  -0.53049
 Alpha  occ. eigenvalues --   -0.52803  -0.50845  -0.48904  -0.48763  -0.48713
 Alpha  occ. eigenvalues --   -0.47607  -0.46819  -0.46779  -0.44771  -0.44759
 Alpha  occ. eigenvalues --   -0.37282  -0.36306
 Alpha virt. eigenvalues --    0.05081   0.11208   0.16565   0.19190   0.22595
 Alpha virt. eigenvalues --    0.23351   0.24586   0.25392   0.27012   0.27796
 Alpha virt. eigenvalues --    0.29805   0.30489   0.30966   0.31248   0.31657

 Mulliken charges:
               1
     1  C   -0.298074
     2  C   -0.309460
     3  C   -0.475193
     4  H    0.151289
     5  H    0.154478
     6  H    0.150944
     7  H    0.150472
     8  H    0.158216
     9  H    0.157517
    10  H    0.163394
    11  C   -0.303223
    12  C   -0.299973
    13  C   -0.476057
    14  H    0.140542
    15  H    0.152173
    16  H    0.152995
    17  H    0.155969
    18  H    0.157184
    19  H    0.153045
    20  H    0.163784
    21  C   -0.176985
    22  C   -0.219638
    23  C   -0.170956
    24  C    0.158455
    25  C   -0.172650
    26  C   -0.221930
    27  H    0.232056
    28  H    0.223500
    29  H    0.275381
    30  H    0.275586
    31  H    0.230081
    32  N    0.488028
    33  O   -0.460429
    34  O   -0.460522
 Sum of Mulliken charges =  -0.00000

 Dipole moment (field-independent basis, Debye):
    X=              5.2092    Y=             -1.0439    Z=              1.0855  Tot=              5.4225
 Quadrupole moment (field-independent basis, Debye-Ang):
   XX=           -125.3062   YY=            -93.5196   ZZ=            -91.8019
   XY=              3.8439   XZ=             -5.2704   YZ=             -3.4809

 Normal termination of Gaussian 16 at Wed May  5 20:16:38 2021.
