 Gaussian 16, Revision A.03,
 Gaussian 16:  EM64L-G16RevA.03 25-Dec-2016

 -------------
 #p 6-31g* mp2
 -------------

 ------------------------------------------------------
 Input file generated by CHIRIPA (05-May-2021 14:53:17)
 ------------------------------------------------------
 Symbolic Z-matrix:
 Charge =  0 Multiplicity = 1

                         Standard orientation:
 ---------------------------------------------------------------------
 Center     Atomic      Atomic             Coordinates (Angstroms)
 Number     Number       Type             X           Y           Z
 ---------------------------------------------------------------------
      1          6           0       -2.628442   -0.807460   -0.028200
      2          6           0       -2.101257   -1.746058   -1.114060
      3          6           0       -0.764845   -2.388962   -0.741944
      4          1           0       -1.883276   -0.023181    0.163056
      5          1           0       -2.739156   -1.368868    0.909861
      6          1           0       -1.992882   -1.183374   -2.050147
      7          1           0       -2.847847   -2.528083   -1.302890
      8          1           0       -0.861875   -2.974289    0.178154
      9          1           0       -0.002052   -1.621939   -0.573349
     10          1           0       -0.406386   -3.055993   -1.532157
     11          6           0       -3.963736   -0.157082   -0.385589
     12          6           0       -4.490922    0.781516    0.700272
     13          6           0       -5.827334    1.424420    0.328155
     14          1           0       -3.853022    0.404326   -1.323650
     15          1           0       -4.708903   -0.941361   -0.576845
     16          1           0       -3.744331    1.563541    0.889101
     17          1           0       -4.599296    0.218832    1.636358
     18          1           0       -6.590127    0.657397    0.159560
     19          1           0       -5.730304    2.009747   -0.591942
     20          1           0       -6.185793    2.091451    1.118368
     21          6           0        2.351768    2.767941   -0.611916
     22          6           0        2.923938    1.809913   -1.455317
     23          6           0        3.052722    0.482084   -1.037188
     24          6           0        2.596658    0.145606    0.236420
     25          6           0        2.022175    1.077173    1.099810
     26          6           0        1.903503    2.399163    0.660713
     27          1           0        2.255653    3.797162   -0.944873
     28          1           0        3.272939    2.093448   -2.444180
     29          1           0        3.491781   -0.279829   -1.669749
     30          1           0        1.683481    0.764374    2.080045
     31          1           0        1.458740    3.141057    1.317844
     32          7           0        2.727643   -1.257017    0.690174
     33          8           0        2.318078   -1.527996    1.816879
     34          8           0        3.237396   -2.058856   -0.089470
 ---------------------------------------------------------------------

 SCF Done:  E(RHF) =  -669.535565011     A.U. after   15 cycles
 E2 =    -0.2091846336D+01 EUMP2 =    -0.67162741134638D+03

 The electronic state is 1-A.
 Alpha  occ. eigenvalues --  -20.60759 -20.60753 -15.85811 -11.31231 -11.27802
 Alpha  occ. eigenvalues --  -11.27796 -11.27547 -11.26822 -11.26812 -11.21636
 Alpha  occ. eigenvalues --  -11.21331 -11.21314 -11.21195 -11.21133 -11.20559
 Alpha  occ. eigenvalues --   -1.59834  -1.39385  -1.19406  -1.08793  -1.08307
 Alpha  occ. eigenvalues --   -1.04809  -1.03368  -0.95800  -0.95617  -0.86811
 Alpha  occ. eigenvalues --   -0.86205  -0.82444  -0.79442  -0.78114  -0.77485
 Alpha  occ. eigenvalues --   -0.72032  -0.71175  -0.70503  -0.65054  -0.64943
 Alpha  occ. eigenvalues --   -0.64808  -0.62152  -0.60771  -0.59184  -0.57410
 Alpha  occ. eigenvalues --   -0.55307  -0.55094  -0.53141  -0.52898  -0.52475
 Alpha  occ. eigenvalues --   -0.52215  -0.49748  -0.48796  -0.48782  -0.47747
 Alpha  occ. eigenvalues --   -0.46494  -0.45653  -0.45577  -0.44774  -0.43618
 Alpha  occ. eigenvalues --   -0.37378  -0.36413
 Alpha virt. eigenvalues --    0.05041   0.11230   0.16511   0.21383   0.22926
 Alpha virt. eigenvalues --    0.24380   0.26630   0.27274   0.27496   0.28000
 Alpha virt. eigenvalues --    0.28326   0.30727   0.31450   0.31919   0.32279

 Mulliken charges:
               1
     1  C   -0.297824
     2  C   -0.300450
     3  C   -0.472328
     4  H    0.146345
     5  H    0.152013
     6  H    0.148603
     7  H    0.151780
     8  H    0.163047
     9  H    0.146986
    10  H    0.162959
    11  C   -0.297913
    12  C   -0.298943
    13  C   -0.475498
    14  H    0.147758
    15  H    0.150372
    16  H    0.148407
    17  H    0.153054
    18  H    0.156135
    19  H    0.154079
    20  H    0.159408
    21  C   -0.170850
    22  C   -0.218478
    23  C   -0.171581
    24  C    0.155267
    25  C   -0.171871
    26  C   -0.218787
    27  H    0.225751
    28  H    0.223660
    29  H    0.276214
    30  H    0.276379
    31  H    0.223728
    32  N    0.491784
    33  O   -0.459685
    34  O   -0.459522
 Sum of Mulliken charges =  -0.00000

 Dipole moment (field-independent basis, Debye):
    X=             -0.3939    Y=              4.8431    Z=             -1.5699  Tot=              5.1064
 Quadrupole moment (field-independent basis, Debye-Ang):
   XX=            -97.8417   YY=            -92.9608   ZZ=            -91.7406
   XY=             13.3856   XZ=             -6.9075   YZ=              1.7931

 Normal termination of Gaussian 16 at Wed May  5 20:25:51 2021.
