 Gaussian 16, Revision A.03,
 Gaussian 16:  EM64L-G16RevA.03 25-Dec-2016

 -------------
 #p 6-31g* mp2
 -------------

 ------------------------------------------------------
 Input file generated by CHIRIPA (05-May-2021 14:55:24)
 ------------------------------------------------------
 Symbolic Z-matrix:
 Charge =  0 Multiplicity = 1

                         Standard orientation:
 ---------------------------------------------------------------------
 Center     Atomic      Atomic             Coordinates (Angstroms)
 Number     Number       Type             X           Y           Z
 ---------------------------------------------------------------------
      1          6           0        3.516260   -1.242874   -1.710152
      2          6           0        4.177422   -0.360438   -0.849517
      3          6           0        3.517404    0.178575    0.258810
      4          6           0        2.190371   -0.188103    0.477486
      5          6           0        1.504479   -1.064822   -0.361684
      6          6           0        2.184248   -1.591635   -1.463923
      7          1           0        4.036649   -1.656854   -2.568763
      8          1           0        5.211873   -0.087811   -1.038277
      9          1           0        4.005288    0.863910    0.941234
     10          1           0        0.473206   -1.317880   -0.147548
     11          1           0        1.668269   -2.276718   -2.130611
     12          7           0        1.481185    0.376068    1.647600
     13          8           0        0.312136    0.037228    1.818328
     14          8           0        2.107803    1.146424    2.371851
     15          6           0       -2.873835    0.963687   -0.825233
     16          6           0       -1.639030    1.808654   -0.510152
     17          6           0       -1.493782    3.013133   -1.440703
     18          1           0       -2.818605    0.619410   -1.867043
     19          1           0       -3.770099    1.595125   -0.751801
     20          1           0       -0.745481    1.175481   -0.582803
     21          1           0       -1.697112    2.150801    0.531086
     22          1           0       -2.367573    3.668075   -1.362332
     23          1           0       -1.410535    2.687214   -2.482550
     24          1           0       -0.604615    3.603233   -1.197750
     25          6           0       -3.032733   -0.244110    0.096561
     26          6           0       -4.267537   -1.089075   -0.218520
     27          6           0       -4.412786   -2.293556    0.712031
     28          1           0       -2.136468   -0.875546    0.023130
     29          1           0       -3.087962    0.100168    1.138371
     30          1           0       -4.209456   -1.431223   -1.259758
     31          1           0       -5.161086   -0.455903   -0.145869
     32          1           0       -4.496033   -1.967636    1.753879
     33          1           0       -3.538995   -2.948498    0.633660
     34          1           0       -5.301952   -2.883655    0.469079
 ---------------------------------------------------------------------

 SCF Done:  E(RHF) =  -669.535180970     A.U. after   15 cycles
 E2 =    -0.2093716264D+01 EUMP2 =    -0.67162889723379D+03

 The electronic state is 1-A.
 Alpha  occ. eigenvalues --  -20.60881 -20.60852 -15.85889 -11.31278 -11.27842
 Alpha  occ. eigenvalues --  -11.27831 -11.27578 -11.26859 -11.26848 -11.21224
 Alpha  occ. eigenvalues --  -11.20912 -11.20845 -11.20794 -11.20740 -11.20587
 Alpha  occ. eigenvalues --   -1.59928  -1.39484  -1.19447  -1.08837  -1.07912
 Alpha  occ. eigenvalues --   -1.04850  -1.03048  -0.95674  -0.95518  -0.86536
 Alpha  occ. eigenvalues --   -0.86249  -0.82508  -0.79095  -0.77856  -0.77389
 Alpha  occ. eigenvalues --   -0.72116  -0.71238  -0.70555  -0.65100  -0.64901
 Alpha  occ. eigenvalues --   -0.64530  -0.62194  -0.60463  -0.58880  -0.57109
 Alpha  occ. eigenvalues --   -0.55350  -0.54829  -0.53175  -0.52945  -0.52221
 Alpha  occ. eigenvalues --   -0.51931  -0.49480  -0.48915  -0.48883  -0.47455
 Alpha  occ. eigenvalues --   -0.46150  -0.45511  -0.45147  -0.44470  -0.43290
 Alpha  occ. eigenvalues --   -0.37415  -0.36440
 Alpha virt. eigenvalues --    0.04958   0.11081   0.16447   0.20478   0.23105
 Alpha virt. eigenvalues --    0.24675   0.25243   0.27604   0.27645   0.28216
 Alpha virt. eigenvalues --    0.29355   0.31334   0.31621   0.32187   0.32288

 Mulliken charges:
               1
     1  C   -0.170359
     2  C   -0.218561
     3  C   -0.170196
     4  C    0.157261
     5  C   -0.174976
     6  C   -0.221347
     7  H    0.226014
     8  H    0.223863
     9  H    0.275892
    10  H    0.283565
    11  H    0.224117
    12  N    0.488497
    13  O   -0.458901
    14  O   -0.459748
    15  C   -0.299999
    16  C   -0.298272
    17  C   -0.475894
    18  H    0.142473
    19  H    0.148642
    20  H    0.146645
    21  H    0.164874
    22  H    0.154267
    23  H    0.149738
    24  H    0.159480
    25  C   -0.297336
    26  C   -0.299906
    27  C   -0.474162
    28  H    0.146026
    29  H    0.161401
    30  H    0.146710
    31  H    0.151769
    32  H    0.158942
    33  H    0.151571
    34  H    0.157910
 Sum of Mulliken charges =  -0.00000

 Dipole moment (field-independent basis, Debye):
    X=              2.6039    Y=             -1.9519    Z=             -3.8771  Tot=              5.0618
 Quadrupole moment (field-independent basis, Debye-Ang):
   XX=            -80.4295   YY=            -94.1321   ZZ=            -99.1226
   XY=             -3.2672   XZ=             -7.6699   YZ=              1.8685

 Normal termination of Gaussian 16 at Thu May  6 20:55:03 2021.
