 Gaussian 16, Revision A.03,
 Gaussian 16:  EM64L-G16RevA.03 25-Dec-2016

 -------------
 #p 6-31g* mp2
 -------------

 ------------------------------------------------------
 Input file generated by CHIRIPA (05-May-2021 14:51:08)
 ------------------------------------------------------
 Symbolic Z-matrix:
 Charge =  0 Multiplicity = 1

                         Standard orientation:
 ---------------------------------------------------------------------
 Center     Atomic      Atomic             Coordinates (Angstroms)
 Number     Number       Type             X           Y           Z
 ---------------------------------------------------------------------
      1          6           0        2.161881   -1.189620    0.418448
      2          6           0        1.291386   -2.113791   -0.433686
      3          6           0        0.121532   -2.711359    0.348712
      4          1           0        2.544827   -1.750433    1.282037
      5          1           0        1.538478   -0.380187    0.822900
      6          1           0        1.916525   -2.920464   -0.837537
      7          1           0        0.910623   -1.550764   -1.295449
      8          1           0       -0.525804   -1.919211    0.738659
      9          1           0        0.485813   -3.296693    1.199173
     10          1           0       -0.487576   -3.368725   -0.279554
     11          6           0        3.335540   -0.584500   -0.349720
     12          6           0        4.206035    0.339670    0.502414
     13          6           0        5.375889    0.937238   -0.279984
     14          1           0        3.958942   -1.393934   -0.754171
     15          1           0        2.952593   -0.023688   -1.213309
     16          1           0        4.586798   -0.223357    1.364178
     17          1           0        3.580896    1.146343    0.906266
     18          1           0        5.011607    1.522572   -1.130445
     19          1           0        6.023225    0.145090   -0.669931
     20          1           0        5.984997    1.594604    0.348282
     21          6           0       -2.480411    1.551143    0.231044
     22          6           0       -1.140788    1.954064   -0.386249
     23          6           0       -0.617002    3.284770    0.154736
     24          1           0       -3.218044    2.342387    0.039269
     25          1           0       -2.368570    1.485884    1.322203
     26          1           0       -1.254773    2.017195   -1.476037
     27          1           0       -0.406309    1.161682   -0.193147
     28          1           0       -0.475036    3.230750    1.238953
     29          1           0       -1.328321    4.091124   -0.051226
     30          1           0        0.341562    3.553599   -0.299957
     31          6           0       -3.017010    0.222977   -0.299772
     32          6           0       -4.356632   -0.179943    0.317520
     33          6           0       -4.880419   -1.510649   -0.223464
     34          1           0       -3.128851    0.288237   -1.390931
     35          1           0       -2.279378   -0.568266   -0.107997
     36          1           0       -5.091112    0.612439    0.124418
     37          1           0       -4.242648   -0.243075    1.407308
     38          1           0       -4.169100   -2.317003   -0.017503
     39          1           0       -5.022385   -1.456628   -1.307682
     40          1           0       -5.838983   -1.779478    0.231228
 ---------------------------------------------------------------------

 SCF Done:  E(RHF) =  -470.733164907     A.U. after   11 cycles
 E2 =    -0.1583843778D+01 EUMP2 =    -0.47231700868461D+03

 The electronic state is 1-A.
 Alpha  occ. eigenvalues --  -11.21666 -11.21641 -11.21613 -11.21593 -11.21439
 Alpha  occ. eigenvalues --  -11.21421 -11.21375 -11.21339 -11.21132 -11.21132
 Alpha  occ. eigenvalues --  -11.21079 -11.21049  -1.08485  -1.08433  -1.03564
 Alpha  occ. eigenvalues --   -1.03553  -0.96036  -0.95981  -0.87058  -0.86993
 Alpha  occ. eigenvalues --   -0.79640  -0.79606  -0.78318  -0.78226  -0.65309
 Alpha  occ. eigenvalues --   -0.64903  -0.60972  -0.60947  -0.59393  -0.59355
 Alpha  occ. eigenvalues --   -0.57656  -0.57587  -0.55482  -0.55132  -0.52710
 Alpha  occ. eigenvalues --   -0.52694  -0.52485  -0.52383  -0.50129  -0.49791
 Alpha  occ. eigenvalues --   -0.47970  -0.47917  -0.46739  -0.46657  -0.45989
 Alpha  occ. eigenvalues --   -0.45787  -0.45755  -0.45376  -0.43817  -0.43803
 Alpha virt. eigenvalues --    0.19258   0.22708   0.23989   0.24367   0.26154
 Alpha virt. eigenvalues --    0.26740   0.27260   0.27582   0.27860   0.29799
 Alpha virt. eigenvalues --    0.31004   0.31490   0.31744   0.31887   0.32246

 Mulliken charges:
               1
     1  C   -0.302064
     2  C   -0.300786
     3  C   -0.480515
     4  H    0.149943
     5  H    0.152183
     6  H    0.152483
     7  H    0.153609
     8  H    0.158340
     9  H    0.155686
    10  H    0.160662
    11  C   -0.298442
    12  C   -0.299840
    13  C   -0.475718
    14  H    0.149665
    15  H    0.150142
    16  H    0.151900
    17  H    0.152215
    18  H    0.155215
    19  H    0.155187
    20  H    0.160351
    21  C   -0.297704
    22  C   -0.305844
    23  C   -0.475589
    24  H    0.150015
    25  H    0.149185
    26  H    0.152216
    27  H    0.156185
    28  H    0.155226
    29  H    0.155762
    30  H    0.159957
    31  C   -0.307340
    32  C   -0.299064
    33  C   -0.476100
    34  H    0.149413
    35  H    0.158677
    36  H    0.151850
    37  H    0.151757
    38  H    0.156005
    39  H    0.155001
    40  H    0.160174
 Sum of Mulliken charges =  -0.00000

 Dipole moment (field-independent basis, Debye):
    X=              0.0116    Y=             -0.0137    Z=             -0.0069  Tot=              0.0192
 Quadrupole moment (field-independent basis, Debye-Ang):
   XX=            -85.2542   YY=            -85.0207   ZZ=            -84.4260
   XY=             -1.6600   XZ=              0.7568   YZ=             -0.6435

 Normal termination of Gaussian 16 at Thu May  6 00:31:10 2021.
