 Gaussian 16, Revision A.03,
 Gaussian 16:  EM64L-G16RevA.03 25-Dec-2016

 -------------
 #p 6-31g* mp2
 -------------

 ------------------------------------------------------
 Input file generated by CHIRIPA (05-May-2021 14:51:08)
 ------------------------------------------------------
 Symbolic Z-matrix:
 Charge =  0 Multiplicity = 1

                         Standard orientation:
 ---------------------------------------------------------------------
 Center     Atomic      Atomic             Coordinates (Angstroms)
 Number     Number       Type             X           Y           Z
 ---------------------------------------------------------------------
      1          6           0       -2.673597    0.609054   -0.243633
      2          6           0       -2.499859    1.589290   -1.404209
      3          6           0       -1.472775    2.682064   -1.106322
      4          1           0       -2.976809    1.164207    0.654595
      5          1           0       -1.702936    0.148338   -0.013521
      6          1           0       -3.470834    2.046994   -1.632971
      7          1           0       -2.197212    1.031715   -2.299826
      8          1           0       -0.491717    2.242517   -0.899140
      9          1           0       -1.772576    3.263564   -0.228496
     10          1           0       -1.364383    3.371689   -1.949250
     11          6           0       -3.697116   -0.489228   -0.526323
     12          6           0       -3.870854   -1.469464    0.634253
     13          6           0       -4.897938   -2.562238    0.336365
     14          1           0       -4.667777   -0.028512   -0.756436
     15          1           0       -3.393904   -1.044381   -1.424551
     16          1           0       -4.173502   -0.911889    1.529870
     17          1           0       -2.899879   -1.927167    0.863015
     18          1           0       -4.598138   -3.143738   -0.541461
     19          1           0       -5.878996   -2.122690    0.129183
     20          1           0       -5.006330   -3.251863    1.179294
     21          6           0        2.530616    0.331933    0.419655
     22          6           0        2.119785    0.701281    1.845414
     23          6           0        0.807957    1.484924    1.898384
     24          1           0        2.625586    1.249438   -0.177094
     25          1           0        1.729498   -0.260626   -0.043464
     26          1           0        2.922033    1.291795    2.306181
     27          1           0        2.025968   -0.217196    2.438889
     28          1           0       -0.008459    0.899273    1.463552
     29          1           0        0.892698    2.416838    1.330089
     30          1           0        0.533102    1.738596    2.926958
     31          6           0        3.840098   -0.451760    0.350301
     32          6           0        4.250930   -0.821107   -1.075457
     33          6           0        5.562756   -1.604750   -1.128427
     34          1           0        4.641215    0.140800    0.813420
     35          1           0        3.745128   -1.369264    0.947050
     36          1           0        4.344745    0.097371   -1.668933
     37          1           0        3.448680   -1.411621   -1.536225
     38          1           0        5.478015   -2.536664   -0.560133
     39          1           0        6.379172   -1.019099   -0.693596
     40          1           0        5.837612   -1.858422   -2.157001
 ---------------------------------------------------------------------

 SCF Done:  E(RHF) =  -470.732520975     A.U. after   11 cycles
 E2 =    -0.1583752184D+01 EUMP2 =    -0.47231627315917D+03

 The electronic state is 1-A.
 Alpha  occ. eigenvalues --  -11.21623 -11.21616 -11.21576 -11.21567 -11.21437
 Alpha  occ. eigenvalues --  -11.21404 -11.21376 -11.21344 -11.21087 -11.21082
 Alpha  occ. eigenvalues --  -11.20947 -11.20934  -1.08458  -1.08414  -1.03557
 Alpha  occ. eigenvalues --   -1.03476  -0.95988  -0.95940  -0.87010  -0.86956
 Alpha  occ. eigenvalues --   -0.79708  -0.79476  -0.78346  -0.78154  -0.65123
 Alpha  occ. eigenvalues --   -0.65019  -0.60957  -0.60887  -0.59400  -0.59283
 Alpha  occ. eigenvalues --   -0.57672  -0.57490  -0.55341  -0.55172  -0.52661
 Alpha  occ. eigenvalues --   -0.52647  -0.52499  -0.52312  -0.49998  -0.49812
 Alpha  occ. eigenvalues --   -0.48218  -0.47647  -0.46687  -0.46587  -0.45994
 Alpha  occ. eigenvalues --   -0.45754  -0.45714  -0.45299  -0.43783  -0.43770
 Alpha virt. eigenvalues --    0.21152   0.23194   0.23507   0.24859   0.25464
 Alpha virt. eigenvalues --    0.26525   0.26845   0.27732   0.27939   0.29523
 Alpha virt. eigenvalues --    0.30576   0.30982   0.31616   0.31888   0.31997

 Mulliken charges:
               1
     1  C   -0.302731
     2  C   -0.299462
     3  C   -0.479344
     4  H    0.150524
     5  H    0.152428
     6  H    0.151661
     7  H    0.151453
     8  H    0.161086
     9  H    0.155303
    10  H    0.158946
    11  C   -0.297511
    12  C   -0.299600
    13  C   -0.475683
    14  H    0.149722
    15  H    0.149426
    16  H    0.152188
    17  H    0.151167
    18  H    0.155128
    19  H    0.155319
    20  H    0.160261
    21  C   -0.299463
    22  C   -0.299567
    23  C   -0.483952
    24  H    0.150050
    25  H    0.148263
    26  H    0.151733
    27  H    0.151492
    28  H    0.163480
    29  H    0.157612
    30  H    0.159472
    31  C   -0.298176
    32  C   -0.299674
    33  C   -0.475727
    34  H    0.149892
    35  H    0.149758
    36  H    0.152075
    37  H    0.151666
    38  H    0.155189
    39  H    0.155293
    40  H    0.160302
 Sum of Mulliken charges =  -0.00000

 Dipole moment (field-independent basis, Debye):
    X=             -0.0034    Y=              0.0094    Z=              0.0085  Tot=              0.0131
 Quadrupole moment (field-independent basis, Debye-Ang):
   XX=            -85.3279   YY=            -84.7388   ZZ=            -84.7542
   XY=             -0.0489   XZ=             -0.2563   YZ=              0.0253

 Normal termination of Gaussian 16 at Wed May  5 22:55:12 2021.
