 Gaussian 16, Revision A.03,
 Gaussian 16:  EM64L-G16RevA.03 25-Dec-2016

 -------------
 #p 6-31g* mp2
 -------------

 ------------------------------------------------------
 Input file generated by CHIRIPA (05-May-2021 14:55:20)
 ------------------------------------------------------
 Symbolic Z-matrix:
 Charge =  0 Multiplicity = 1

                         Standard orientation:
 ---------------------------------------------------------------------
 Center     Atomic      Atomic             Coordinates (Angstroms)
 Number     Number       Type             X           Y           Z
 ---------------------------------------------------------------------
      1          6           0       -4.625084   -1.788914    0.582202
      2          6           0       -3.407921   -1.898263   -0.098295
      3          6           0       -2.661672   -0.756878   -0.406356
      4          6           0       -3.164693    0.483599   -0.017157
      5          6           0       -4.373896    0.625188    0.661866
      6          6           0       -5.103344   -0.529758    0.959445
      7          1           0       -5.198263   -2.680837    0.817439
      8          1           0       -3.034045   -2.874841   -0.392502
      9          1           0       -1.716307   -0.812729   -0.932268
     10          1           0       -4.720749    1.612384    0.942143
     11          1           0       -6.048287   -0.441817    1.488023
     12          7           0       -2.383566    1.699110   -0.337739
     13          8           0       -2.848549    2.780410    0.016124
     14          8           0       -1.321127    1.547512   -0.936803
     15          6           0        4.819133    0.094517   -0.146821
     16          6           0        5.917394   -0.111364    0.896932
     17          6           0        7.118172    0.810266    0.681247
     18          1           0        5.237667   -0.074524   -1.148420
     19          1           0        4.488248    1.141960   -0.119022
     20          1           0        6.245142   -1.158440    0.868125
     21          1           0        5.496150    0.057999    1.896175
     22          1           0        6.811793    1.860158    0.730850
     23          1           0        7.565040    0.636807   -0.303041
     24          1           0        7.891223    0.646309    1.438460
     25          6           0        3.612054   -0.819683    0.055482
     26          6           0        2.513793   -0.613802   -0.988271
     27          6           0        1.313015   -1.535433   -0.772585
     28          1           0        3.942940   -1.867126    0.027683
     29          1           0        3.193520   -0.650642    1.057081
     30          1           0        2.935038   -0.783166   -1.987513
     31          1           0        2.186046    0.433274   -0.959464
     32          1           0        0.866147   -1.361973    0.211702
     33          1           0        1.619394   -2.585324   -0.822190
     34          1           0        0.539965   -1.371475   -1.529799
 ---------------------------------------------------------------------

 SCF Done:  E(RHF) =  -669.535713272     A.U. after   15 cycles
 E2 =    -0.2091288292D+01 EUMP2 =    -0.67162700156414D+03

 The electronic state is 1-A.
 Alpha  occ. eigenvalues --  -20.60775 -20.60769 -15.85822 -11.31143 -11.27727
 Alpha  occ. eigenvalues --  -11.27662 -11.27467 -11.26737 -11.26711 -11.21346
 Alpha  occ. eigenvalues --  -11.21257 -11.21134 -11.21115 -11.21048 -11.20819
 Alpha  occ. eigenvalues --   -1.59847  -1.39401  -1.19321  -1.08728  -1.08151
 Alpha  occ. eigenvalues --   -1.04718  -1.03300  -0.95807  -0.95559  -0.86838
 Alpha  occ. eigenvalues --   -0.86114  -0.82398  -0.79366  -0.77950  -0.77446
 Alpha  occ. eigenvalues --   -0.72044  -0.71168  -0.70439  -0.64975  -0.64792
 Alpha  occ. eigenvalues --   -0.64712  -0.62106  -0.60675  -0.59154  -0.57387
 Alpha  occ. eigenvalues --   -0.55257  -0.55059  -0.53057  -0.52939  -0.52378
 Alpha  occ. eigenvalues --   -0.52215  -0.49721  -0.48798  -0.48796  -0.47683
 Alpha  occ. eigenvalues --   -0.46353  -0.45510  -0.45396  -0.44812  -0.43565
 Alpha  occ. eigenvalues --   -0.37311  -0.36317
 Alpha virt. eigenvalues --    0.05067   0.11310   0.16568   0.20937   0.23148
 Alpha virt. eigenvalues --    0.24180   0.26466   0.26964   0.27724   0.27938
 Alpha virt. eigenvalues --    0.29153   0.30602   0.31538   0.31595   0.32176

 Mulliken charges:
               1
     1  C   -0.170452
     2  C   -0.222551
     3  C   -0.176631
     4  C    0.156019
     5  C   -0.170114
     6  C   -0.219184
     7  H    0.225452
     8  H    0.224126
     9  H    0.288558
    10  H    0.275345
    11  H    0.223217
    12  N    0.487244
    13  O   -0.460322
    14  O   -0.462053
    15  C   -0.298886
    16  C   -0.299476
    17  C   -0.475712
    18  H    0.149175
    19  H    0.153313
    20  H    0.150400
    21  H    0.151877
    22  H    0.156441
    23  H    0.154816
    24  H    0.159253
    25  C   -0.299050
    26  C   -0.300734
    27  C   -0.480011
    28  H    0.146539
    29  H    0.149887
    30  H    0.150981
    31  H    0.167909
    32  H    0.155430
    33  H    0.151700
    34  H    0.157495
 Sum of Mulliken charges =  -0.00000

 Dipole moment (field-independent basis, Debye):
    X=             -2.7134    Y=             -4.1769    Z=              1.1168  Tot=              5.1046
 Quadrupole moment (field-independent basis, Debye-Ang):
   XX=            -76.1130   YY=            -97.8246   ZZ=            -94.2626
   XY=              9.6104   XZ=             -5.7545   YZ=              2.4079

 Normal termination of Gaussian 16 at Wed May  5 17:23:11 2021.
