 Gaussian 16, Revision A.03,
 Gaussian 16:  EM64L-G16RevA.03 25-Dec-2016

 -------------
 #p 6-31g* mp2
 -------------

 ------------------------------------------------------
 Input file generated by CHIRIPA (05-May-2021 14:51:09)
 ------------------------------------------------------
 Symbolic Z-matrix:
 Charge =  0 Multiplicity = 1

                         Standard orientation:
 ---------------------------------------------------------------------
 Center     Atomic      Atomic             Coordinates (Angstroms)
 Number     Number       Type             X           Y           Z
 ---------------------------------------------------------------------
      1          6           0        3.995588    0.084880   -0.364011
      2          6           0        5.251997    0.207934    0.498705
      3          6           0        6.407979    0.889309   -0.234253
      4          1           0        4.237756   -0.479721   -1.274794
      5          1           0        3.684092    1.086660   -0.690817
      6          1           0        5.560233   -0.793658    0.824927
      7          1           0        5.006763    0.772142    1.407630
      8          1           0        6.124336    1.899776   -0.545866
      9          1           0        6.680950    0.325080   -1.131880
     10          1           0        7.295963    0.966845    0.400832
     11          6           0        2.831212   -0.594221    0.354862
     12          6           0        1.574802   -0.717275   -0.507853
     13          6           0        0.418820   -1.398651    0.225104
     14          1           0        3.142707   -1.596002    0.681668
     15          1           0        2.589043   -0.029621    1.265645
     16          1           0        1.820036   -1.281484   -1.416778
     17          1           0        1.266566    0.284316   -0.834076
     18          1           0        0.145849   -0.834422    1.122731
     19          1           0        0.702464   -2.409118    0.536718
     20          1           0       -0.469164   -1.476187   -0.409981
     21          6           0       -3.327162   -0.419338    0.353441
     22          6           0       -3.620500   -1.614055   -0.554627
     23          6           0       -3.443630   -2.955409    0.157609
     24          1           0       -2.300332   -0.500664    0.735478
     25          1           0       -3.990455   -0.461180    1.228476
     26          1           0       -2.957803   -1.569214   -1.428376
     27          1           0       -4.646686   -1.529775   -0.934698
     28          1           0       -4.115767   -3.025812    1.018931
     29          1           0       -2.417288   -3.065477    0.522449
     30          1           0       -3.658368   -3.795771   -0.509878
     31          6           0       -3.499637    0.928679   -0.344292
     32          6           0       -3.206300    2.123397    0.563775
     33          6           0       -3.383169    3.464751   -0.148460
     34          1           0       -2.836344    0.970521   -1.219328
     35          1           0       -4.526467    1.010006   -0.726329
     36          1           0       -2.180113    2.039116    0.943847
     37          1           0       -3.868996    2.078557    1.437525
     38          1           0       -4.409511    3.574818   -0.513300
     39          1           0       -2.711032    3.535155   -1.009783
     40          1           0       -3.168431    4.305113    0.519027
 ---------------------------------------------------------------------

 SCF Done:  E(RHF) =  -470.732122232     A.U. after   11 cycles
 E2 =    -0.1584005907D+01 EUMP2 =    -0.47231612813879D+03

 The electronic state is 1-A.
 Alpha  occ. eigenvalues --  -11.21699 -11.21640 -11.21577 -11.21548 -11.21468
 Alpha  occ. eigenvalues --  -11.21405 -11.21322 -11.21181 -11.21175 -11.21101
 Alpha  occ. eigenvalues --  -11.21057 -11.20977  -1.08504  -1.08360  -1.03623
 Alpha  occ. eigenvalues --   -1.03469  -0.96068  -0.95917  -0.87107  -0.86927
 Alpha  occ. eigenvalues --   -0.79709  -0.79526  -0.78320  -0.78153  -0.65186
 Alpha  occ. eigenvalues --   -0.65015  -0.61026  -0.60983  -0.59395  -0.59228
 Alpha  occ. eigenvalues --   -0.57649  -0.57535  -0.55491  -0.55085  -0.52767
 Alpha  occ. eigenvalues --   -0.52621  -0.52482  -0.52346  -0.50126  -0.49747
 Alpha  occ. eigenvalues --   -0.47989  -0.47854  -0.46749  -0.46572  -0.45895
 Alpha  occ. eigenvalues --   -0.45787  -0.45695  -0.45516  -0.43775  -0.43714
 Alpha virt. eigenvalues --    0.20897   0.23039   0.23893   0.24707   0.25841
 Alpha virt. eigenvalues --    0.26525   0.26717   0.27680   0.27917   0.29663
 Alpha virt. eigenvalues --    0.30470   0.30924   0.31520   0.31861   0.32176

 Mulliken charges:
               1
     1  C   -0.298333
     2  C   -0.299688
     3  C   -0.475747
     4  H    0.149796
     5  H    0.149596
     6  H    0.152035
     7  H    0.152030
     8  H    0.155251
     9  H    0.155242
    10  H    0.160408
    11  C   -0.298967
    12  C   -0.300059
    13  C   -0.483236
    14  H    0.149850
    15  H    0.149900
    16  H    0.152427
    17  H    0.151823
    18  H    0.156330
    19  H    0.155898
    20  H    0.168066
    21  C   -0.306935
    22  C   -0.301166
    23  C   -0.479069
    24  H    0.160338
    25  H    0.148740
    26  H    0.150264
    27  H    0.152470
    28  H    0.154997
    29  H    0.159684
    30  H    0.159599
    31  C   -0.297695
    32  C   -0.299473
    33  C   -0.475624
    34  H    0.148603
    35  H    0.149387
    36  H    0.151104
    37  H    0.151963
    38  H    0.155280
    39  H    0.154943
    40  H    0.159969
 Sum of Mulliken charges =  -0.00000

 Dipole moment (field-independent basis, Debye):
    X=              0.0684    Y=             -0.0208    Z=              0.0183  Tot=              0.0738
 Quadrupole moment (field-independent basis, Debye-Ang):
   XX=            -84.7779   YY=            -85.3160   ZZ=            -84.9149
   XY=             -0.6958   XZ=             -0.1032   YZ=              0.8786

 Normal termination of Gaussian 16 at Wed May  5 19:44:46 2021.
