 Gaussian 16, Revision A.03,
 Gaussian 16:  EM64L-G16RevA.03 25-Dec-2016

 -------------
 #p 6-31g* mp2
 -------------

 ------------------------------------------------------
 Input file generated by CHIRIPA (05-May-2021 14:57:22)
 ------------------------------------------------------
 Symbolic Z-matrix:
 Charge =  0 Multiplicity = 1

                         Standard orientation:
 ---------------------------------------------------------------------
 Center     Atomic      Atomic             Coordinates (Angstroms)
 Number     Number       Type             X           Y           Z
 ---------------------------------------------------------------------
      1          6           0       -1.784080    2.338459   -0.146877
      2          6           0       -1.491805    1.586077    0.995497
      3          6           0       -2.030510    0.306506    1.159941
      4          6           0       -2.861393   -0.191940    0.157705
      5          6           0       -3.171335    0.533205   -0.991813
      6          6           0       -2.621436    1.810552   -1.135143
      7          1           0       -1.361254    3.331597   -0.266420
      8          1           0       -0.841817    1.993511    1.764626
      9          1           0       -1.820776   -0.297556    2.034320
     10          1           0       -3.822583    0.100233   -1.741365
     11          1           0       -2.850154    2.392598   -2.023375
     12          7           0       -3.437621   -1.545387    0.320619
     13          8           0       -4.166836   -1.961874   -0.576833
     14          8           0       -3.149142   -2.164105    1.342678
     15          6           0        1.950140    2.340662    0.141598
     16          6           0        2.817819    1.785906    1.088117
     17          6           0        3.276464    0.472757    0.947283
     18          6           0        2.845339   -0.260420   -0.157195
     19          6           0        1.981335    0.264171   -1.117190
     20          6           0        1.535398    1.579366   -0.956100
     21          1           0        1.598789    3.361542    0.258868
     22          1           0        3.141569    2.374796    1.941603
     23          1           0        3.948622    0.018466    1.665087
     24          1           0        1.676057   -0.347540   -1.957448
     25          1           0        0.861591    2.007596   -1.692747
     26          7           0        3.324159   -1.651676   -0.317012
     27          8           0        2.929603   -2.276772   -1.298956
     28          8           0        4.084947   -2.090700    0.542695
 ---------------------------------------------------------------------

 SCF Done:  E(RHF) =  -868.334651444     A.U. after   16 cycles
 E2 =    -0.2603789092D+01 EUMP2 =    -0.87093844053616D+03

 The electronic state is 1-A.
 Alpha  occ. eigenvalues --  -20.61045 -20.61035 -20.61033 -20.61022 -15.86100
 Alpha  occ. eigenvalues --  -15.86091 -11.31670 -11.31663 -11.28252 -11.28235
 Alpha  occ. eigenvalues --  -11.28190 -11.28182 -11.28128 -11.28114 -11.27383
 Alpha  occ. eigenvalues --  -11.27381 -11.27317 -11.27306  -1.60111  -1.60101
 Alpha  occ. eigenvalues --   -1.39659  -1.39649  -1.19910  -1.19821  -1.09350
 Alpha  occ. eigenvalues --   -1.09170  -1.05304  -1.05261  -0.96115  -0.95989
 Alpha  occ. eigenvalues --   -0.86729  -0.86662  -0.82879  -0.82848  -0.77858
 Alpha  occ. eigenvalues --   -0.77845  -0.72320  -0.72307  -0.71436  -0.71424
 Alpha  occ. eigenvalues --   -0.71216  -0.70888  -0.65559  -0.65493  -0.65354
 Alpha  occ. eigenvalues --   -0.65264  -0.62632  -0.62613  -0.55949  -0.55826
 Alpha  occ. eigenvalues --   -0.54155  -0.53461  -0.53358  -0.53056  -0.49093
 Alpha  occ. eigenvalues --   -0.49081  -0.49057  -0.49048  -0.45019  -0.45008
 Alpha  occ. eigenvalues --   -0.38597  -0.37522  -0.37030  -0.36318
 Alpha virt. eigenvalues --    0.04573   0.04681   0.10351   0.11129   0.15915
 Alpha virt. eigenvalues --    0.16131   0.19117   0.21971   0.25663   0.26181
 Alpha virt. eigenvalues --    0.27406   0.29569   0.29907   0.30828   0.32479

 Mulliken charges:
               1
     1  C   -0.176950
     2  C   -0.207443
     3  C   -0.171277
     4  C    0.159782
     5  C   -0.170951
     6  C   -0.222126
     7  H    0.217146
     8  H    0.221248
     9  H    0.278306
    10  H    0.277642
    11  H    0.222965
    12  N    0.488130
    13  O   -0.458829
    14  O   -0.457226
    15  C   -0.178337
    16  C   -0.220846
    17  C   -0.171435
    18  C    0.159871
    19  C   -0.171491
    20  C   -0.206774
    21  H    0.217552
    22  H    0.223335
    23  H    0.277484
    24  H    0.278146
    25  H    0.220069
    26  N    0.488015
    27  O   -0.457154
    28  O   -0.458852
 Sum of Mulliken charges =  -0.00000

 Dipole moment (field-independent basis, Debye):
    X=              0.3277    Y=              9.3185    Z=              0.0041  Tot=              9.3242
 Quadrupole moment (field-independent basis, Debye-Ang):
   XX=           -124.3585   YY=           -111.1249   ZZ=            -98.0629
   XY=              0.3552   XZ=              8.6614   YZ=             -0.0799

 Normal termination of Gaussian 16 at Thu May  6 22:38:46 2021.
