 Gaussian 16, Revision A.03,
 Gaussian 16:  EM64L-G16RevA.03 25-Dec-2016

 -------------
 #p 6-31g* mp2
 -------------

 ------------------------------------------------------
 Input file generated by CHIRIPA (05-May-2021 14:53:11)
 ------------------------------------------------------
 Symbolic Z-matrix:
 Charge =  0 Multiplicity = 1

                         Standard orientation:
 ---------------------------------------------------------------------
 Center     Atomic      Atomic             Coordinates (Angstroms)
 Number     Number       Type             X           Y           Z
 ---------------------------------------------------------------------
      1          6           0       -3.283697   -0.975893   -0.163700
      2          6           0       -2.062300   -0.746537    0.727125
      3          6           0       -0.983376   -1.813126    0.537112
      4          1           0       -3.704810   -1.967711    0.050556
      5          1           0       -2.964224   -0.992401   -1.214918
      6          1           0       -2.384184   -0.729085    1.776268
      7          1           0       -1.644160    0.244929    0.510858
      8          1           0       -0.634101   -1.827228   -0.500389
      9          1           0       -1.378329   -2.806776    0.772210
     10          1           0       -0.119393   -1.629812    1.183478
     11          6           0       -4.371026    0.082200    0.014858
     12          6           0       -5.592423   -0.147156   -0.875967
     13          6           0       -6.671347    0.919433   -0.685955
     14          1           0       -4.690500    0.098709    1.066076
     15          1           0       -3.949914    1.074019   -0.199399
     16          1           0       -6.010563   -1.138621   -0.659701
     17          1           0       -5.270540   -0.164607   -1.925111
     18          1           0       -6.276394    1.913084   -0.921053
     19          1           0       -7.020622    0.933536    0.351547
     20          1           0       -7.535331    0.736119   -1.332321
     21          6           0        1.215380    1.411293    1.503113
     22          6           0        1.582148    2.008260    0.292480
     23          6           0        2.564264    1.428550   -0.516181
     24          6           0        3.161702    0.246409   -0.081553
     25          6           0        2.817984   -0.372445    1.119350
     26          6           0        1.833379    0.224938    1.911963
     27          1           0        0.451482    1.868490    2.125067
     28          1           0        1.103894    2.929613   -0.027561
     29          1           0        2.867353    1.869454   -1.458071
     30          1           0        3.312556   -1.290753    1.411797
     31          1           0        1.550549   -0.240903    2.851668
     32          7           0        4.202742   -0.376657   -0.929151
     33          8           0        4.714037   -1.418244   -0.523798
     34          8           0        4.487702    0.188367   -1.982803
 ---------------------------------------------------------------------

 SCF Done:  E(RHF) =  -669.534663990     A.U. after   15 cycles
 E2 =    -0.2093130619D+01 EUMP2 =    -0.67162779460948D+03

 The electronic state is 1-A.
 Alpha  occ. eigenvalues --  -20.60802 -20.60797 -15.85857 -11.31248 -11.27821
 Alpha  occ. eigenvalues --  -11.27814 -11.27564 -11.26850 -11.26830 -11.22051
 Alpha  occ. eigenvalues --  -11.21933 -11.21801 -11.21731 -11.21390 -11.21278
 Alpha  occ. eigenvalues --   -1.59877  -1.39430  -1.19434  -1.08852  -1.08782
 Alpha  occ. eigenvalues --   -1.04851  -1.03880  -0.96315  -0.95647  -0.87336
 Alpha  occ. eigenvalues --   -0.86236  -0.82485  -0.79959  -0.78637  -0.77526
 Alpha  occ. eigenvalues --   -0.72076  -0.71200  -0.70527  -0.65442  -0.65086
 Alpha  occ. eigenvalues --   -0.64856  -0.62195  -0.61284  -0.59743  -0.57984
 Alpha  occ. eigenvalues --   -0.55608  -0.55332  -0.53502  -0.52941  -0.52841
 Alpha  occ. eigenvalues --   -0.52481  -0.50248  -0.48837  -0.48828  -0.48276
 Alpha  occ. eigenvalues --   -0.47001  -0.46175  -0.46103  -0.44830  -0.44157
 Alpha  occ. eigenvalues --   -0.37365  -0.36365
 Alpha virt. eigenvalues --    0.04990   0.11138   0.16388   0.20897   0.22604
 Alpha virt. eigenvalues --    0.24138   0.26166   0.26689   0.26860   0.28062
 Alpha virt. eigenvalues --    0.28484   0.30554   0.31097   0.31764   0.32168

 Mulliken charges:
               1
     1  C   -0.298197
     2  C   -0.301188
     3  C   -0.477026
     4  H    0.151205
     5  H    0.151644
     6  H    0.146883
     7  H    0.148278
     8  H    0.158472
     9  H    0.154534
    10  H    0.159664
    11  C   -0.297912
    12  C   -0.299932
    13  C   -0.475784
    14  H    0.148514
    15  H    0.146766
    16  H    0.153096
    17  H    0.153057
    18  H    0.154370
    19  H    0.154962
    20  H    0.161628
    21  C   -0.166967
    22  C   -0.219885
    23  C   -0.170705
    24  C    0.159172
    25  C   -0.168999
    26  C   -0.220799
    27  H    0.227143
    28  H    0.223745
    29  H    0.275832
    30  H    0.276248
    31  H    0.224559
    32  N    0.488042
    33  O   -0.460039
    34  O   -0.460381
 Sum of Mulliken charges =  -0.00000

 Dipole moment (field-independent basis, Debye):
    X=             -3.6178    Y=              2.2026    Z=              2.9527  Tot=              5.1632
 Quadrupole moment (field-independent basis, Debye-Ang):
   XX=           -119.1597   YY=            -91.4737   ZZ=            -92.8551
   XY=              6.5319   XZ=             10.1114   YZ=             -2.6273

 Normal termination of Gaussian 16 at Wed May  5 20:03:33 2021.
