 Gaussian 16, Revision A.03,
 Gaussian 16:  EM64L-G16RevA.03 25-Dec-2016

 -------------
 #p 6-31g* mp2
 -------------

 ------------------------------------------------------
 Input file generated by CHIRIPA (05-May-2021 14:57:23)
 ------------------------------------------------------
 Symbolic Z-matrix:
 Charge =  0 Multiplicity = 1

                         Standard orientation:
 ---------------------------------------------------------------------
 Center     Atomic      Atomic             Coordinates (Angstroms)
 Number     Number       Type             X           Y           Z
 ---------------------------------------------------------------------
      1          6           0       -4.442818    1.247579    0.625846
      2          6           0       -4.203388    0.879385   -0.702171
      3          6           0       -3.224588   -0.070124   -1.010281
      4          6           0       -2.500582   -0.633857    0.039152
      5          6           0       -2.715756   -0.287810    1.372284
      6          6           0       -3.699548    0.663835    1.657017
      7          1           0       -5.205112    1.986010    0.856113
      8          1           0       -4.779092    1.331076   -1.505032
      9          1           0       -3.018603   -0.373515   -2.029566
     10          1           0       -2.125754   -0.755489    2.151125
     11          1           0       -3.883330    0.947856    2.689297
     12          7           0       -1.461728   -1.640191   -0.274656
     13          8           0       -0.837480   -2.122141    0.668040
     14          8           0       -1.291394   -1.927950   -1.457372
     15          6           0        1.644789    2.703738   -0.650030
     16          6           0        1.276832    1.564021   -1.372646
     17          6           0        1.839413    0.320085   -1.071522
     18          6           0        2.771085    0.251858   -0.036814
     19          6           0        3.158130    1.369253    0.701370
     20          6           0        2.582610    2.602895    0.382850
     21          1           0        1.202737    3.666058   -0.890707
     22          1           0        0.548757    1.639355   -2.175315
     23          1           0        1.572589   -0.578246   -1.614867
     24          1           0        3.886545    1.262731    1.496029
     25          1           0        2.870261    3.486336    0.945729
     26          7           0        3.373513   -1.059591    0.291180
     27          8           0        4.192095   -1.093167    1.207387
     28          8           0        3.015708   -2.029097   -0.374155
 ---------------------------------------------------------------------

 SCF Done:  E(RHF) =  -868.337451455     A.U. after   16 cycles
 E2 =    -0.2600817628D+01 EUMP2 =    -0.87093826908277D+03

 The electronic state is 1-A.
 Alpha  occ. eigenvalues --  -20.61081 -20.61012 -20.59875 -20.59784 -15.86089
 Alpha  occ. eigenvalues --  -15.84892 -11.31526 -11.30500 -11.28131 -11.28061
 Alpha  occ. eigenvalues --  -11.27847 -11.27176 -11.27147 -11.27098 -11.27000
 Alpha  occ. eigenvalues --  -11.26989 -11.26262 -11.26200  -1.60112  -1.58900
 Alpha  occ. eigenvalues --   -1.39666  -1.38444  -1.19701  -1.18727  -1.09081
 Alpha  occ. eigenvalues --   -1.08091  -1.05113  -1.04166  -0.95902  -0.94872
 Alpha  occ. eigenvalues --   -0.86506  -0.85551  -0.82732  -0.81700  -0.77774
 Alpha  occ. eigenvalues --   -0.76681  -0.72288  -0.71473  -0.71108  -0.70804
 Alpha  occ. eigenvalues --   -0.70216  -0.69830  -0.65350  -0.65111  -0.64378
 Alpha  occ. eigenvalues --   -0.64180  -0.62457  -0.61475  -0.55605  -0.54702
 Alpha  occ. eigenvalues --   -0.53444  -0.53202  -0.52500  -0.52251  -0.49060
 Alpha  occ. eigenvalues --   -0.49029  -0.47907  -0.47839  -0.45060  -0.43789
 Alpha  occ. eigenvalues --   -0.37690  -0.36754  -0.36722  -0.35793
 Alpha virt. eigenvalues --    0.04728   0.05851   0.10914   0.11853   0.16206
 Alpha virt. eigenvalues --    0.17261   0.21057   0.21960   0.26941   0.27625
 Alpha virt. eigenvalues --    0.28157   0.28939   0.30684   0.31412   0.32301

 Mulliken charges:
               1
     1  C   -0.171361
     2  C   -0.219168
     3  C   -0.174440
     4  C    0.159536
     5  C   -0.170105
     6  C   -0.218698
     7  H    0.225972
     8  H    0.223031
     9  H    0.273638
    10  H    0.278311
    11  H    0.224671
    12  N    0.486976
    13  O   -0.450497
    14  O   -0.465506
    15  C   -0.171679
    16  C   -0.222755
    17  C   -0.176759
    18  C    0.160547
    19  C   -0.171701
    20  C   -0.219836
    21  H    0.220865
    22  H    0.220668
    23  H    0.291708
    24  H    0.273958
    25  H    0.219785
    26  N    0.488350
    27  O   -0.466451
    28  O   -0.449060
 Sum of Mulliken charges =  -0.00000

 Dipole moment (field-independent basis, Debye):
    X=             -5.8654    Y=              7.8237    Z=              0.0210  Tot=              9.7782
 Quadrupole moment (field-independent basis, Debye-Ang):
   XX=            -98.2217   YY=           -107.4775   ZZ=            -97.7052
   XY=              6.2994   XZ=             -3.1575   YZ=              0.3168

 Normal termination of Gaussian 16 at Thu May  6 08:11:25 2021.
