 Gaussian 16, Revision A.03,
 Gaussian 16:  EM64L-G16RevA.03 25-Dec-2016

 -------------
 #p 6-31g* mp2
 -------------

 ------------------------------------------------------
 Input file generated by CHIRIPA (05-May-2021 14:55:18)
 ------------------------------------------------------
 Symbolic Z-matrix:
 Charge =  0 Multiplicity = 1

                         Standard orientation:
 ---------------------------------------------------------------------
 Center     Atomic      Atomic             Coordinates (Angstroms)
 Number     Number       Type             X           Y           Z
 ---------------------------------------------------------------------
      1          6           0       -5.575476    1.747543    0.232746
      2          6           0       -4.247385    2.185029    0.196652
      3          6           0       -3.203041    1.270899    0.028548
      4          6           0       -3.524321   -0.079400   -0.100922
      5          6           0       -4.837449   -0.546269   -0.069045
      6          6           0       -5.865757    0.385691    0.100016
      7          1           0       -6.380519    2.464586    0.363705
      8          1           0       -4.018983    3.242055    0.299475
      9          1           0       -2.165983    1.582241   -0.002998
     10          1           0       -5.033882   -1.606347   -0.174245
     11          1           0       -6.896237    0.043067    0.127670
     12          7           0       -2.427209   -1.056586   -0.279393
     13          8           0       -2.736640   -2.240813   -0.391176
     14          8           0       -1.278635   -0.619775   -0.304116
     15          6           0        4.297673   -0.570716    0.501590
     16          6           0        2.972558   -0.903470   -0.184944
     17          6           0        2.093457   -1.837068    0.647744
     18          1           0        4.841520   -1.503062    0.706303
     19          1           0        4.091394   -0.108580    1.476923
     20          1           0        3.181271   -1.363578   -1.159293
     21          1           0        2.431889    0.029789   -0.388219
     22          1           0        1.856137   -1.381991    1.614793
     23          1           0        2.609776   -2.783276    0.839338
     24          1           0        1.151268   -2.061829    0.138213
     25          6           0        5.187480    0.361686   -0.318531
     26          6           0        6.512596    0.694440    0.368004
     27          6           0        7.391696    1.628038   -0.464684
     28          1           0        5.393760   -0.100449   -1.293864
     29          1           0        4.643633    1.294032   -0.523243
     30          1           0        7.053263   -0.238820    0.571279
     31          1           0        6.303882    1.154548    1.342353
     32          1           0        6.875377    2.574245   -0.656279
     33          1           0        7.629017    1.172961   -1.431734
     34          1           0        8.333886    1.852797    0.044847
 ---------------------------------------------------------------------

 SCF Done:  E(RHF) =  -669.536222237     A.U. after   15 cycles
 E2 =    -0.2090890938D+01 EUMP2 =    -0.67162711317509D+03

 The electronic state is 1-A.
 Alpha  occ. eigenvalues --  -20.60985 -20.60963 -15.85999 -11.31312 -11.27873
 Alpha  occ. eigenvalues --  -11.27869 -11.27609 -11.26878 -11.26868 -11.21057
 Alpha  occ. eigenvalues --  -11.20680 -11.20641 -11.20449 -11.20312 -11.19325
 Alpha  occ. eigenvalues --   -1.60033  -1.39589  -1.19478  -1.08885  -1.07576
 Alpha  occ. eigenvalues --   -1.04873  -1.02564  -0.95731  -0.94995  -0.86275
 Alpha  occ. eigenvalues --   -0.86019  -0.82561  -0.78683  -0.77616  -0.77341
 Alpha  occ. eigenvalues --   -0.72223  -0.71343  -0.70587  -0.65134  -0.64877
 Alpha  occ. eigenvalues --   -0.64224  -0.62220  -0.59979  -0.58427  -0.56566
 Alpha  occ. eigenvalues --   -0.55377  -0.54319  -0.53205  -0.52966  -0.51651
 Alpha  occ. eigenvalues --   -0.51439  -0.49030  -0.48976  -0.48899  -0.46948
 Alpha  occ. eigenvalues --   -0.45760  -0.45003  -0.44880  -0.44795  -0.42776
 Alpha  occ. eigenvalues --   -0.37457  -0.36473
 Alpha virt. eigenvalues --    0.04915   0.11182   0.16416   0.21312   0.23626
 Alpha virt. eigenvalues --    0.25328   0.27230   0.27426   0.28134   0.28344
 Alpha virt. eigenvalues --    0.29064   0.30885   0.32247   0.32418   0.32566

 Mulliken charges:
               1
     1  C   -0.170552
     2  C   -0.218543
     3  C   -0.170757
     4  C    0.157882
     5  C   -0.170595
     6  C   -0.218589
     7  H    0.226053
     8  H    0.223860
     9  H    0.275729
    10  H    0.275940
    11  H    0.223883
    12  N    0.489582
    13  O   -0.459145
    14  O   -0.460133
    15  C   -0.297235
    16  C   -0.298095
    17  C   -0.482046
    18  H    0.147546
    19  H    0.146544
    20  H    0.149048
    21  H    0.152567
    22  H    0.148158
    23  H    0.145676
    24  H    0.189568
    25  C   -0.297150
    26  C   -0.298827
    27  C   -0.475109
    28  H    0.148676
    29  H    0.147440
    30  H    0.151341
    31  H    0.150433
    32  H    0.153757
    33  H    0.154722
    34  H    0.158372
 Sum of Mulliken charges =  -0.00000

 Dipole moment (field-independent basis, Debye):
    X=             -4.2702    Y=              3.4117    Z=              0.5683  Tot=              5.4952
 Quadrupole moment (field-independent basis, Debye-Ang):
   XX=            -67.2741   YY=            -92.6400   ZZ=            -96.0168
   XY=            -10.0624   XZ=             -1.7424   YZ=              0.6332

 Normal termination of Gaussian 16 at Wed May  5 17:19:07 2021.
