 Gaussian 16, Revision A.03,
 Gaussian 16:  EM64L-G16RevA.03 25-Dec-2016

 -------------
 #p 6-31g* mp2
 -------------

 ------------------------------------------------------
 Input file generated by CHIRIPA (05-May-2021 14:53:12)
 ------------------------------------------------------
 Symbolic Z-matrix:
 Charge =  0 Multiplicity = 1

                         Standard orientation:
 ---------------------------------------------------------------------
 Center     Atomic      Atomic             Coordinates (Angstroms)
 Number     Number       Type             X           Y           Z
 ---------------------------------------------------------------------
      1          6           0       -4.576042   -0.167928    0.086543
      2          6           0       -5.739992   -0.361038   -0.886038
      3          6           0       -6.580285   -1.597245   -0.564334
      4          1           0       -3.937959   -1.062026    0.066927
      5          1           0       -4.970940   -0.088115    1.108835
      6          1           0       -5.343120   -0.439078   -1.906341
      7          1           0       -6.375273    0.533702   -0.864247
      8          1           0       -7.003571   -1.523939    0.442670
      9          1           0       -5.965554   -2.502245   -0.605346
     10          1           0       -7.406751   -1.716152   -1.271918
     11          6           0       -3.726716    1.063800   -0.222034
     12          6           0       -2.562766    1.256910    0.750547
     13          6           0       -1.722473    2.493117    0.428842
     14          1           0       -3.331818    0.983987   -1.244326
     15          1           0       -4.364799    1.957898   -0.202419
     16          1           0       -1.927485    0.362170    0.728756
     17          1           0       -2.959638    1.334950    1.770850
     18          1           0       -2.337204    3.398117    0.469854
     19          1           0       -1.299187    2.419811   -0.578161
     20          1           0       -0.896007    2.612024    1.136426
     21          6           0        1.188909   -1.488375    0.974629
     22          6           0        1.247085   -0.092208    0.912560
     23          6           0        2.380302    0.549282    0.403777
     24          6           0        3.441872   -0.239891   -0.036181
     25          6           0        3.414009   -1.632777    0.012645
     26          6           0        2.270649   -2.252855    0.525266
     27          1           0        0.304660   -1.978383    1.371354
     28          1           0        0.408489    0.504043    1.260824
     29          1           0        2.451897    1.628517    0.344241
     30          1           0        4.265746   -2.200346   -0.342079
     31          1           0        2.228254   -3.337309    0.572266
     32          7           0        4.646927    0.427892   -0.576838
     33          8           0        5.568848   -0.290000   -0.958060
     34          8           0        4.646710    1.656547   -0.609144
 ---------------------------------------------------------------------

 SCF Done:  E(RHF) =  -669.535123841     A.U. after   15 cycles
 E2 =    -0.2091900783D+01 EUMP2 =    -0.67162702462375D+03

 The electronic state is 1-A.
 Alpha  occ. eigenvalues --  -20.60725 -20.60720 -15.85777 -11.31137 -11.27707
 Alpha  occ. eigenvalues --  -11.27683 -11.27440 -11.26726 -11.26637 -11.22693
 Alpha  occ. eigenvalues --  -11.22201 -11.22177 -11.22134 -11.22088 -11.21582
 Alpha  occ. eigenvalues --   -1.59801  -1.39354  -1.19305  -1.09234  -1.08702
 Alpha  occ. eigenvalues --   -1.04714  -1.04339  -0.96781  -0.95540  -0.87791
 Alpha  occ. eigenvalues --   -0.86107  -0.82370  -0.80428  -0.79023  -0.77421
 Alpha  occ. eigenvalues --   -0.71996  -0.71124  -0.70418  -0.65909  -0.64954
 Alpha  occ. eigenvalues --   -0.64739  -0.62231  -0.61600  -0.60129  -0.58380
 Alpha  occ. eigenvalues --   -0.56041  -0.55197  -0.53510  -0.53241  -0.53033
 Alpha  occ. eigenvalues --   -0.52683  -0.50700  -0.48771  -0.48752  -0.48723
 Alpha  occ. eigenvalues --   -0.47444  -0.46565  -0.46456  -0.44761  -0.44591
 Alpha  occ. eigenvalues --   -0.37288  -0.36300
 Alpha virt. eigenvalues --    0.05107   0.11268   0.16588   0.19728   0.22488
 Alpha virt. eigenvalues --    0.23744   0.25250   0.25905   0.26389   0.28446
 Alpha virt. eigenvalues --    0.28940   0.30163   0.30978   0.31260   0.32185

 Mulliken charges:
               1
     1  C   -0.298440
     2  C   -0.300381
     3  C   -0.476048
     4  H    0.146841
     5  H    0.150254
     6  H    0.153474
     7  H    0.153707
     8  H    0.155675
     9  H    0.154573
    10  H    0.162447
    11  C   -0.298453
    12  C   -0.304465
    13  C   -0.481192
    14  H    0.152786
    15  H    0.153208
    16  H    0.143641
    17  H    0.154757
    18  H    0.163480
    19  H    0.161361
    20  H    0.152982
    21  C   -0.173932
    22  C   -0.224819
    23  C   -0.173708
    24  C    0.158792
    25  C   -0.171369
    26  C   -0.218394
    27  H    0.225618
    28  H    0.236552
    29  H    0.275634
    30  H    0.275375
    31  H    0.223077
    32  N    0.488038
    33  O   -0.460692
    34  O   -0.460380
 Sum of Mulliken charges =  -0.00000

 Dipole moment (field-independent basis, Debye):
    X=             -4.4850    Y=             -2.2712    Z=              1.8308  Tot=              5.3503
 Quadrupole moment (field-independent basis, Debye-Ang):
   XX=           -123.0067   YY=            -89.9069   ZZ=            -95.2759
   XY=            -10.4966   XZ=              6.2317   YZ=              0.8034

 Normal termination of Gaussian 16 at Thu May  6 07:17:49 2021.
