 Gaussian 16, Revision A.03,
 Gaussian 16:  EM64L-G16RevA.03 25-Dec-2016

 -------------
 #p 6-31g* mp2
 -------------

 ------------------------------------------------------
 Input file generated by CHIRIPA (05-May-2021 14:57:23)
 ------------------------------------------------------
 Symbolic Z-matrix:
 Charge =  0 Multiplicity = 1

                         Standard orientation:
 ---------------------------------------------------------------------
 Center     Atomic      Atomic             Coordinates (Angstroms)
 Number     Number       Type             X           Y           Z
 ---------------------------------------------------------------------
      1          6           0       -5.961762    0.174192   -0.607251
      2          6           0       -5.279541    1.177671    0.088539
      3          6           0       -3.952968    0.988897    0.487435
      4          6           0       -3.336490   -0.221084    0.172488
      5          6           0       -3.989478   -1.239926   -0.519506
      6          6           0       -5.315692   -1.029283   -0.908522
      7          1           0       -6.992136    0.329330   -0.913286
      8          1           0       -5.778770    2.113316    0.323876
      9          1           0       -3.401234    1.748947    1.027185
     10          1           0       -3.465297   -2.161973   -0.739695
     11          1           0       -5.843042   -1.810361   -1.448767
     12          7           0       -1.932297   -0.432507    0.589552
     13          8           0       -1.411572   -1.507493    0.299920
     14          8           0       -1.379003    0.480770    1.198180
     15          6           0        4.732964   -2.048093    0.024135
     16          6           0        5.463364   -0.894070   -0.277971
     17          6           0        4.828270    0.349232   -0.351472
     18          6           0        3.455286    0.402245   -0.116115
     19          6           0        2.700131   -0.729618    0.187062
     20          6           0        3.356106   -1.962335    0.255279
     21          1           0        5.234431   -3.009809    0.079181
     22          1           0        6.532760   -0.957671   -0.457950
     23          1           0        5.369509    1.258449   -0.583428
     24          1           0        1.635259   -0.634612    0.361538
     25          1           0        2.786329   -2.856907    0.490100
     26          7           0        2.771886    1.712871   -0.191130
     27          8           0        1.561309    1.732892    0.020386
     28          8           0        3.459756    2.695301   -0.460024
 ---------------------------------------------------------------------

 SCF Done:  E(RHF) =  -868.339740668     A.U. after   16 cycles
 E2 =    -0.2600051564D+01 EUMP2 =    -0.87093979223233D+03

 The electronic state is 1-A.
 Alpha  occ. eigenvalues --  -20.60912 -20.60777 -20.59538 -20.59463 -15.85809
 Alpha  occ. eigenvalues --  -15.84547 -11.31090 -11.29910 -11.27679 -11.27599
 Alpha  occ. eigenvalues --  -11.27390 -11.26667 -11.26620 -11.26617 -11.26365
 Alpha  occ. eigenvalues --  -11.26275 -11.25652 -11.25464  -1.59867  -1.58594
 Alpha  occ. eigenvalues --   -1.39420  -1.38134  -1.19252  -1.18124  -1.08672
 Alpha  occ. eigenvalues --   -1.07547  -1.04640  -1.03506  -0.95520  -0.94357
 Alpha  occ. eigenvalues --   -0.86044  -0.84917  -0.82354  -0.81168  -0.77412
 Alpha  occ. eigenvalues --   -0.76186  -0.72033  -0.71171  -0.70729  -0.70367
 Alpha  occ. eigenvalues --   -0.69927  -0.69236  -0.64908  -0.64650  -0.63771
 Alpha  occ. eigenvalues --   -0.63519  -0.61985  -0.60808  -0.55161  -0.54078
 Alpha  occ. eigenvalues --   -0.52974  -0.52733  -0.51884  -0.51593  -0.48837
 Alpha  occ. eigenvalues --   -0.48788  -0.47568  -0.47482  -0.44817  -0.43543
 Alpha  occ. eigenvalues --   -0.37231  -0.36236  -0.36174  -0.35122
 Alpha virt. eigenvalues --    0.05115   0.06303   0.11421   0.12517   0.16616
 Alpha virt. eigenvalues --    0.17759   0.21535   0.22657   0.27464   0.28387
 Alpha virt. eigenvalues --    0.28611   0.29652   0.31096   0.32133   0.32708

 Mulliken charges:
               1
     1  C   -0.170416
     2  C   -0.218812
     3  C   -0.169286
     4  C    0.159638
     5  C   -0.170879
     6  C   -0.218741
     7  H    0.225473
     8  H    0.224505
     9  H    0.280120
    10  H    0.273308
    11  H    0.222534
    12  N    0.489215
    13  O   -0.474271
    14  O   -0.445484
    15  C   -0.171536
    16  C   -0.220165
    17  C   -0.172118
    18  C    0.155104
    19  C   -0.177874
    20  C   -0.222452
    21  H    0.220844
    22  H    0.218280
    23  H    0.271405
    24  H    0.299628
    25  H    0.225662
    26  N    0.486399
    27  O   -0.450671
    28  O   -0.469408
 Sum of Mulliken charges =  -0.00000

 Dipole moment (field-independent basis, Debye):
    X=             -3.0898    Y=             -3.7277    Z=             -1.0546  Tot=              4.9553
 Quadrupole moment (field-independent basis, Debye-Ang):
   XX=            -54.2795   YY=           -104.8700   ZZ=           -105.8516
   XY=            -14.8727   XZ=              3.8994   YZ=              2.9075

 Normal termination of Gaussian 16 at Thu May  6 03:25:50 2021.
