 Gaussian 16, Revision A.03,
 Gaussian 16:  EM64L-G16RevA.03 25-Dec-2016

 -------------
 #p 6-31g* mp2
 -------------

 ------------------------------------------------------
 Input file generated by CHIRIPA (05-May-2021 14:55:20)
 ------------------------------------------------------
 Symbolic Z-matrix:
 Charge =  0 Multiplicity = 1

                         Standard orientation:
 ---------------------------------------------------------------------
 Center     Atomic      Atomic             Coordinates (Angstroms)
 Number     Number       Type             X           Y           Z
 ---------------------------------------------------------------------
      1          6           0       -5.387871   -0.638333    0.395757
      2          6           0       -4.523445   -1.693312    0.085419
      3          6           0       -3.173020   -1.449536   -0.181926
      4          6           0       -2.718744   -0.132639   -0.129909
      5          6           0       -3.555141    0.939726    0.176297
      6          6           0       -4.901817    0.672508    0.440127
      7          1           0       -6.435457   -0.836809    0.602072
      8          1           0       -4.898147   -2.712334    0.050239
      9          1           0       -2.481882   -2.247502   -0.424818
     10          1           0       -3.152391    1.944941    0.203756
     11          1           0       -5.570843    1.493784    0.680863
     12          7           0       -1.291094    0.137844   -0.411075
     13          8           0       -0.915554    1.306979   -0.358822
     14          8           0       -0.574675   -0.824408   -0.678382
     15          6           0        4.425640   -0.179376    0.162444
     16          6           0        4.197518   -1.690016    0.099909
     17          6           0        5.496207   -2.489135    0.212203
     18          1           0        5.110169    0.115385   -0.644699
     19          1           0        4.929929    0.069498    1.106452
     20          1           0        3.692568   -1.935804   -0.843080
     21          1           0        3.513302   -1.981188    0.907177
     22          1           0        6.000849   -2.272996    1.159421
     23          1           0        6.181135   -2.227354   -0.600782
     24          1           0        5.309930   -3.566609    0.165186
     25          6           0        3.136697    0.633055    0.051494
     26          6           0        3.364820    2.143695    0.114030
     27          6           0        2.066130    2.942814    0.001735
     28          1           0        2.632409    0.384181   -0.892514
     29          1           0        2.452168    0.338293    0.858637
     30          1           0        4.049037    2.434868   -0.693239
     31          1           0        3.869770    2.389484    1.057018
     32          1           0        1.381203    2.681033    0.814720
     33          1           0        1.561488    2.726675   -0.945482
     34          1           0        2.252408    4.020288    0.048752
 ---------------------------------------------------------------------

 SCF Done:  E(RHF) =  -669.535596364     A.U. after   15 cycles
 E2 =    -0.2091886272D+01 EUMP2 =    -0.67162748263608D+03

 The electronic state is 1-A.
 Alpha  occ. eigenvalues --  -20.60968 -20.60953 -15.85983 -11.31312 -11.27875
 Alpha  occ. eigenvalues --  -11.27871 -11.27612 -11.26882 -11.26872 -11.20427
 Alpha  occ. eigenvalues --  -11.20174 -11.20072 -11.20003 -11.19602 -11.19078
 Alpha  occ. eigenvalues --   -1.60021  -1.39577  -1.19481  -1.08885  -1.06971
 Alpha  occ. eigenvalues --   -1.04876  -1.02101  -0.95728  -0.94530  -0.86277
 Alpha  occ. eigenvalues --   -0.85541  -0.82560  -0.78197  -0.77608  -0.76689
 Alpha  occ. eigenvalues --   -0.72202  -0.71336  -0.70588  -0.65135  -0.64878
 Alpha  occ. eigenvalues --   -0.63625  -0.62223  -0.59519  -0.57963  -0.56121
 Alpha  occ. eigenvalues --   -0.55379  -0.53824  -0.53209  -0.52968  -0.51290
 Alpha  occ. eigenvalues --   -0.50932  -0.49025  -0.48949  -0.48448  -0.46413
 Alpha  occ. eigenvalues --   -0.45287  -0.44937  -0.44203  -0.44122  -0.42348
 Alpha  occ. eigenvalues --   -0.37460  -0.36478
 Alpha virt. eigenvalues --    0.04898   0.11177   0.16387   0.21312   0.24195
 Alpha virt. eigenvalues --    0.25746   0.27234   0.28096   0.28158   0.28964
 Alpha virt. eigenvalues --    0.29474   0.30909   0.32427   0.32819   0.32930

 Mulliken charges:
               1
     1  C   -0.170590
     2  C   -0.218595
     3  C   -0.170635
     4  C    0.157651
     5  C   -0.171011
     6  C   -0.218558
     7  H    0.226049
     8  H    0.223863
     9  H    0.275881
    10  H    0.276034
    11  H    0.223919
    12  N    0.489968
    13  O   -0.459432
    14  O   -0.459306
    15  C   -0.298276
    16  C   -0.297669
    17  C   -0.474888
    18  H    0.145264
    19  H    0.144015
    20  H    0.155091
    21  H    0.151385
    22  H    0.152331
    23  H    0.153010
    24  H    0.156578
    25  C   -0.294850
    26  C   -0.301082
    27  C   -0.469437
    28  H    0.161817
    29  H    0.151014
    30  H    0.144921
    31  H    0.143502
    32  H    0.159187
    33  H    0.167148
    34  H    0.145702
 Sum of Mulliken charges =  -0.00000

 Dipole moment (field-independent basis, Debye):
    X=             -5.5023    Y=             -1.0249    Z=              0.8869  Tot=              5.6668
 Quadrupole moment (field-independent basis, Debye-Ang):
   XX=            -70.5610   YY=            -91.1456   ZZ=            -94.8068
   XY=              2.7699   XZ=             -2.7794   YZ=              0.7654

 Normal termination of Gaussian 16 at Thu May  6 06:08:50 2021.
