 Gaussian 16, Revision A.03,
 Gaussian 16:  EM64L-G16RevA.03 25-Dec-2016

 -------------
 #p 6-31g* mp2
 -------------

 ------------------------------------------------------
 Input file generated by CHIRIPA (05-May-2021 14:55:25)
 ------------------------------------------------------
 Symbolic Z-matrix:
 Charge =  0 Multiplicity = 1

                         Standard orientation:
 ---------------------------------------------------------------------
 Center     Atomic      Atomic             Coordinates (Angstroms)
 Number     Number       Type             X           Y           Z
 ---------------------------------------------------------------------
      1          6           0       -1.611758    2.106743    0.770347
      2          6           0       -1.494759    0.996658    1.613285
      3          6           0       -2.103088   -0.216649    1.278068
      4          6           0       -2.824106   -0.284797    0.086943
      5          6           0       -2.958886    0.803499   -0.773718
      6          6           0       -2.342160    2.006796   -0.418369
      7          1           0       -1.135932    3.045381    1.038571
      8          1           0       -0.928139    1.071371    2.537084
      9          1           0       -2.028580   -1.091664    1.912271
     10          1           0       -3.530250    0.698390   -1.688000
     11          1           0       -2.434707    2.867265   -1.074931
     12          7           0       -3.472561   -1.563972   -0.278593
     13          8           0       -4.102267   -1.598149   -1.333552
     14          8           0       -3.338837   -2.508191    0.496782
     15          6           0        4.023004   -0.350721    0.108381
     16          6           0        3.949855   -1.800389   -0.372343
     17          6           0        5.046580   -2.679034    0.230126
     18          1           0        5.008064    0.063950   -0.145884
     19          1           0        3.949071   -0.331064    1.204530
     20          1           0        4.022514   -1.817202   -1.467356
     21          1           0        2.964786   -2.211596   -0.117074
     22          1           0        4.973215   -2.692037    1.322394
     23          1           0        6.036953   -2.295401   -0.035560
     24          1           0        4.975553   -3.711164   -0.126980
     25          6           0        2.933112    0.540091   -0.485182
     26          6           0        3.006261    1.989759   -0.004457
     27          6           0        1.909536    2.868406   -0.606927
     28          1           0        3.007045    0.520434   -1.581332
     29          1           0        1.948053    0.125420   -0.230917
     30          1           0        3.991331    2.400968   -0.259727
     31          1           0        2.933602    2.006572    1.090555
     32          1           0        0.919164    2.484772   -0.341241
     33          1           0        1.982902    2.881408   -1.699195
     34          1           0        1.980563    3.900535   -0.249821
 ---------------------------------------------------------------------

 SCF Done:  E(RHF) =  -669.535171702     A.U. after   15 cycles
 E2 =    -0.2092254112D+01 EUMP2 =    -0.67162742581410D+03

 The electronic state is 1-A.
 Alpha  occ. eigenvalues --  -20.60819 -20.60813 -15.85874 -11.31264 -11.27849
 Alpha  occ. eigenvalues --  -11.27831 -11.27566 -11.26868 -11.26841 -11.22130
 Alpha  occ. eigenvalues --  -11.21769 -11.21730 -11.21664 -11.21643 -11.21196
 Alpha  occ. eigenvalues --   -1.59894  -1.39446  -1.19450  -1.08854  -1.08758
 Alpha  occ. eigenvalues --   -1.04850  -1.03886  -0.96352  -0.95665  -0.87370
 Alpha  occ. eigenvalues --   -0.86245  -0.82496  -0.79958  -0.78555  -0.77533
 Alpha  occ. eigenvalues --   -0.72091  -0.71217  -0.70569  -0.65407  -0.65098
 Alpha  occ. eigenvalues --   -0.64842  -0.62190  -0.61302  -0.59723  -0.57947
 Alpha  occ. eigenvalues --   -0.55794  -0.55236  -0.53267  -0.53043  -0.52936
 Alpha  occ. eigenvalues --   -0.52688  -0.50271  -0.48851  -0.48844  -0.48263
 Alpha  occ. eigenvalues --   -0.46984  -0.46101  -0.46015  -0.44847  -0.44135
 Alpha  occ. eigenvalues --   -0.37352  -0.36456
 Alpha virt. eigenvalues --    0.04964   0.11172   0.16382   0.20963   0.22674
 Alpha virt. eigenvalues --    0.24078   0.26312   0.26922   0.27238   0.27446
 Alpha virt. eigenvalues --    0.28911   0.30834   0.31237   0.31542   0.31800

 Mulliken charges:
               1
     1  C   -0.172038
     2  C   -0.219882
     3  C   -0.171195
     4  C    0.158776
     5  C   -0.170469
     6  C   -0.218138
     7  H    0.229545
     8  H    0.224066
     9  H    0.275882
    10  H    0.276107
    11  H    0.224926
    12  N    0.488086
    13  O   -0.460066
    14  O   -0.460340
    15  C   -0.298325
    16  C   -0.300208
    17  C   -0.475881
    18  H    0.150044
    19  H    0.147663
    20  H    0.153122
    21  H    0.153591
    22  H    0.154590
    23  H    0.155038
    24  H    0.162250
    25  C   -0.299653
    26  C   -0.297748
    27  C   -0.485783
    28  H    0.151136
    29  H    0.151683
    30  H    0.153865
    31  H    0.147651
    32  H    0.158106
    33  H    0.157738
    34  H    0.155860
 Sum of Mulliken charges =  -0.00000

 Dipole moment (field-independent basis, Debye):
    X=              2.2466    Y=              4.4351    Z=              1.2507  Tot=              5.1266
 Quadrupole moment (field-independent basis, Debye-Ang):
   XX=           -107.8046   YY=            -97.7051   ZZ=            -90.7140
   XY=            -13.9538   XZ=             -2.6139   YZ=             -1.8949

 Normal termination of Gaussian 16 at Thu May  6 12:44:14 2021.
