 Gaussian 16, Revision A.03,
 Gaussian 16:  EM64L-G16RevA.03 25-Dec-2016

 -------------
 #p 6-31g* mp2
 -------------

 ------------------------------------------------------
 Input file generated by CHIRIPA (05-May-2021 14:53:16)
 ------------------------------------------------------
 Symbolic Z-matrix:
 Charge =  0 Multiplicity = 1

                         Standard orientation:
 ---------------------------------------------------------------------
 Center     Atomic      Atomic             Coordinates (Angstroms)
 Number     Number       Type             X           Y           Z
 ---------------------------------------------------------------------
      1          6           0        4.961790    0.096219   -0.318329
      2          6           0        6.116154   -0.896237   -0.461366
      3          6           0        7.055633   -0.547814   -1.616257
      4          1           0        4.394038    0.126477   -1.258375
      5          1           0        5.371075    1.104789   -0.167767
      6          1           0        5.704806   -1.902839   -0.610231
      7          1           0        6.681109   -0.924278    0.479195
      8          1           0        7.493391    0.445042   -1.470635
      9          1           0        6.511541   -0.539080   -2.566251
     10          1           0        7.873530   -1.270193   -1.700360
     11          6           0        4.013930   -0.238697    0.831941
     12          6           0        2.859566    0.753759    0.974978
     13          6           0        1.920087    0.405336    2.129869
     14          1           0        3.604645   -1.247266    0.681379
     15          1           0        4.581682   -0.268955    1.771987
     16          1           0        2.294611    0.781800    0.034417
     17          1           0        3.270913    1.760362    1.123843
     18          1           0        2.464179    0.396602    3.079863
     19          1           0        1.482329   -0.587520    1.984247
     20          1           0        1.102189    1.127715    2.213972
     21          6           0       -1.634431    1.744711   -0.299224
     22          6           0       -2.933255    2.117229   -0.660900
     23          6           0       -3.978065    1.189684   -0.610124
     24          6           0       -3.687091   -0.107636   -0.191098
     25          6           0       -2.403540   -0.509243    0.175645
     26          6           0       -1.374178    0.434972    0.117160
     27          1           0       -0.828798    2.471725   -0.341661
     28          1           0       -3.138300    3.133687   -0.984655
     29          1           0       -4.992834    1.451202   -0.884479
     30          1           0       -2.230011   -1.529908    0.494311
     31          1           0       -0.366466    0.142853    0.398633
     32          7           0       -4.785007   -1.098411   -0.133264
     33          8           0       -4.502594   -2.235095    0.239333
     34          8           0       -5.907179   -0.719536   -0.461627
 ---------------------------------------------------------------------

 SCF Done:  E(RHF) =  -669.535232811     A.U. after   15 cycles
 E2 =    -0.2091561235D+01 EUMP2 =    -0.67162679404625D+03

 The electronic state is 1-A.
 Alpha  occ. eigenvalues --  -20.60717 -20.60712 -15.85769 -11.31124 -11.27688
 Alpha  occ. eigenvalues --  -11.27669 -11.27418 -11.26709 -11.26613 -11.22747
 Alpha  occ. eigenvalues --  -11.22276 -11.22228 -11.22139 -11.22045 -11.21515
 Alpha  occ. eigenvalues --   -1.59793  -1.39346  -1.19288  -1.09244  -1.08686
 Alpha  occ. eigenvalues --   -1.04695  -1.04361  -0.96810  -0.95525  -0.87828
 Alpha  occ. eigenvalues --   -0.86082  -0.82356  -0.80443  -0.79002  -0.77409
 Alpha  occ. eigenvalues --   -0.71988  -0.71115  -0.70402  -0.65930  -0.64939
 Alpha  occ. eigenvalues --   -0.64718  -0.62218  -0.61596  -0.60171  -0.58391
 Alpha  occ. eigenvalues --   -0.56108  -0.55172  -0.53547  -0.53232  -0.53003
 Alpha  occ. eigenvalues --   -0.52695  -0.50726  -0.48747  -0.48744  -0.48740
 Alpha  occ. eigenvalues --   -0.47489  -0.46550  -0.46446  -0.44755  -0.44591
 Alpha  occ. eigenvalues --   -0.37270  -0.36283
 Alpha virt. eigenvalues --    0.05121   0.11300   0.16619   0.19412   0.22585
 Alpha virt. eigenvalues --    0.23901   0.25719   0.26085   0.26760   0.27776
 Alpha virt. eigenvalues --    0.29236   0.29836   0.30818   0.31326   0.32109

 Mulliken charges:
               1
     1  C   -0.298965
     2  C   -0.300365
     3  C   -0.476173
     4  H    0.149627
     5  H    0.150348
     6  H    0.153196
     7  H    0.153171
     8  H    0.155592
     9  H    0.155692
    10  H    0.162244
    11  C   -0.298138
    12  C   -0.304548
    13  C   -0.485375
    14  H    0.150787
    15  H    0.153074
    16  H    0.146138
    17  H    0.155710
    18  H    0.165545
    19  H    0.152762
    20  H    0.159416
    21  C   -0.175214
    22  C   -0.218262
    23  C   -0.171544
    24  C    0.159051
    25  C   -0.173833
    26  C   -0.226530
    27  H    0.225668
    28  H    0.223060
    29  H    0.275298
    30  H    0.275381
    31  H    0.240408
    32  N    0.488017
    33  O   -0.460564
    34  O   -0.460675
 Sum of Mulliken charges =  -0.00000

 Dipole moment (field-independent basis, Debye):
    X=              4.1370    Y=              3.4751    Z=             -0.1466  Tot=              5.4048
 Quadrupole moment (field-independent basis, Debye-Ang):
   XX=           -120.9521   YY=            -93.1414   ZZ=            -94.9622
   XY=            -15.7914   XZ=              2.3626   YZ=             -1.4756

 Normal termination of Gaussian 16 at Wed May  5 18:43:46 2021.
