 Gaussian 16, Revision A.03,
 Gaussian 16:  EM64L-G16RevA.03 25-Dec-2016

 -------------
 #p 6-31g* mp2
 -------------

 ------------------------------------------------------
 Input file generated by CHIRIPA (05-May-2021 14:57:27)
 ------------------------------------------------------
 Symbolic Z-matrix:
 Charge =  0 Multiplicity = 1

                         Standard orientation:
 ---------------------------------------------------------------------
 Center     Atomic      Atomic             Coordinates (Angstroms)
 Number     Number       Type             X           Y           Z
 ---------------------------------------------------------------------
      1          6           0       -5.406317    0.400303    0.042855
      2          6           0       -4.936234   -0.830231   -0.427602
      3          6           0       -3.564273   -1.094654   -0.476098
      4          6           0       -2.686580   -0.101413   -0.044337
      5          6           0       -3.124033    1.134436    0.429587
      6          6           0       -4.500313    1.376987    0.469197
      7          1           0       -6.473767    0.597217    0.077077
      8          1           0       -5.637537   -1.590600   -0.759350
      9          1           0       -3.173083   -2.038611   -0.835726
     10          1           0       -2.400593    1.872775    0.753481
     11          1           0       -4.862528    2.333545    0.835041
     12          7           0       -1.231860   -0.369768   -0.090973
     13          8           0       -0.479166    0.521855    0.295158
     14          8           0       -0.871890   -1.466646   -0.512775
     15          6           0        2.850667   -2.416217    0.529077
     16          6           0        2.685408   -1.490878    1.564915
     17          6           0        2.725490   -0.118034    1.303686
     18          6           0        2.933651    0.296304   -0.010956
     19          6           0        3.101685   -0.601015   -1.064461
     20          6           0        3.057913   -1.969120   -0.779998
     21          1           0        2.818097   -3.480834    0.741030
     22          1           0        2.524304   -1.835222    2.582518
     23          1           0        2.600537    0.620056    2.086647
     24          1           0        3.260646   -0.227431   -2.068745
     25          1           0        3.186566   -2.685473   -1.586429
     26          7           0        2.978036    1.747164   -0.299806
     27          8           0        3.162808    2.086595   -1.466547
     28          8           0        2.827215    2.517446    0.646004
 ---------------------------------------------------------------------

 SCF Done:  E(RHF) =  -868.338352958     A.U. after   16 cycles
 E2 =    -0.2601181211D+01 EUMP2 =    -0.87093953416943D+03

 The electronic state is 1-A.
 Alpha  occ. eigenvalues --  -20.61027 -20.61010 -20.59271 -20.59255 -15.86051
 Alpha  occ. eigenvalues --  -15.84307 -11.31314 -11.29353 -11.27900 -11.27831
 Alpha  occ. eigenvalues --  -11.27603 -11.26885 -11.26838 -11.26011 -11.25986
 Alpha  occ. eigenvalues --  -11.25801 -11.25027 -11.25018  -1.60082  -1.58326
 Alpha  occ. eigenvalues --   -1.39641  -1.37899  -1.19479  -1.17547  -1.08896
 Alpha  occ. eigenvalues --   -1.07030  -1.04864  -1.02989  -0.95749  -0.93923
 Alpha  occ. eigenvalues --   -0.86268  -0.84429  -0.82583  -0.80810  -0.77637
 Alpha  occ. eigenvalues --   -0.75860  -0.72306  -0.71398  -0.70586  -0.70577
 Alpha  occ. eigenvalues --   -0.69577  -0.68810  -0.65134  -0.64867  -0.63290
 Alpha  occ. eigenvalues --   -0.63099  -0.62208  -0.60409  -0.55382  -0.53599
 Alpha  occ. eigenvalues --   -0.53203  -0.52954  -0.51448  -0.51174  -0.49037
 Alpha  occ. eigenvalues --   -0.48769  -0.47323  -0.47296  -0.45071  -0.43385
 Alpha  occ. eigenvalues --   -0.37463  -0.36463  -0.35449  -0.34501
 Alpha virt. eigenvalues --    0.04869   0.06750   0.11192   0.13127   0.16398
 Alpha virt. eigenvalues --    0.18264   0.21349   0.22882   0.27266   0.28243
 Alpha virt. eigenvalues --    0.28735   0.29769   0.30909   0.32317   0.32494

 Mulliken charges:
               1
     1  C   -0.170445
     2  C   -0.218692
     3  C   -0.171184
     4  C    0.157611
     5  C   -0.170821
     6  C   -0.218704
     7  H    0.226170
     8  H    0.223147
     9  H    0.273684
    10  H    0.279767
    11  H    0.225218
    12  N    0.489121
    13  O   -0.459807
    14  O   -0.462483
    15  C   -0.163604
    16  C   -0.218823
    17  C   -0.156326
    18  C    0.174278
    19  C   -0.168815
    20  C   -0.211668
    21  H    0.217999
    22  H    0.214605
    23  H    0.268891
    24  H    0.268968
    25  H    0.216010
    26  N    0.489529
    27  O   -0.468078
    28  O   -0.465549
 Sum of Mulliken charges =  -0.00000

 Dipole moment (field-independent basis, Debye):
    X=             -5.6353    Y=             -4.0916    Z=              1.2005  Tot=              7.0667
 Quadrupole moment (field-independent basis, Debye-Ang):
   XX=            -80.2402   YY=           -104.9791   ZZ=           -100.6840
   XY=            -16.6203   XZ=              2.2731   YZ=              3.5684

 Normal termination of Gaussian 16 at Thu May  6 09:59:45 2021.
