 Gaussian 16, Revision A.03,
 Gaussian 16:  EM64L-G16RevA.03 25-Dec-2016

 -------------
 #p 6-31g* mp2
 -------------

 ------------------------------------------------------
 Input file generated by CHIRIPA (05-May-2021 14:51:10)
 ------------------------------------------------------
 Symbolic Z-matrix:
 Charge =  0 Multiplicity = 1

                         Standard orientation:
 ---------------------------------------------------------------------
 Center     Atomic      Atomic             Coordinates (Angstroms)
 Number     Number       Type             X           Y           Z
 ---------------------------------------------------------------------
      1          6           0        4.080158   -0.373647   -0.351759
      2          6           0        5.159341    0.140045    0.601902
      3          6           0        6.443108    0.546855   -0.122144
      4          1           0        4.474099   -1.232066   -0.912894
      5          1           0        3.853387    0.406159   -1.091943
      6          1           0        5.383019   -0.639987    1.340912
      7          1           0        4.762720    0.997221    1.160970
      8          1           0        6.241096    1.342019   -0.847062
      9          1           0        6.864920   -0.304491   -0.666098
     10          1           0        7.201005    0.911006    0.578459
     11          6           0        2.790767   -0.784248    0.357189
     12          6           0        1.711584   -1.297939   -0.596472
     13          6           0        0.427817   -1.704749    0.127574
     14          1           0        3.017538   -1.564053    1.097373
     15          1           0        2.396826    0.074171    0.918324
     16          1           0        2.108205   -2.155115   -1.155540
     17          1           0        1.487906   -0.517907   -1.335481
     18          1           0        0.006005   -0.853403    0.671528
     19          1           0        0.629829   -2.499914    0.852492
     20          1           0       -0.330080   -2.068900   -0.573029
     21          6           0       -4.093960    0.229001    0.162664
     22          6           0       -4.090083   -1.261996   -0.176305
     23          6           0       -5.414341   -1.948191    0.160251
     24          1           0       -4.312416    0.354861    1.231954
     25          1           0       -4.911497    0.719895   -0.383278
     26          1           0       -3.271933   -1.749685    0.369045
     27          1           0       -3.871422   -1.384329   -1.244872
     28          1           0       -6.238473   -1.488263   -0.394613
     29          1           0       -5.635578   -1.855694    1.228474
     30          1           0       -5.389555   -3.013356   -0.090085
     31          6           0       -2.776965    0.928894   -0.168094
     32          6           0       -2.780842    2.419890    0.170875
     33          6           0       -1.456583    3.106086   -0.165682
     34          1           0       -1.959429    0.438000    0.377848
     35          1           0       -2.558509    0.803033   -1.237384
     36          1           0       -2.999502    2.542224    1.239443
     37          1           0       -3.598992    2.907579   -0.374475
     38          1           0       -1.235347    3.013589   -1.233904
     39          1           0       -0.632452    2.646158    0.389183
     40          1           0       -1.481371    4.171250    0.084655
 ---------------------------------------------------------------------

 SCF Done:  E(RHF) =  -470.733142937     A.U. after   11 cycles
 E2 =    -0.1583033301D+01 EUMP2 =    -0.47231617623795D+03

 The electronic state is 1-A.
 Alpha  occ. eigenvalues --  -11.21597 -11.21595 -11.21592 -11.21557 -11.21404
 Alpha  occ. eigenvalues --  -11.21360 -11.21344 -11.21294 -11.21106 -11.21065
 Alpha  occ. eigenvalues --  -11.21050 -11.21041  -1.08433  -1.08397  -1.03526
 Alpha  occ. eigenvalues --   -1.03512  -0.95997  -0.95945  -0.87013  -0.86966
 Alpha  occ. eigenvalues --   -0.79602  -0.79571  -0.78271  -0.78178  -0.65121
 Alpha  occ. eigenvalues --   -0.64983  -0.60974  -0.60869  -0.59373  -0.59299
 Alpha  occ. eigenvalues --   -0.57605  -0.57560  -0.55390  -0.55151  -0.52722
 Alpha  occ. eigenvalues --   -0.52612  -0.52454  -0.52344  -0.50046  -0.49814
 Alpha  occ. eigenvalues --   -0.47974  -0.47837  -0.46741  -0.46562  -0.45871
 Alpha  occ. eigenvalues --   -0.45732  -0.45727  -0.45423  -0.43786  -0.43737
 Alpha virt. eigenvalues --    0.21190   0.23067   0.23850   0.24400   0.25692
 Alpha virt. eigenvalues --    0.26662   0.26730   0.27598   0.28132   0.29623
 Alpha virt. eigenvalues --    0.29843   0.31439   0.31784   0.31896   0.32361

 Mulliken charges:
               1
     1  C   -0.298332
     2  C   -0.299658
     3  C   -0.475719
     4  H    0.149638
     5  H    0.149816
     6  H    0.151843
     7  H    0.151975
     8  H    0.155287
     9  H    0.155145
    10  H    0.160235
    11  C   -0.298377
    12  C   -0.299955
    13  C   -0.480157
    14  H    0.149439
    15  H    0.149253
    16  H    0.151884
    17  H    0.152702
    18  H    0.157874
    19  H    0.154618
    20  H    0.162549
    21  C   -0.297736
    22  C   -0.301713
    23  C   -0.475670
    24  H    0.149323
    25  H    0.149227
    26  H    0.155052
    27  H    0.151339
    28  H    0.155012
    29  H    0.155132
    30  H    0.160138
    31  C   -0.305211
    32  C   -0.299269
    33  C   -0.475557
    34  H    0.157792
    35  H    0.149060
    36  H    0.151715
    37  H    0.151919
    38  H    0.155139
    39  H    0.153821
    40  H    0.160430
 Sum of Mulliken charges =  -0.00000

 Dipole moment (field-independent basis, Debye):
    X=              0.0082    Y=             -0.0140    Z=             -0.0044  Tot=              0.0168
 Quadrupole moment (field-independent basis, Debye-Ang):
   XX=            -86.4347   YY=            -84.3863   ZZ=            -84.0684
   XY=             -1.2968   XZ=              0.8717   YZ=             -0.0533

 Normal termination of Gaussian 16 at Wed May  5 18:12:10 2021.
