 Gaussian 16, Revision A.03,
 Gaussian 16:  EM64L-G16RevA.03 25-Dec-2016

 -------------
 #p 6-31g* mp2
 -------------

 ------------------------------------------------------
 Input file generated by CHIRIPA (05-May-2021 14:55:20)
 ------------------------------------------------------
 Symbolic Z-matrix:
 Charge =  0 Multiplicity = 1

                         Standard orientation:
 ---------------------------------------------------------------------
 Center     Atomic      Atomic             Coordinates (Angstroms)
 Number     Number       Type             X           Y           Z
 ---------------------------------------------------------------------
      1          6           0       -1.675987    0.612082   -0.114628
      2          6           0       -2.696897    1.556355   -0.265001
      3          6           0       -4.038318    1.165301   -0.217945
      4          6           0       -4.324119   -0.184386   -0.018064
      5          6           0       -3.329399   -1.148936    0.135123
      6          6           0       -1.994934   -0.735174    0.084602
      7          1           0       -0.636641    0.924683   -0.152528
      8          1           0       -2.452156    2.603336   -0.419854
      9          1           0       -4.848471    1.875372   -0.331388
     10          1           0       -3.604530   -2.185424    0.288140
     11          1           0       -1.204157   -1.470706    0.201695
     12          7           0       -5.740539   -0.610397    0.033586
     13          8           0       -5.966022   -1.805547    0.210818
     14          8           0       -6.598427    0.258911   -0.104142
     15          6           0        4.767143    0.627533    0.397072
     16          6           0        3.428284    0.822672   -0.315224
     17          6           0        2.501044    1.788433    0.423238
     18          1           0        4.583245    0.255831    1.414403
     19          1           0        5.262496    1.602376    0.505251
     20          1           0        2.936235   -0.152434   -0.423261
     21          1           0        3.615400    1.193771   -1.331043
     22          1           0        2.968141    2.774008    0.518439
     23          1           0        2.285118    1.420155    1.431378
     24          1           0        1.549731    1.913296   -0.103329
     25          6           0        5.704988   -0.335247   -0.329035
     26          6           0        7.043846   -0.530386    0.383260
     27          6           0        7.971086   -1.496147   -0.355202
     28          1           0        5.209634   -1.310090   -0.437214
     29          1           0        5.888886    0.036455   -1.346366
     30          1           0        6.856730   -0.901485    1.399079
     31          1           0        7.535895    0.444720    0.491297
     32          1           0        8.187012   -1.127869   -1.363343
     33          1           0        7.503989   -2.481722   -0.450402
     34          1           0        8.922399   -1.621010    0.171365
 ---------------------------------------------------------------------

 SCF Done:  E(RHF) =  -669.535507780     A.U. after   15 cycles
 E2 =    -0.2090667384D+01 EUMP2 =    -0.67162617516359D+03

 The electronic state is 1-A.
 Alpha  occ. eigenvalues --  -20.60724 -20.60719 -15.85778 -11.31133 -11.27707
 Alpha  occ. eigenvalues --  -11.27703 -11.27411 -11.26715 -11.26704 -11.22626
 Alpha  occ. eigenvalues --  -11.22345 -11.22179 -11.22131 -11.22013 -11.21514
 Alpha  occ. eigenvalues --   -1.59800  -1.39354  -1.19306  -1.09193  -1.08699
 Alpha  occ. eigenvalues --   -1.04710  -1.04329  -0.96791  -0.95536  -0.87809
 Alpha  occ. eigenvalues --   -0.86106  -0.82373  -0.80398  -0.78959  -0.77422
 Alpha  occ. eigenvalues --   -0.71996  -0.71123  -0.70431  -0.65817  -0.64957
 Alpha  occ. eigenvalues --   -0.64718  -0.62061  -0.61716  -0.60240  -0.58397
 Alpha  occ. eigenvalues --   -0.56067  -0.55238  -0.53464  -0.53185  -0.53038
 Alpha  occ. eigenvalues --   -0.52802  -0.50710  -0.48762  -0.48751  -0.48700
 Alpha  occ. eigenvalues --   -0.47416  -0.46510  -0.46407  -0.44762  -0.44574
 Alpha  occ. eigenvalues --   -0.37279  -0.36318
 Alpha virt. eigenvalues --    0.05117   0.11337   0.16611   0.19560   0.22423
 Alpha virt. eigenvalues --    0.23723   0.25903   0.25989   0.26747   0.27330
 Alpha virt. eigenvalues --    0.28740   0.30350   0.30711   0.31359   0.32274

 Mulliken charges:
               1
     1  C   -0.177420
     2  C   -0.221626
     3  C   -0.170732
     4  C    0.158156
     5  C   -0.170655
     6  C   -0.221513
     7  H    0.237756
     8  H    0.223403
     9  H    0.275444
    10  H    0.275319
    11  H    0.223509
    12  N    0.488004
    13  O   -0.460623
    14  O   -0.460577
    15  C   -0.299105
    16  C   -0.299645
    17  C   -0.481304
    18  H    0.150721
    19  H    0.151778
    20  H    0.148951
    21  H    0.155024
    22  H    0.161905
    23  H    0.157852
    24  H    0.151245
    25  C   -0.298772
    26  C   -0.300238
    27  C   -0.476092
    28  H    0.149520
    29  H    0.150856
    30  H    0.152592
    31  H    0.152908
    32  H    0.155886
    33  H    0.155576
    34  H    0.161897
 Sum of Mulliken charges =  -0.00000

 Dipole moment (field-independent basis, Debye):
    X=              5.2715    Y=              1.5208    Z=             -0.1619  Tot=              5.4889
 Quadrupole moment (field-independent basis, Debye-Ang):
   XX=           -137.5297   YY=            -90.6373   ZZ=            -95.4189
   XY=             -8.1031   XZ=              1.0975   YZ=             -1.4724

 Normal termination of Gaussian 16 at Thu May  6 20:39:44 2021.
