 Gaussian 16, Revision A.03,
 Gaussian 16:  EM64L-G16RevA.03 25-Dec-2016

 -------------
 #p 6-31g* mp2
 -------------

 ------------------------------------------------------
 Input file generated by CHIRIPA (05-May-2021 14:53:15)
 ------------------------------------------------------
 Symbolic Z-matrix:
 Charge =  0 Multiplicity = 1

                         Standard orientation:
 ---------------------------------------------------------------------
 Center     Atomic      Atomic             Coordinates (Angstroms)
 Number     Number       Type             X           Y           Z
 ---------------------------------------------------------------------
      1          6           0        2.901165    0.875002    0.476933
      2          6           0        1.697043    0.854582    1.419089
      3          6           0        0.997309    2.210766    1.513583
      4          1           0        3.615834    1.634688    0.821995
      5          1           0        2.570309    1.188387   -0.522926
      6          1           0        2.029831    0.539993    2.416537
      7          1           0        0.985245    0.094722    1.071854
      8          1           0        0.637817    2.528179    0.529400
      9          1           0        1.688339    2.975979    1.881723
     10          1           0        0.139503    2.173504    2.192288
     11          6           0        3.611168   -0.473553    0.371936
     12          6           0        4.815289   -0.453133   -0.570220
     13          6           0        5.515023   -1.809318   -0.664713
     14          1           0        3.942023   -0.786939    1.371796
     15          1           0        2.896498   -1.233240    0.026874
     16          1           0        5.527088    0.306727   -0.222985
     17          1           0        4.482501   -0.138544   -1.567668
     18          1           0        4.823993   -2.574531   -1.032854
     19          1           0        5.874515   -2.126730    0.319470
     20          1           0        6.372829   -1.772055   -1.343419
     21          6           0       -1.298314    1.779537   -1.363591
     22          6           0       -2.591818    1.965348   -0.864749
     23          6           0       -3.291361    0.899608   -0.290826
     24          6           0       -2.664296   -0.344015   -0.231820
     25          6           0       -1.376703   -0.560782   -0.720088
     26          6           0       -0.695948    0.519287   -1.289799
     27          1           0       -0.762190    2.612995   -1.807793
     28          1           0       -3.062113    2.942964   -0.920715
     29          1           0       -4.293768    1.015539    0.103073
     30          1           0       -0.934116   -1.547009   -0.650153
     31          1           0        0.308497    0.372058   -1.676398
     32          7           0       -3.394926   -1.479851    0.373537
     33          8           0       -2.820340   -2.565615    0.413581
     34          8           0       -4.528346   -1.262847    0.796511
 ---------------------------------------------------------------------

 SCF Done:  E(RHF) =  -669.533324236     A.U. after   15 cycles
 E2 =    -0.2095185986D+01 EUMP2 =    -0.67162851022156D+03

 The electronic state is 1-A.
 Alpha  occ. eigenvalues --  -20.60814 -20.60808 -15.85869 -11.31260 -11.27827
 Alpha  occ. eigenvalues --  -11.27819 -11.27563 -11.26842 -11.26832 -11.22131
 Alpha  occ. eigenvalues --  -11.22065 -11.21963 -11.21944 -11.21473 -11.21421
 Alpha  occ. eigenvalues --   -1.59889  -1.39442  -1.19447  -1.09016  -1.08816
 Alpha  occ. eigenvalues --   -1.04865  -1.03982  -0.96460  -0.95666  -0.87473
 Alpha  occ. eigenvalues --   -0.86250  -0.82503  -0.80059  -0.78811  -0.77538
 Alpha  occ. eigenvalues --   -0.72087  -0.71213  -0.70570  -0.65769  -0.65099
 Alpha  occ. eigenvalues --   -0.64779  -0.62223  -0.61406  -0.59813  -0.58063
 Alpha  occ. eigenvalues --   -0.55919  -0.55332  -0.53185  -0.53047  -0.52941
 Alpha  occ. eigenvalues --   -0.52780  -0.50401  -0.48848  -0.48840  -0.48364
 Alpha  occ. eigenvalues --   -0.47135  -0.46334  -0.46311  -0.44842  -0.44280
 Alpha  occ. eigenvalues --   -0.37327  -0.36371
 Alpha virt. eigenvalues --    0.04950   0.11105   0.16315   0.19295   0.22904
 Alpha virt. eigenvalues --    0.24223   0.25324   0.25884   0.26978   0.28671
 Alpha virt. eigenvalues --    0.29330   0.30898   0.31434   0.31521   0.31901

 Mulliken charges:
               1
     1  C   -0.299332
     2  C   -0.303252
     3  C   -0.473859
     4  H    0.152903
     5  H    0.137741
     6  H    0.155710
     7  H    0.154100
     8  H    0.149228
     9  H    0.153800
    10  H    0.163393
    11  C   -0.298227
    12  C   -0.299366
    13  C   -0.475971
    14  H    0.154189
    15  H    0.145585
    16  H    0.153620
    17  H    0.148130
    18  H    0.155533
    19  H    0.157373
    20  H    0.161488
    21  C   -0.172494
    22  C   -0.217784
    23  C   -0.171257
    24  C    0.158759
    25  C   -0.172571
    26  C   -0.214669
    27  H    0.226138
    28  H    0.224064
    29  H    0.275941
    30  H    0.275841
    31  H    0.227598
    32  N    0.488085
    33  O   -0.460264
    34  O   -0.460176
 Sum of Mulliken charges =  -0.00000

 Dipole moment (field-independent basis, Debye):
    X=              2.5572    Y=              3.9738    Z=             -2.0697  Tot=              5.1589
 Quadrupole moment (field-independent basis, Debye-Ang):
   XX=           -105.2856   YY=            -97.0091   ZZ=            -93.7446
   XY=            -13.9292   XZ=              5.1357   YZ=              0.3720

 Normal termination of Gaussian 16 at Wed May  5 15:37:33 2021.
