 Gaussian 16, Revision A.03,
 Gaussian 16:  EM64L-G16RevA.03 25-Dec-2016

 -------------
 #p 6-31g* mp2
 -------------

 ------------------------------------------------------
 Input file generated by CHIRIPA (05-May-2021 14:57:26)
 ------------------------------------------------------
 Symbolic Z-matrix:
 Charge =  0 Multiplicity = 1

                         Standard orientation:
 ---------------------------------------------------------------------
 Center     Atomic      Atomic             Coordinates (Angstroms)
 Number     Number       Type             X           Y           Z
 ---------------------------------------------------------------------
      1          6           0       -0.872845   -1.479509    1.959458
      2          6           0       -1.871977   -0.598613    2.386398
      3          6           0       -2.720268    0.015527    1.460232
      4          6           0       -2.540508   -0.275270    0.108784
      5          6           0       -1.554340   -1.148385   -0.347760
      6          6           0       -0.717489   -1.751105    0.596146
      7          1           0       -0.218315   -1.952152    2.685816
      8          1           0       -1.994938   -0.385819    3.444530
      9          1           0       -3.501961    0.701497    1.763248
     10          1           0       -1.456105   -1.340822   -1.409238
     11          1           0        0.057591   -2.434801    0.261696
     12          7           0       -3.432500    0.368847   -0.881096
     13          8           0       -3.253583    0.096034   -2.066085
     14          8           0       -4.293671    1.134324   -0.453232
     15          6           0        2.948926   -1.993121   -0.919180
     16          6           0        1.965075   -1.288312   -1.620466
     17          6           0        1.649098    0.027846   -1.270562
     18          6           0        2.339800    0.610992   -0.209354
     19          6           0        3.325049   -0.065098    0.508613
     20          6           0        3.624582   -1.380345    0.141252
     21          1           0        3.187998   -3.015191   -1.197774
     22          1           0        1.438731   -1.761670   -2.444444
     23          1           0        0.891857    0.596541   -1.796481
     24          1           0        3.832651    0.433451    1.325440
     25          1           0        4.389118   -1.925292    0.687661
     26          7           0        2.013994    2.003866    0.170314
     27          8           0        2.636927    2.495092    1.109085
     28          8           0        1.141863    2.578004   -0.478061
 ---------------------------------------------------------------------

 SCF Done:  E(RHF) =  -868.335322777     A.U. after   16 cycles
 E2 =    -0.2604689986D+01 EUMP2 =    -0.87094001276264D+03

 The electronic state is 1-A.
 Alpha  occ. eigenvalues --  -20.61154 -20.61126 -20.60749 -20.60712 -15.86203
 Alpha  occ. eigenvalues --  -15.85786 -11.31759 -11.31195 -11.28414 -11.28341
 Alpha  occ. eigenvalues --  -11.28218 -11.27798 -11.27653 -11.27466 -11.27438
 Alpha  occ. eigenvalues --  -11.27424 -11.26739 -11.26728  -1.60214  -1.59799
 Alpha  occ. eigenvalues --   -1.39762  -1.39357  -1.20014  -1.19336  -1.09368
 Alpha  occ. eigenvalues --   -1.08725  -1.05477  -1.04728  -0.96153  -0.95566
 Alpha  occ. eigenvalues --   -0.86827  -0.86149  -0.82992  -0.82398  -0.77989
 Alpha  occ. eigenvalues --   -0.77449  -0.72419  -0.72008  -0.71542  -0.71134
 Alpha  occ. eigenvalues --   -0.71084  -0.70467  -0.65654  -0.65442  -0.64993
 Alpha  occ. eigenvalues --   -0.64782  -0.62785  -0.62124  -0.55939  -0.55268
 Alpha  occ. eigenvalues --   -0.54123  -0.53523  -0.52946  -0.52588  -0.49197
 Alpha  occ. eigenvalues --   -0.49158  -0.48774  -0.48752  -0.45125  -0.44756
 Alpha  occ. eigenvalues --   -0.38056  -0.37556  -0.37304  -0.35722
 Alpha virt. eigenvalues --    0.04368   0.05252   0.10425   0.11315   0.15816
 Alpha virt. eigenvalues --    0.16716   0.19992   0.21868   0.25391   0.27429
 Alpha virt. eigenvalues --    0.27981   0.28906   0.30335   0.31231   0.32042

 Mulliken charges:
               1
     1  C   -0.174505
     2  C   -0.216432
     3  C   -0.169366
     4  C    0.163264
     5  C   -0.178127
     6  C   -0.210918
     7  H    0.223793
     8  H    0.224888
     9  H    0.277389
    10  H    0.265829
    11  H    0.221572
    12  N    0.489257
    13  O   -0.464829
    14  O   -0.456654
    15  C   -0.176733
    16  C   -0.230407
    17  C   -0.164128
    18  C    0.161456
    19  C   -0.172008
    20  C   -0.220518
    21  H    0.226763
    22  H    0.224882
    23  H    0.282482
    24  H    0.276936
    25  H    0.224514
    26  N    0.487895
    27  O   -0.461014
    28  O   -0.455282
 Sum of Mulliken charges =  -0.00000

 Dipole moment (field-independent basis, Debye):
    X=              4.2926    Y=             -6.8940    Z=              2.2337  Tot=              8.4227
 Quadrupole moment (field-independent basis, Debye-Ang):
   XX=           -112.7009   YY=           -109.9137   ZZ=            -98.7375
   XY=             -7.5237   XZ=            -11.3572   YZ=              0.7547

 Normal termination of Gaussian 16 at Thu May  6 18:08:31 2021.
