 Gaussian 16, Revision A.03,
 Gaussian 16:  EM64L-G16RevA.03 25-Dec-2016

 -------------
 #p 6-31g* mp2
 -------------

 ------------------------------------------------------
 Input file generated by CHIRIPA (05-May-2021 14:55:25)
 ------------------------------------------------------
 Symbolic Z-matrix:
 Charge =  0 Multiplicity = 1

                         Standard orientation:
 ---------------------------------------------------------------------
 Center     Atomic      Atomic             Coordinates (Angstroms)
 Number     Number       Type             X           Y           Z
 ---------------------------------------------------------------------
      1          6           0       -3.323305    1.996680    0.079817
      2          6           0       -2.044293    1.741437   -0.425652
      3          6           0       -1.561147    0.432029   -0.506698
      4          6           0       -2.387478   -0.602866   -0.071429
      5          6           0       -3.666334   -0.380735    0.436976
      6          6           0       -4.128824    0.936648    0.508762
      7          1           0       -3.690601    3.016957    0.139179
      8          1           0       -1.416518    2.562708   -0.759507
      9          1           0       -0.574989    0.206040   -0.893786
     10          1           0       -4.268963   -1.220118    0.762079
     11          1           0       -5.122542    1.131897    0.901760
     12          7           0       -1.886928   -1.993300   -0.152327
     13          8           0       -2.634486   -2.887567    0.237646
     14          8           0       -0.756515   -2.162526   -0.604176
     15          6           0        2.633173    0.969834   -0.175973
     16          6           0        2.820109    2.388137    0.363895
     17          6           0        1.755330    3.359826   -0.145868
     18          1           0        2.654661    0.996514   -1.274049
     19          1           0        1.636402    0.605163    0.108382
     20          1           0        3.816761    2.749503    0.079791
     21          1           0        2.798365    2.358051    1.460818
     22          1           0        0.755618    3.025789    0.150098
     23          1           0        1.779800    3.419466   -1.238775
     24          1           0        1.907985    4.367763    0.252402
     25          6           0        3.689963   -0.013146    0.324699
     26          6           0        3.503027   -1.431449   -0.215170
     27          6           0        4.567806   -2.403138    0.294594
     28          1           0        4.686734    0.351525    0.040344
     29          1           0        3.668475   -0.039826    1.422775
     30          1           0        3.524772   -1.401364   -1.312092
     31          1           0        2.506375   -1.792815    0.068935
     32          1           0        4.543336   -2.462779    1.387501
     33          1           0        5.567518   -2.069102   -0.001373
     34          1           0        4.415151   -3.411075   -0.103677
 ---------------------------------------------------------------------

 SCF Done:  E(RHF) =  -669.535586376     A.U. after   15 cycles
 E2 =    -0.2092853603D+01 EUMP2 =    -0.67162843997924D+03

 The electronic state is 1-A.
 Alpha  occ. eigenvalues --  -20.60830 -20.60823 -15.85871 -11.31199 -11.27778
 Alpha  occ. eigenvalues --  -11.27726 -11.27502 -11.26784 -11.26725 -11.21981
 Alpha  occ. eigenvalues --  -11.21790 -11.21610 -11.21247 -11.21028 -11.20575
 Alpha  occ. eigenvalues --   -1.59896  -1.39451  -1.19373  -1.08773  -1.08470
 Alpha  occ. eigenvalues --   -1.04770  -1.03530  -0.96050  -0.95612  -0.87084
 Alpha  occ. eigenvalues --   -0.86160  -0.82449  -0.79667  -0.78216  -0.77466
 Alpha  occ. eigenvalues --   -0.72088  -0.71215  -0.70481  -0.65116  -0.65018
 Alpha  occ. eigenvalues --   -0.64793  -0.62144  -0.60895  -0.59458  -0.57616
 Alpha  occ. eigenvalues --   -0.55387  -0.55272  -0.53107  -0.53027  -0.52691
 Alpha  occ. eigenvalues --   -0.52309  -0.49992  -0.48855  -0.48846  -0.47938
 Alpha  occ. eigenvalues --   -0.46682  -0.45744  -0.45594  -0.44830  -0.43785
 Alpha  occ. eigenvalues --   -0.37352  -0.36352
 Alpha virt. eigenvalues --    0.04973   0.11189   0.16378   0.20512   0.23054
 Alpha virt. eigenvalues --    0.24220   0.25630   0.26346   0.26862   0.28482
 Alpha virt. eigenvalues --    0.30107   0.30489   0.31428   0.31848   0.32302

 Mulliken charges:
               1
     1  C   -0.171280
     2  C   -0.223844
     3  C   -0.176810
     4  C    0.157857
     5  C   -0.170602
     6  C   -0.218558
     7  H    0.226026
     8  H    0.229630
     9  H    0.282932
    10  H    0.275540
    11  H    0.223474
    12  N    0.488708
    13  O   -0.459850
    14  O   -0.461889
    15  C   -0.304691
    16  C   -0.298122
    17  C   -0.483261
    18  H    0.148800
    19  H    0.150332
    20  H    0.154716
    21  H    0.154376
    22  H    0.149641
    23  H    0.154367
    24  H    0.163117
    25  C   -0.297848
    26  C   -0.305341
    27  C   -0.475936
    28  H    0.148444
    29  H    0.149822
    30  H    0.151092
    31  H    0.169378
    32  H    0.154191
    33  H    0.151697
    34  H    0.163892
 Sum of Mulliken charges =  -0.00000

 Dipole moment (field-independent basis, Debye):
    X=             -1.7387    Y=              4.7775    Z=              0.3107  Tot=              5.0935
 Quadrupole moment (field-independent basis, Debye-Ang):
   XX=            -82.8161   YY=           -101.2503   ZZ=            -94.2805
   XY=             -8.5704   XZ=             -3.1254   YZ=             -1.1465

 Normal termination of Gaussian 16 at Wed May  5 17:38:00 2021.
