 Gaussian 16, Revision A.03,
 Gaussian 16:  EM64L-G16RevA.03 25-Dec-2016

 -------------
 #p 6-31g* mp2
 -------------

 ------------------------------------------------------
 Input file generated by CHIRIPA (05-May-2021 14:57:23)
 ------------------------------------------------------
 Symbolic Z-matrix:
 Charge =  0 Multiplicity = 1

                         Standard orientation:
 ---------------------------------------------------------------------
 Center     Atomic      Atomic             Coordinates (Angstroms)
 Number     Number       Type             X           Y           Z
 ---------------------------------------------------------------------
      1          6           0       -1.674929    2.751377    0.245095
      2          6           0       -1.498430    1.923700    1.358792
      3          6           0       -2.007652    0.621695    1.363612
      4          6           0       -2.691313    0.177839    0.232733
      5          6           0       -2.883495    0.978434   -0.892169
      6          6           0       -2.365680    2.276939   -0.874857
      7          1           0       -1.276015    3.761447    0.249947
      8          1           0       -0.962405    2.289488    2.229952
      9          1           0       -1.885424   -0.040277    2.212300
     10          1           0       -3.422268    0.585692   -1.745924
     11          1           0       -2.504261    2.917500   -1.741183
     12          7           0       -3.234952   -1.198683    0.226120
     13          8           0       -3.833514   -1.565992   -0.782565
     14          8           0       -3.052201   -1.884227    1.229748
     15          6           0        0.505287   -1.676032   -0.829345
     16          6           0        0.660031   -0.348583   -1.242211
     17          6           0        1.817400    0.365497   -0.917969
     18          6           0        2.804390   -0.281799   -0.176250
     19          6           0        2.679635   -1.603286    0.249661
     20          6           0        1.513805   -2.298049   -0.086037
     21          1           0       -0.397071   -2.223244   -1.085674
     22          1           0       -0.121549    0.137033   -1.819580
     23          1           0        1.963156    1.394118   -1.224746
     24          1           0        3.476120   -2.060508    0.824097
     25          1           0        1.396350   -3.328863    0.235947
     26          7           0        4.034123    0.463940    0.173076
     27          8           0        4.888999   -0.129009    0.827472
     28          8           0        4.119827    1.627281   -0.214135
 ---------------------------------------------------------------------

 SCF Done:  E(RHF) =  -868.338433842     A.U. after   16 cycles
 E2 =    -0.2603082662D+01 EUMP2 =    -0.87094151650349D+03

 The electronic state is 1-A.
 Alpha  occ. eigenvalues --  -20.61777 -20.61763 -20.60893 -20.60875 -15.86806
 Alpha  occ. eigenvalues --  -15.85933 -11.32032 -11.31177 -11.28632 -11.28534
 Alpha  occ. eigenvalues --  -11.28273 -11.27723 -11.27678 -11.27618 -11.27489
 Alpha  occ. eigenvalues --  -11.27320 -11.26641 -11.26630  -1.60863  -1.59966
 Alpha  occ. eigenvalues --   -1.40410  -1.39523  -1.20220  -1.19310  -1.09622
 Alpha  occ. eigenvalues --   -1.08716  -1.05587  -1.04688  -0.96474  -0.95580
 Alpha  occ. eigenvalues --   -0.86975  -0.86087  -0.83296  -0.82414  -0.78371
 Alpha  occ. eigenvalues --   -0.77500  -0.73014  -0.72267  -0.72144  -0.71291
 Alpha  occ. eigenvalues --   -0.71274  -0.70340  -0.65847  -0.65549  -0.64949
 Alpha  occ. eigenvalues --   -0.64691  -0.62914  -0.62067  -0.56044  -0.55161
 Alpha  occ. eigenvalues --   -0.54182  -0.53642  -0.52920  -0.52575  -0.49790
 Alpha  occ. eigenvalues --   -0.49768  -0.48918  -0.48893  -0.45836  -0.44956
 Alpha  occ. eigenvalues --   -0.38325  -0.37284  -0.37036  -0.36231
 Alpha virt. eigenvalues --    0.04086   0.05014   0.10408   0.11364   0.15622
 Alpha virt. eigenvalues --    0.16548   0.20702   0.21614   0.26612   0.27454
 Alpha virt. eigenvalues --    0.27555   0.28335   0.30380   0.31248   0.31809

 Mulliken charges:
               1
     1  C   -0.171763
     2  C   -0.215918
     3  C   -0.165969
     4  C    0.158990
     5  C   -0.183052
     6  C   -0.222489
     7  H    0.231304
     8  H    0.229788
     9  H    0.278101
    10  H    0.275946
    11  H    0.226338
    12  N    0.484859
    13  O   -0.462014
    14  O   -0.457964
    15  C   -0.179279
    16  C   -0.215275
    17  C   -0.174416
    18  C    0.157285
    19  C   -0.173189
    20  C   -0.217860
    21  H    0.235153
    22  H    0.223707
    23  H    0.270377
    24  H    0.275163
    25  H    0.227875
    26  N    0.487957
    27  O   -0.459924
    28  O   -0.463731
 Sum of Mulliken charges =  -0.00000

 Dipole moment (field-independent basis, Debye):
    X=             -2.5732    Y=              2.2538    Z=             -0.9942  Tot=              3.5622
 Quadrupole moment (field-independent basis, Debye-Ang):
   XX=           -140.1003   YY=            -98.4118   ZZ=            -99.5905
   XY=            -21.2812   XZ=              0.3325   YZ=             -0.8177

 Normal termination of Gaussian 16 at Thu May  6 09:47:35 2021.
