 Gaussian 16, Revision A.03,
 Gaussian 16:  EM64L-G16RevA.03 25-Dec-2016

 -------------
 #p 6-31g* mp2
 -------------

 ------------------------------------------------------
 Input file generated by CHIRIPA (05-May-2021 14:51:12)
 ------------------------------------------------------
 Symbolic Z-matrix:
 Charge =  0 Multiplicity = 1

                         Standard orientation:
 ---------------------------------------------------------------------
 Center     Atomic      Atomic             Coordinates (Angstroms)
 Number     Number       Type             X           Y           Z
 ---------------------------------------------------------------------
      1          6           0        2.886960    1.174645    0.369412
      2          6           0        2.761926    2.288698   -0.670413
      3          6           0        2.664076    3.677987   -0.039465
      4          1           0        2.020598    1.212406    1.043902
      5          1           0        3.774589    1.359844    0.990065
      6          1           0        1.875573    2.100708   -1.289812
      7          1           0        3.628590    2.248161   -1.342623
      8          1           0        3.552862    3.890793    0.563341
      9          1           0        1.789884    3.742502    0.616453
     10          1           0        2.575422    4.459310   -0.800737
     11          6           0        2.985739   -0.220101   -0.245937
     12          6           0        3.110772   -1.334154    0.793889
     13          6           0        3.208622   -2.723442    0.162940
     14          1           0        2.098109   -0.405299   -0.866590
     15          1           0        3.852101   -0.257862   -0.920426
     16          1           0        2.244108   -1.293616    1.466099
     17          1           0        3.997125   -1.146163    1.413287
     18          1           0        4.082814   -2.787957   -0.492977
     19          1           0        2.319837   -2.936248   -0.439865
     20          1           0        3.297277   -3.504765    0.924213
     21          6           0       -3.091801    0.270020   -0.090368
     22          6           0       -4.529001    0.606134    0.308968
     23          6           0       -4.824708    2.104959    0.246698
     24          1           0       -2.398862    0.809649    0.569618
     25          1           0       -2.905531    0.639466   -1.108311
     26          1           0       -4.712935    0.234940    1.325334
     27          1           0       -5.218600    0.065494   -0.351924
     28          1           0       -4.668770    2.486575   -0.767527
     29          1           0       -4.160233    2.656985    0.919259
     30          1           0       -5.857515    2.322759    0.536068
     31          6           0       -2.780898   -1.224565   -0.033108
     32          6           0       -1.343697   -1.560679   -0.432444
     33          6           0       -1.047990   -3.059503   -0.370174
     34          1           0       -2.967167   -1.594011    0.984835
     35          1           0       -3.473837   -1.764194   -0.693095
     36          1           0       -0.654098   -1.020039    0.228448
     37          1           0       -1.159763   -1.189485   -1.448809
     38          1           0       -1.712466   -3.611530   -1.042735
     39          1           0       -1.203928   -3.441120    0.644052
     40          1           0       -0.015184   -3.277304   -0.659544
 ---------------------------------------------------------------------

 SCF Done:  E(RHF) =  -470.733275732     A.U. after   11 cycles
 E2 =    -0.1583276065D+01 EUMP2 =    -0.47231655179659D+03

 The electronic state is 1-A.
 Alpha  occ. eigenvalues --  -11.21687 -11.21643 -11.21595 -11.21583 -11.21465
 Alpha  occ. eigenvalues --  -11.21406 -11.21387 -11.21324 -11.21115 -11.21103
 Alpha  occ. eigenvalues --  -11.21059 -11.21054  -1.08493  -1.08411  -1.03598
 Alpha  occ. eigenvalues --   -1.03506  -0.96045  -0.95954  -0.87074  -0.86960
 Alpha  occ. eigenvalues --   -0.79655  -0.79574  -0.78308  -0.78223  -0.65168
 Alpha  occ. eigenvalues --   -0.65011  -0.61061  -0.60890  -0.59410  -0.59310
 Alpha  occ. eigenvalues --   -0.57689  -0.57536  -0.55334  -0.55250  -0.52776
 Alpha  occ. eigenvalues --   -0.52656  -0.52506  -0.52304  -0.49992  -0.49883
 Alpha  occ. eigenvalues --   -0.47970  -0.47870  -0.46693  -0.46593  -0.45902
 Alpha  occ. eigenvalues --   -0.45798  -0.45699  -0.45658  -0.43822  -0.43770
 Alpha virt. eigenvalues --    0.19737   0.23116   0.23430   0.25267   0.25687
 Alpha virt. eigenvalues --    0.26145   0.26785   0.27646   0.28558   0.29052
 Alpha virt. eigenvalues --    0.30204   0.31237   0.31640   0.31768   0.32218

 Mulliken charges:
               1
     1  C   -0.298219
     2  C   -0.299756
     3  C   -0.475642
     4  H    0.149044
     5  H    0.149456
     6  H    0.152459
     7  H    0.151840
     8  H    0.155067
     9  H    0.155065
    10  H    0.160259
    11  C   -0.300787
    12  C   -0.299901
    13  C   -0.480949
    14  H    0.152574
    15  H    0.149505
    16  H    0.152187
    17  H    0.151938
    18  H    0.155205
    19  H    0.159963
    20  H    0.160409
    21  C   -0.298247
    22  C   -0.299708
    23  C   -0.475746
    24  H    0.149216
    25  H    0.149571
    26  H    0.152047
    27  H    0.152111
    28  H    0.155271
    29  H    0.155180
    30  H    0.160444
    31  C   -0.298444
    32  C   -0.301997
    33  C   -0.481497
    34  H    0.149791
    35  H    0.150096
    36  H    0.153417
    37  H    0.151801
    38  H    0.155616
    39  H    0.155661
    40  H    0.165700
 Sum of Mulliken charges =  -0.00000

 Dipole moment (field-independent basis, Debye):
    X=             -0.0231    Y=             -0.0110    Z=             -0.0084  Tot=              0.0270
 Quadrupole moment (field-independent basis, Debye-Ang):
   XX=            -83.7737   YY=            -87.0001   ZZ=            -83.9138
   XY=              0.5985   XZ=              0.2713   YZ=             -0.2376

 Normal termination of Gaussian 16 at Thu May  6 05:29:34 2021.
