 Gaussian 16, Revision A.03,
 Gaussian 16:  EM64L-G16RevA.03 25-Dec-2016

 -------------
 #p 6-31g* mp2
 -------------

 ------------------------------------------------------
 Input file generated by CHIRIPA (05-May-2021 14:51:14)
 ------------------------------------------------------
 Symbolic Z-matrix:
 Charge =  0 Multiplicity = 1

                         Standard orientation:
 ---------------------------------------------------------------------
 Center     Atomic      Atomic             Coordinates (Angstroms)
 Number     Number       Type             X           Y           Z
 ---------------------------------------------------------------------
      1          6           0       -3.169696   -0.389238   -0.174456
      2          6           0       -2.047822    0.308877    0.594973
      3          6           0       -0.656070   -0.102605    0.113825
      4          1           0       -3.052397   -1.476996   -0.074609
      5          1           0       -3.068248   -0.160830   -1.244471
      6          1           0       -2.152170    0.080344    1.663383
      7          1           0       -2.167917    1.395102    0.493442
      8          1           0       -0.527224    0.140742   -0.945789
      9          1           0       -0.511388   -1.181486    0.230800
     10          1           0        0.130858    0.408294    0.677372
     11          6           0       -4.566983    0.011836    0.295071
     12          6           0       -5.688857   -0.686279   -0.474357
     13          6           0       -7.080609   -0.274797    0.006791
     14          1           0       -4.668431   -0.216572    1.365087
     15          1           0       -4.684282    1.099594    0.195225
     16          1           0       -5.568762   -1.772504   -0.372826
     17          1           0       -5.584509   -0.457745   -1.542767
     18          1           0       -7.225291    0.804085   -0.110184
     19          1           0       -7.209455   -0.518144    1.066405
     20          1           0       -7.867537   -0.785696   -0.556756
     21          6           0        4.376337   -0.308754    0.218815
     22          6           0        4.251215   -1.707266   -0.386573
     23          6           0        5.274248   -2.691182    0.181850
     24          1           0        5.391435    0.071623    0.040396
     25          1           0        4.254999   -0.376437    1.308811
     26          1           0        4.371376   -1.636779   -1.475247
     27          1           0        3.236238   -2.084281   -0.206860
     28          1           0        5.151994   -2.791070    1.265214
     29          1           0        6.293581   -2.341027   -0.010379
     30          1           0        5.166919   -3.684627   -0.264702
     31          6           0        3.360343    0.686156   -0.339431
     32          6           0        3.485464    2.084668    0.265957
     33          6           0        2.462430    3.068584   -0.302466
     34          1           0        3.481681    0.753839   -1.429426
     35          1           0        2.345244    0.305778   -0.161012
     36          1           0        4.500441    2.461682    0.086244
     37          1           0        3.365303    2.014181    1.354631
     38          1           0        1.443097    2.718428   -0.110236
     39          1           0        2.584685    3.168473   -1.385830
     40          1           0        2.569759    4.062028    0.144087
 ---------------------------------------------------------------------

 SCF Done:  E(RHF) =  -470.732942488     A.U. after   11 cycles
 E2 =    -0.1583015265D+01 EUMP2 =    -0.47231595775377D+03

 The electronic state is 1-A.
 Alpha  occ. eigenvalues --  -11.21665 -11.21623 -11.21542 -11.21537 -11.21443
 Alpha  occ. eigenvalues --  -11.21381 -11.21310 -11.21214 -11.21162 -11.21087
 Alpha  occ. eigenvalues --  -11.21026 -11.21020  -1.08474  -1.08352  -1.03586
 Alpha  occ. eigenvalues --   -1.03467  -0.96039  -0.95914  -0.87067  -0.86929
 Alpha  occ. eigenvalues --   -0.79675  -0.79512  -0.78292  -0.78145  -0.65103
 Alpha  occ. eigenvalues --   -0.65007  -0.61000  -0.60881  -0.59449  -0.59231
 Alpha  occ. eigenvalues --   -0.57641  -0.57525  -0.55326  -0.55203  -0.52803
 Alpha  occ. eigenvalues --   -0.52609  -0.52461  -0.52324  -0.49977  -0.49859
 Alpha  occ. eigenvalues --   -0.47973  -0.47835  -0.46687  -0.46544  -0.45855
 Alpha  occ. eigenvalues --   -0.45754  -0.45684  -0.45630  -0.43740  -0.43696
 Alpha virt. eigenvalues --    0.21171   0.22994   0.23713   0.24930   0.25985
 Alpha virt. eigenvalues --    0.26592   0.27107   0.27422   0.27959   0.29249
 Alpha virt. eigenvalues --    0.30468   0.31254   0.31687   0.31919   0.32011

 Mulliken charges:
               1
     1  C   -0.298746
     2  C   -0.300357
     3  C   -0.479758
     4  H    0.149726
     5  H    0.149848
     6  H    0.152030
     7  H    0.152459
     8  H    0.157095
     9  H    0.155265
    10  H    0.162943
    11  C   -0.298354
    12  C   -0.299658
    13  C   -0.475729
    14  H    0.149554
    15  H    0.149828
    16  H    0.151963
    17  H    0.152037
    18  H    0.155256
    19  H    0.155196
    20  H    0.160343
    21  C   -0.297493
    22  C   -0.299706
    23  C   -0.475644
    24  H    0.149188
    25  H    0.148851
    26  H    0.151769
    27  H    0.152269
    28  H    0.154982
    29  H    0.155050
    30  H    0.159988
    31  C   -0.308279
    32  C   -0.299192
    33  C   -0.478444
    34  H    0.148731
    35  H    0.161828
    36  H    0.151759
    37  H    0.150906
    38  H    0.157657
    39  H    0.155007
    40  H    0.159833
 Sum of Mulliken charges =  -0.00000

 Dipole moment (field-independent basis, Debye):
    X=             -0.0638    Y=             -0.0159    Z=             -0.0094  Tot=              0.0664
 Quadrupole moment (field-independent basis, Debye-Ang):
   XX=            -86.1754   YY=            -84.9484   ZZ=            -83.9368
   XY=              0.8946   XZ=             -0.4543   YZ=             -0.5229

 Normal termination of Gaussian 16 at Wed May  5 21:38:10 2021.
