 Gaussian 16, Revision A.03,
 Gaussian 16:  EM64L-G16RevA.03 25-Dec-2016

 -------------
 #p 6-31g* mp2
 -------------

 ------------------------------------------------------
 Input file generated by CHIRIPA (05-May-2021 14:51:13)
 ------------------------------------------------------
 Symbolic Z-matrix:
 Charge =  0 Multiplicity = 1

                         Standard orientation:
 ---------------------------------------------------------------------
 Center     Atomic      Atomic             Coordinates (Angstroms)
 Number     Number       Type             X           Y           Z
 ---------------------------------------------------------------------
      1          6           0       -3.027154   -0.101086   -0.346686
      2          6           0       -4.333993   -0.878654   -0.186863
      3          6           0       -4.226667   -2.322519   -0.678321
      4          1           0       -2.730332   -0.108787   -1.404411
      5          1           0       -2.230600   -0.619009    0.205267
      6          1           0       -5.128151   -0.358670   -0.737814
      7          1           0       -4.627840   -0.868938    0.870575
      8          1           0       -3.454004   -2.862537   -0.121569
      9          1           0       -3.957158   -2.349369   -1.739096
     10          1           0       -5.172040   -2.859980   -0.554762
     11          6           0       -3.118611    1.344003    0.140223
     12          6           0       -1.811772    2.121571   -0.019600
     13          6           0       -1.919098    3.565436    0.471858
     14          1           0       -3.915166    1.861926   -0.411730
     15          1           0       -3.415434    1.351704    1.197948
     16          1           0       -1.517926    2.111855   -1.077038
     17          1           0       -1.017615    1.601587    0.531351
     18          1           0       -2.188608    3.592286    1.532633
     19          1           0       -2.691762    4.105454   -0.084894
     20          1           0       -0.973726    4.102897    0.348299
     21          6           0        2.674637   -1.113313    0.530913
     22          6           0        1.210206   -1.236387    0.108680
     23          6           0        0.426568   -2.224038    0.973695
     24          1           0        3.148543   -2.103177    0.480662
     25          1           0        2.720529   -0.797816    1.582460
     26          1           0        1.167094   -1.550219   -0.942161
     27          1           0        0.739780   -0.246081    0.159758
     28          1           0        0.439820   -1.911935    2.022988
     29          1           0        0.869562   -3.223484    0.914808
     30          1           0       -0.617798   -2.296504    0.654463
     31          6           0        3.471129   -0.129604   -0.324450
     32          6           0        4.935560   -0.006530    0.097783
     33          6           0        5.719197    0.981122   -0.767231
     34          1           0        3.425237   -0.445101   -1.375997
     35          1           0        2.997223    0.860260   -0.274199
     36          1           0        5.405986   -0.996837    0.046705
     37          1           0        4.978671    0.307302    1.148623
     38          1           0        5.276203    1.980567   -0.708346
     39          1           0        5.705946    0.669018   -1.816525
     40          1           0        6.763563    1.053588   -0.448000
 ---------------------------------------------------------------------

 SCF Done:  E(RHF) =  -470.732937786     A.U. after   11 cycles
 E2 =    -0.1583829523D+01 EUMP2 =    -0.47231676730958D+03

 The electronic state is 1-A.
 Alpha  occ. eigenvalues --  -11.21628 -11.21601 -11.21597 -11.21574 -11.21400
 Alpha  occ. eigenvalues --  -11.21399 -11.21339 -11.21326 -11.21100 -11.21089
 Alpha  occ. eigenvalues --  -11.21082 -11.21068  -1.08459  -1.08407  -1.03548
 Alpha  occ. eigenvalues --   -1.03530  -0.96012  -0.95967  -0.87034  -0.86980
 Alpha  occ. eigenvalues --   -0.79664  -0.79538  -0.78328  -0.78168  -0.65165
 Alpha  occ. eigenvalues --   -0.64988  -0.60997  -0.60890  -0.59424  -0.59307
 Alpha  occ. eigenvalues --   -0.57679  -0.57531  -0.55316  -0.55236  -0.52736
 Alpha  occ. eigenvalues --   -0.52669  -0.52487  -0.52338  -0.49984  -0.49881
 Alpha  occ. eigenvalues --   -0.48097  -0.47773  -0.46780  -0.46513  -0.45927
 Alpha  occ. eigenvalues --   -0.45761  -0.45722  -0.45432  -0.43793  -0.43755
 Alpha virt. eigenvalues --    0.20690   0.22776   0.23501   0.24025   0.26002
 Alpha virt. eigenvalues --    0.26630   0.26949   0.27375   0.27736   0.29563
 Alpha virt. eigenvalues --    0.29773   0.31353   0.31708   0.31884   0.32491

 Mulliken charges:
               1
     1  C   -0.307077
     2  C   -0.299309
     3  C   -0.477707
     4  H    0.149521
     5  H    0.159295
     6  H    0.151987
     7  H    0.151852
     8  H    0.156275
     9  H    0.155327
    10  H    0.160582
    11  C   -0.297606
    12  C   -0.304477
    13  C   -0.475447
    14  H    0.149617
    15  H    0.149404
    16  H    0.152386
    17  H    0.155921
    18  H    0.155140
    19  H    0.155470
    20  H    0.160011
    21  C   -0.297995
    22  C   -0.305980
    23  C   -0.481682
    24  H    0.149676
    25  H    0.149127
    26  H    0.152414
    27  H    0.158360
    28  H    0.154336
    29  H    0.155773
    30  H    0.164719
    31  C   -0.298262
    32  C   -0.299647
    33  C   -0.475700
    34  H    0.149594
    35  H    0.149715
    36  H    0.151945
    37  H    0.151857
    38  H    0.155169
    39  H    0.155184
    40  H    0.160231
 Sum of Mulliken charges =  -0.00000

 Dipole moment (field-independent basis, Debye):
    X=             -0.0098    Y=              0.0057    Z=             -0.0111  Tot=              0.0159
 Quadrupole moment (field-independent basis, Debye-Ang):
   XX=            -85.1791   YY=            -85.7492   ZZ=            -83.8820
   XY=             -0.8295   XZ=              0.4376   YZ=              0.2650

 Normal termination of Gaussian 16 at Thu May  6 00:49:22 2021.
