 Gaussian 16, Revision A.03,
 Gaussian 16:  EM64L-G16RevA.03 25-Dec-2016

 -------------
 #p 6-31g* mp2
 -------------

 ------------------------------------------------------
 Input file generated by CHIRIPA (05-May-2021 14:53:16)
 ------------------------------------------------------
 Symbolic Z-matrix:
 Charge =  0 Multiplicity = 1

                         Standard orientation:
 ---------------------------------------------------------------------
 Center     Atomic      Atomic             Coordinates (Angstroms)
 Number     Number       Type             X           Y           Z
 ---------------------------------------------------------------------
      1          6           0       -3.734198    1.295012    0.138744
      2          6           0       -2.290392    1.791986    0.218909
      3          6           0       -2.195549    3.309928    0.375914
      4          1           0       -4.237412    1.784620   -0.706244
      5          1           0       -4.272237    1.605132    1.045239
      6          1           0       -1.754862    1.479830   -0.686841
      7          1           0       -1.790500    1.300993    1.063687
      8          1           0       -2.705162    3.635408    1.288580
      9          1           0       -2.669322    3.815260   -0.471894
     10          1           0       -1.154638    3.643559    0.431190
     11          6           0       -3.845410   -0.220469   -0.018344
     12          6           0       -5.289215   -0.717443   -0.098509
     13          6           0       -5.384058   -2.235385   -0.255515
     14          1           0       -3.307371   -0.530589   -0.924840
     15          1           0       -3.342195   -0.710078    0.826643
     16          1           0       -5.789107   -0.226451   -0.943287
     17          1           0       -5.824745   -0.405287    0.807240
     18          1           0       -4.910285   -2.740718    0.592293
     19          1           0       -4.874445   -2.560865   -1.168180
     20          1           0       -6.424969   -2.569016   -0.310790
     21          6           0        0.993745   -1.995912    0.064192
     22          6           0        0.810585   -0.677024   -0.364186
     23          6           0        1.893270    0.205044   -0.429752
     24          6           0        3.150950   -0.267365   -0.057783
     25          6           0        3.365500   -1.575623    0.373167
     26          6           0        2.268370   -2.440219    0.430855
     27          1           0        0.147078   -2.674337    0.112066
     28          1           0       -0.178172   -0.329220   -0.649557
     29          1           0        1.779767    1.231185   -0.757729
     30          1           0        4.363092   -1.893353    0.651154
     31          1           0        2.413580   -3.463950    0.763922
     32          7           0        4.304786    0.657192   -0.123026
     33          8           0        5.402716    0.216534    0.210153
     34          8           0        4.089385    1.805011   -0.506106
 ---------------------------------------------------------------------

 SCF Done:  E(RHF) =  -669.535532425     A.U. after   15 cycles
 E2 =    -0.2091633242D+01 EUMP2 =    -0.67162716566653D+03

 The electronic state is 1-A.
 Alpha  occ. eigenvalues --  -20.60703 -20.60698 -15.85755 -11.31099 -11.27665
 Alpha  occ. eigenvalues --  -11.27644 -11.27382 -11.26682 -11.26588 -11.22574
 Alpha  occ. eigenvalues --  -11.22392 -11.22333 -11.22207 -11.21811 -11.21718
 Alpha  occ. eigenvalues --   -1.59779  -1.39333  -1.19262  -1.09308  -1.08660
 Alpha  occ. eigenvalues --   -1.04662  -1.04335  -0.96759  -0.95501  -0.87774
 Alpha  occ. eigenvalues --   -0.86059  -0.82340  -0.80431  -0.79171  -0.77372
 Alpha  occ. eigenvalues --   -0.71973  -0.71102  -0.70371  -0.65934  -0.64910
 Alpha  occ. eigenvalues --   -0.64661  -0.62049  -0.61704  -0.60119  -0.58387
 Alpha  occ. eigenvalues --   -0.56034  -0.55161  -0.53447  -0.53196  -0.52993
 Alpha  occ. eigenvalues --   -0.52746  -0.50693  -0.48783  -0.48730  -0.48658
 Alpha  occ. eigenvalues --   -0.47456  -0.46642  -0.46600  -0.44744  -0.44601
 Alpha  occ. eigenvalues --   -0.37244  -0.36255
 Alpha virt. eigenvalues --    0.05139   0.11365   0.16615   0.19822   0.22526
 Alpha virt. eigenvalues --    0.23454   0.24685   0.25917   0.26647   0.28375
 Alpha virt. eigenvalues --    0.29255   0.30355   0.30864   0.31346   0.32307

 Mulliken charges:
               1
     1  C   -0.297806
     2  C   -0.306381
     3  C   -0.475867
     4  H    0.152862
     5  H    0.153684
     6  H    0.144082
     7  H    0.154856
     8  H    0.158821
     9  H    0.157805
    10  H    0.163710
    11  C   -0.300738
    12  C   -0.299857
    13  C   -0.476439
    14  H    0.144289
    15  H    0.147846
    16  H    0.154663
    17  H    0.154905
    18  H    0.154008
    19  H    0.154215
    20  H    0.163666
    21  C   -0.173151
    22  C   -0.223880
    23  C   -0.173867
    24  C    0.158755
    25  C   -0.171513
    26  C   -0.218410
    27  H    0.226047
    28  H    0.234111
    29  H    0.274923
    30  H    0.275171
    31  H    0.222891
    32  N    0.488109
    33  O   -0.460774
    34  O   -0.460738
 Sum of Mulliken charges =  -0.00000

 Dipole moment (field-independent basis, Debye):
    X=             -4.3237    Y=             -3.1434    Z=              0.2916  Tot=              5.3535
 Quadrupole moment (field-independent basis, Debye-Ang):
   XX=           -118.1995   YY=            -91.3998   ZZ=            -94.0182
   XY=            -12.2533   XZ=              1.9345   YZ=             -1.4076

 Normal termination of Gaussian 16 at Thu May  6 02:43:45 2021.
