 Gaussian 16, Revision A.03,
 Gaussian 16:  EM64L-G16RevA.03 25-Dec-2016

 -------------
 #p 6-31g* mp2
 -------------

 ------------------------------------------------------
 Input file generated by CHIRIPA (05-May-2021 14:53:11)
 ------------------------------------------------------
 Symbolic Z-matrix:
 Charge =  0 Multiplicity = 1

                         Standard orientation:
 ---------------------------------------------------------------------
 Center     Atomic      Atomic             Coordinates (Angstroms)
 Number     Number       Type             X           Y           Z
 ---------------------------------------------------------------------
      1          6           0       -3.736599   -0.228881   -0.281972
      2          6           0       -4.327419   -1.296159    0.639892
      3          6           0       -4.999041   -2.434829   -0.128319
      4          1           0       -4.533369    0.177290   -0.920038
      5          1           0       -3.006345   -0.699121   -0.955024
      6          1           0       -5.055327   -0.823800    1.311936
      7          1           0       -3.529187   -1.699701    1.275971
      8          1           0       -4.279521   -2.932416   -0.786573
      9          1           0       -5.814333   -2.051539   -0.750404
     10          1           0       -5.414485   -3.186540    0.550060
     11          6           0       -3.061727    0.916065    0.471270
     12          6           0       -2.470907    1.983344   -0.450594
     13          6           0       -1.799285    3.122014    0.317617
     14          1           0       -3.791981    1.386306    1.144322
     15          1           0       -2.264957    0.509895    1.109336
     16          1           0       -3.269139    2.386885   -1.086672
     17          1           0       -1.742998    1.510985   -1.122637
     18          1           0       -0.983993    2.738724    0.939702
     19          1           0       -2.518805    3.619601    0.975871
     20          1           0       -1.383841    3.873724   -0.360761
     21          6           0        2.552310    2.251780   -0.135471
     22          6           0        1.483047    1.495184   -0.626145
     23          6           0        1.529398    0.098204   -0.597084
     24          6           0        2.665581   -0.512076   -0.067997
     25          6           0        3.746992    0.214124    0.428464
     26          6           0        3.678884    1.609967    0.389342
     27          1           0        2.507853    3.336547   -0.161953
     28          1           0        0.606863    1.990926   -1.034295
     29          1           0        0.715797   -0.511895   -0.970250
     30          1           0        4.607015   -0.308489    0.829283
     31          1           0        4.510774    2.194997    0.771108
     32          7           0        2.726167   -1.990395   -0.031906
     33          8           0        3.738461   -2.504047    0.439326
     34          8           0        1.760215   -2.607457   -0.475534
 ---------------------------------------------------------------------

 SCF Done:  E(RHF) =  -669.535150021     A.U. after   15 cycles
 E2 =    -0.2092450263D+01 EUMP2 =    -0.67162760028354D+03

 The electronic state is 1-A.
 Alpha  occ. eigenvalues --  -20.60779 -20.60773 -15.85830 -11.31189 -11.27750
 Alpha  occ. eigenvalues --  -11.27744 -11.27472 -11.26764 -11.26688 -11.22510
 Alpha  occ. eigenvalues --  -11.22003 -11.21922 -11.21750 -11.21690 -11.21073
 Alpha  occ. eigenvalues --   -1.59854  -1.39408  -1.19354  -1.08930  -1.08743
 Alpha  occ. eigenvalues --   -1.04763  -1.04020  -0.96466  -0.95585  -0.87485
 Alpha  occ. eigenvalues --   -0.86145  -0.82422  -0.80126  -0.78665  -0.77475
 Alpha  occ. eigenvalues --   -0.72049  -0.71177  -0.70457  -0.65684  -0.64999
 Alpha  occ. eigenvalues --   -0.64728  -0.62260  -0.61229  -0.59878  -0.58051
 Alpha  occ. eigenvalues --   -0.55770  -0.55218  -0.53191  -0.53086  -0.52863
 Alpha  occ. eigenvalues --   -0.52775  -0.50406  -0.48806  -0.48804  -0.48412
 Alpha  occ. eigenvalues --   -0.47174  -0.46209  -0.46096  -0.44815  -0.44262
 Alpha  occ. eigenvalues --   -0.37324  -0.36343
 Alpha virt. eigenvalues --    0.05052   0.11221   0.16499   0.19368   0.22868
 Alpha virt. eigenvalues --    0.23979   0.25051   0.26561   0.26741   0.28877
 Alpha virt. eigenvalues --    0.29460   0.30387   0.30952   0.31061   0.32077

 Mulliken charges:
               1
     1  C   -0.298879
     2  C   -0.300528
     3  C   -0.476528
     4  H    0.150177
     5  H    0.149389
     6  H    0.151597
     7  H    0.155771
     8  H    0.158627
     9  H    0.154160
    10  H    0.162028
    11  C   -0.299536
    12  C   -0.302748
    13  C   -0.484498
    14  H    0.152229
    15  H    0.152589
    16  H    0.156996
    17  H    0.142244
    18  H    0.159369
    19  H    0.162309
    20  H    0.154166
    21  C   -0.173173
    22  C   -0.222960
    23  C   -0.174773
    24  C    0.158844
    25  C   -0.171126
    26  C   -0.218326
    27  H    0.226314
    28  H    0.235563
    29  H    0.274817
    30  H    0.275542
    31  H    0.223421
    32  N    0.488122
    33  O   -0.460360
    34  O   -0.460840
 Sum of Mulliken charges =  -0.00000

 Dipole moment (field-independent basis, Debye):
    X=             -0.3611    Y=              5.1634    Z=             -0.0413  Tot=              5.1762
 Quadrupole moment (field-independent basis, Debye-Ang):
   XX=            -90.7615   YY=           -101.1951   ZZ=            -94.7730
   XY=             13.6064   XZ=              1.4890   YZ=             -0.4113

 Normal termination of Gaussian 16 at Thu May  6 04:05:10 2021.
