 Gaussian 16, Revision A.03,
 Gaussian 16:  EM64L-G16RevA.03 25-Dec-2016

 -------------
 #p 6-31g* mp2
 -------------

 ------------------------------------------------------
 Input file generated by CHIRIPA (05-May-2021 14:53:14)
 ------------------------------------------------------
 Symbolic Z-matrix:
 Charge =  0 Multiplicity = 1

                         Standard orientation:
 ---------------------------------------------------------------------
 Center     Atomic      Atomic             Coordinates (Angstroms)
 Number     Number       Type             X           Y           Z
 ---------------------------------------------------------------------
      1          6           0        3.214992   -0.003279    0.074533
      2          6           0        2.154593   -0.185071   -1.011971
      3          6           0        0.731325   -0.193773   -0.453377
      4          1           0        3.114815   -0.809323    0.814264
      5          1           0        3.024303    0.937387    0.609491
      6          1           0        2.348041   -1.124434   -1.545629
      7          1           0        2.257430    0.621391   -1.749304
      8          1           0        0.514068    0.747284    0.062191
      9          1           0        0.605194   -1.008461    0.267023
     10          1           0       -0.010693   -0.324890   -1.247151
     11          6           0        4.642904    0.007503   -0.468310
     12          6           0        5.703303    0.189295    0.618194
     13          6           0        7.126571    0.197997    0.059600
     14          1           0        4.833594   -0.933163   -1.003268
     15          1           0        4.743082    0.813547   -1.208041
     16          1           0        5.600467   -0.617168    1.355526
     17          1           0        5.509855    1.128658    1.151852
     18          1           0        7.252703    1.012685   -0.660800
     19          1           0        7.343829   -0.743060   -0.455968
     20          1           0        7.868589    0.329114    0.853374
     21          6           0       -3.328277    2.505660    0.042700
     22          6           0       -2.592126    1.923196    1.079685
     23          6           0       -2.442153    0.535054    1.151224
     24          6           0       -3.044472   -0.244047    0.164562
     25          6           0       -3.784027    0.306489   -0.881028
     26          6           0       -3.920834    1.696874   -0.932628
     27          1           0       -3.439665    3.584873   -0.005130
     28          1           0       -2.130834    2.548839    1.838516
     29          1           0       -1.877640    0.057846    1.943067
     30          1           0       -4.232228   -0.343216   -1.622928
     31          1           0       -4.493103    2.146468   -1.739112
     32          7           0       -2.892672   -1.714798    0.229744
     33          8           0       -3.433141   -2.379209   -0.651784
     34          8           0       -2.236097   -2.175314    1.161125
 ---------------------------------------------------------------------

 SCF Done:  E(RHF) =  -669.535614198     A.U. after   15 cycles
 E2 =    -0.2092491677D+01 EUMP2 =    -0.67162810587459D+03

 The electronic state is 1-A.
 Alpha  occ. eigenvalues --  -20.60782 -20.60776 -15.85818 -11.31142 -11.27744
 Alpha  occ. eigenvalues --  -11.27722 -11.27489 -11.26744 -11.26734 -11.21544
 Alpha  occ. eigenvalues --  -11.21431 -11.21314 -11.21253 -11.21022 -11.20840
 Alpha  occ. eigenvalues --   -1.59842  -1.39399  -1.19337  -1.08737  -1.08328
 Alpha  occ. eigenvalues --   -1.04744  -1.03415  -0.95876  -0.95571  -0.86902
 Alpha  occ. eigenvalues --   -0.86134  -0.82413  -0.79494  -0.78149  -0.77456
 Alpha  occ. eigenvalues --   -0.72044  -0.71152  -0.70454  -0.65002  -0.64950
 Alpha  occ. eigenvalues --   -0.64748  -0.62093  -0.60808  -0.59249  -0.57483
 Alpha  occ. eigenvalues --   -0.55252  -0.55164  -0.53245  -0.52843  -0.52436
 Alpha  occ. eigenvalues --   -0.52242  -0.49800  -0.48801  -0.48797  -0.47808
 Alpha  occ. eigenvalues --   -0.46514  -0.45697  -0.45614  -0.44769  -0.43683
 Alpha  occ. eigenvalues --   -0.37293  -0.36297
 Alpha virt. eigenvalues --    0.05059   0.11281   0.16506   0.21343   0.22975
 Alpha virt. eigenvalues --    0.24350   0.26737   0.26921   0.27661   0.27821
 Alpha virt. eigenvalues --    0.28716   0.30618   0.31576   0.31834   0.31879

 Mulliken charges:
               1
     1  C   -0.298413
     2  C   -0.300232
     3  C   -0.482172
     4  H    0.152220
     5  H    0.145612
     6  H    0.154796
     7  H    0.149235
     8  H    0.148240
     9  H    0.167174
    10  H    0.158860
    11  C   -0.298164
    12  C   -0.299553
    13  C   -0.475651
    14  H    0.150943
    15  H    0.148465
    16  H    0.152903
    17  H    0.150314
    18  H    0.154495
    19  H    0.155915
    20  H    0.159937
    21  C   -0.170376
    22  C   -0.220014
    23  C   -0.165424
    24  C    0.160640
    25  C   -0.172072
    26  C   -0.218687
    27  H    0.225421
    28  H    0.223160
    29  H    0.275959
    30  H    0.275450
    31  H    0.223204
    32  N    0.488986
    33  O   -0.460413
    34  O   -0.460757
 Sum of Mulliken charges =  -0.00000

 Dipole moment (field-independent basis, Debye):
    X=             -0.5901    Y=              5.1032    Z=             -0.2040  Tot=              5.1412
 Quadrupole moment (field-independent basis, Debye-Ang):
   XX=            -91.9001   YY=            -96.8433   ZZ=            -91.7366
   XY=            -15.8160   XZ=              3.5498   YZ=              1.2585

 Normal termination of Gaussian 16 at Thu May  6 08:58:57 2021.
