 Gaussian 16, Revision A.03,
 Gaussian 16:  EM64L-G16RevA.03 25-Dec-2016

 -------------
 #p 6-31g* mp2
 -------------

 ------------------------------------------------------
 Input file generated by CHIRIPA (05-May-2021 14:55:24)
 ------------------------------------------------------
 Symbolic Z-matrix:
 Charge =  0 Multiplicity = 1

                         Standard orientation:
 ---------------------------------------------------------------------
 Center     Atomic      Atomic             Coordinates (Angstroms)
 Number     Number       Type             X           Y           Z
 ---------------------------------------------------------------------
      1          6           0        4.216049   -2.106799    0.093093
      2          6           0        4.042385   -1.412407   -1.108649
      3          6           0        3.454985   -0.143771   -1.117130
      4          6           0        3.051060    0.402990    0.099910
      5          6           0        3.210472   -0.263872    1.313653
      6          6           0        3.800271   -1.531330    1.298283
      7          1           0        4.673287   -3.091848    0.090417
      8          1           0        4.364329   -1.856865   -2.046121
      9          1           0        3.308529    0.415843   -2.032990
     10          1           0        2.879481    0.205102    2.232308
     11          1           0        3.933881   -2.068293    2.233090
     12          7           0        2.427936    1.745415    0.103557
     13          8           0        2.080572    2.205233    1.189164
     14          8           0        2.298695    2.312371   -0.979261
     15          6           0       -4.689703    0.152203   -0.031902
     16          6           0       -5.904229   -0.754622    0.169548
     17          6           0       -7.202887    0.029927    0.358651
     18          1           0       -4.592499    0.821852    0.833585
     19          1           0       -4.861660    0.794761   -0.906514
     20          1           0       -5.729446   -1.396245    1.042697
     21          1           0       -5.998440   -1.422322   -0.696430
     22          1           0       -7.404322    0.657905   -0.515230
     23          1           0       -7.133799    0.684129    1.233777
     24          1           0       -8.058260   -0.637865    0.500966
     25          6           0       -3.383918   -0.617465   -0.222330
     26          6           0       -2.169393    0.289361   -0.423780
     27          6           0       -0.870733   -0.495188   -0.612882
     28          1           0       -3.211961   -1.260023    0.652282
     29          1           0       -3.481122   -1.287113   -1.087816
     30          1           0       -2.075181    0.957060    0.442198
     31          1           0       -2.344176    0.930983   -1.296929
     32          1           0       -0.939823   -1.149391   -1.488009
     33          1           0       -0.669300   -1.123166    0.260999
     34          1           0       -0.015362    0.172603   -0.755197
 ---------------------------------------------------------------------

 SCF Done:  E(RHF) =  -669.535717832     A.U. after   15 cycles
 E2 =    -0.2091632566D+01 EUMP2 =    -0.67162735039773D+03

 The electronic state is 1-A.
 Alpha  occ. eigenvalues --  -20.60830 -20.60825 -15.85863 -11.31186 -11.27756
 Alpha  occ. eigenvalues --  -11.27752 -11.27497 -11.26770 -11.26759 -11.21373
 Alpha  occ. eigenvalues --  -11.21149 -11.21092 -11.21035 -11.20855 -11.20780
 Alpha  occ. eigenvalues --   -1.59901  -1.39454  -1.19361  -1.08770  -1.08116
 Alpha  occ. eigenvalues --   -1.04759  -1.03221  -0.95696  -0.95609  -0.86720
 Alpha  occ. eigenvalues --   -0.86162  -0.82442  -0.79283  -0.77919  -0.77494
 Alpha  occ. eigenvalues --   -0.72088  -0.71242  -0.70474  -0.65018  -0.64767
 Alpha  occ. eigenvalues --   -0.64747  -0.62110  -0.60618  -0.59059  -0.57290
 Alpha  occ. eigenvalues --   -0.55268  -0.54993  -0.53137  -0.52856  -0.52345
 Alpha  occ. eigenvalues --   -0.52119  -0.49644  -0.48849  -0.48845  -0.47604
 Alpha  occ. eigenvalues --   -0.46309  -0.45467  -0.45386  -0.44862  -0.43483
 Alpha  occ. eigenvalues --   -0.37319  -0.36354
 Alpha virt. eigenvalues --    0.05037   0.11270   0.16528   0.21416   0.23146
 Alpha virt. eigenvalues --    0.24480   0.26966   0.27320   0.27806   0.27954
 Alpha virt. eigenvalues --    0.28400   0.30664   0.31668   0.31742   0.32199

 Mulliken charges:
               1
     1  C   -0.170520
     2  C   -0.217993
     3  C   -0.171460
     4  C    0.157546
     5  C   -0.170775
     6  C   -0.218574
     7  H    0.225571
     8  H    0.223459
     9  H    0.275671
    10  H    0.275426
    11  H    0.223326
    12  N    0.490109
    13  O   -0.459211
    14  O   -0.460311
    15  C   -0.298308
    16  C   -0.299307
    17  C   -0.475587
    18  H    0.151078
    19  H    0.150273
    20  H    0.150840
    21  H    0.150878
    22  H    0.155422
    23  H    0.155602
    24  H    0.159127
    25  C   -0.298343
    26  C   -0.299285
    27  C   -0.477275
    28  H    0.147339
    29  H    0.147504
    30  H    0.157898
    31  H    0.154753
    32  H    0.151891
    33  H    0.151667
    34  H    0.161571
 Sum of Mulliken charges =  -0.00000

 Dipole moment (field-independent basis, Debye):
    X=              2.2584    Y=             -4.6656    Z=              0.0015  Tot=              5.1835
 Quadrupole moment (field-independent basis, Debye-Ang):
   XX=            -83.3093   YY=            -99.4732   ZZ=            -88.7992
   XY=            -13.6252   XZ=             -0.0965   YZ=             -0.8200

 Normal termination of Gaussian 16 at Thu May  6 03:08:58 2021.
