 Gaussian 16, Revision A.03,
 Gaussian 16:  EM64L-G16RevA.03 25-Dec-2016

 -------------
 #p 6-31g* mp2
 -------------

 ------------------------------------------------------
 Input file generated by CHIRIPA (05-May-2021 14:53:15)
 ------------------------------------------------------
 Symbolic Z-matrix:
 Charge =  0 Multiplicity = 1

                         Standard orientation:
 ---------------------------------------------------------------------
 Center     Atomic      Atomic             Coordinates (Angstroms)
 Number     Number       Type             X           Y           Z
 ---------------------------------------------------------------------
      1          6           0       -4.213731   -0.267802    0.199263
      2          6           0       -4.004647   -1.590142   -0.539442
      3          6           0       -5.283048   -2.423667   -0.632833
      4          1           0       -4.592449   -0.475344    1.209433
      5          1           0       -4.993635    0.311577   -0.314026
      6          1           0       -3.224394   -2.166253   -0.025712
      7          1           0       -3.626201   -1.379437   -1.547905
      8          1           0       -6.064917   -1.871602   -1.164346
      9          1           0       -5.660826   -2.662888    0.366496
     10          1           0       -5.110854   -3.364610   -1.164656
     11          6           0       -2.944743    0.576645    0.300784
     12          6           0       -3.153827    1.898986    1.039488
     13          6           0       -1.875426    2.732511    1.132880
     14          1           0       -2.164839   -0.002734    0.814073
     15          1           0       -2.566025    0.784187   -0.709386
     16          1           0       -3.532272    1.688280    2.047952
     17          1           0       -3.934080    2.475096    0.525759
     18          1           0       -1.497648    2.971732    0.133551
     19          1           0       -1.093557    2.180445    1.664393
     20          1           0       -2.047620    3.673453    1.664703
     21          6           0        1.401688    1.668211   -1.300339
     22          6           0        0.811663    0.461021   -0.911644
     23          6           0        1.574705   -0.537201   -0.298562
     24          6           0        2.931103   -0.293581   -0.088503
     25          6           0        3.547943    0.898673   -0.464435
     26          6           0        2.765540    1.882806   -1.075891
     27          1           0        0.801418    2.438180   -1.775965
     28          1           0       -0.247296    0.291605   -1.084700
     29          1           0        1.143502   -1.481030    0.012355
     30          1           0        4.605946    1.038502   -0.278705
     31          1           0        3.226440    2.819355   -1.376708
     32          7           0        3.749149   -1.342896    0.559680
     33          8           0        4.942128   -1.103738    0.733579
     34          8           0        3.181865   -2.384637    0.881551
 ---------------------------------------------------------------------

 SCF Done:  E(RHF) =  -669.535252417     A.U. after   15 cycles
 E2 =    -0.2092437092D+01 EUMP2 =    -0.67162768950915D+03

 The electronic state is 1-A.
 Alpha  occ. eigenvalues --  -20.60707 -20.60701 -15.85757 -11.31101 -11.27661
 Alpha  occ. eigenvalues --  -11.27640 -11.27387 -11.26682 -11.26581 -11.22446
 Alpha  occ. eigenvalues --  -11.22385 -11.22295 -11.22120 -11.21867 -11.21577
 Alpha  occ. eigenvalues --   -1.59782  -1.39337  -1.19262  -1.09262  -1.08660
 Alpha  occ. eigenvalues --   -1.04659  -1.04260  -0.96721  -0.95504  -0.87733
 Alpha  occ. eigenvalues --   -0.86062  -0.82337  -0.80344  -0.79137  -0.77368
 Alpha  occ. eigenvalues --   -0.71977  -0.71105  -0.70379  -0.65891  -0.64911
 Alpha  occ. eigenvalues --   -0.64659  -0.62025  -0.61644  -0.60078  -0.58344
 Alpha  occ. eigenvalues --   -0.56020  -0.55164  -0.53378  -0.53243  -0.52973
 Alpha  occ. eigenvalues --   -0.52674  -0.50653  -0.48757  -0.48734  -0.48615
 Alpha  occ. eigenvalues --   -0.47376  -0.46588  -0.46543  -0.44747  -0.44549
 Alpha  occ. eigenvalues --   -0.37226  -0.36245
 Alpha virt. eigenvalues --    0.05121   0.11339   0.16557   0.19867   0.22605
 Alpha virt. eigenvalues --    0.23706   0.24982   0.25268   0.26609   0.28575
 Alpha virt. eigenvalues --    0.29179   0.30370   0.31086   0.31552   0.31732

 Mulliken charges:
               1
     1  C   -0.297503
     2  C   -0.301261
     3  C   -0.476045
     4  H    0.153815
     5  H    0.151500
     6  H    0.152285
     7  H    0.149107
     8  H    0.156098
     9  H    0.157516
    10  H    0.162775
    11  C   -0.303757
    12  C   -0.299722
    13  C   -0.476396
    14  H    0.150806
    15  H    0.141346
    16  H    0.156725
    17  H    0.153589
    18  H    0.145638
    19  H    0.161289
    20  H    0.163653
    21  C   -0.172521
    22  C   -0.221137
    23  C   -0.175326
    24  C    0.158969
    25  C   -0.171596
    26  C   -0.218599
    27  H    0.224767
    28  H    0.234131
    29  H    0.275173
    30  H    0.275163
    31  H    0.223011
    32  N    0.488043
    33  O   -0.460714
    34  O   -0.460821
 Sum of Mulliken charges =  -0.00000

 Dipole moment (field-independent basis, Debye):
    X=             -3.1104    Y=              3.6887    Z=             -2.1681  Tot=              5.2898
 Quadrupole moment (field-independent basis, Debye-Ang):
   XX=           -108.5377   YY=            -95.8297   ZZ=            -94.2677
   XY=             13.9783   XZ=             -7.0214   YZ=             -0.2632

 Normal termination of Gaussian 16 at Thu May  6 02:43:48 2021.
