 Gaussian 16, Revision A.03,
 Gaussian 16:  EM64L-G16RevA.03 25-Dec-2016

 -------------
 #p 6-31g* mp2
 -------------

 ------------------------------------------------------
 Input file generated by CHIRIPA (05-May-2021 14:51:09)
 ------------------------------------------------------
 Symbolic Z-matrix:
 Charge =  0 Multiplicity = 1

                         Standard orientation:
 ---------------------------------------------------------------------
 Center     Atomic      Atomic             Coordinates (Angstroms)
 Number     Number       Type             X           Y           Z
 ---------------------------------------------------------------------
      1          6           0        2.724896   -0.915909   -0.212913
      2          6           0        2.251664   -1.891649    0.865033
      3          6           0        1.250911   -2.918716    0.334543
      4          1           0        1.854192   -0.396767   -0.636364
      5          1           0        3.181489   -1.482916   -1.035969
      6          1           0        1.797345   -1.322878    1.686439
      7          1           0        3.123615   -2.408390    1.286100
      8          1           0        1.697287   -3.511315   -0.470551
      9          1           0        0.363482   -2.419635   -0.067937
     10          1           0        0.925835   -3.606186    1.121671
     11          6           0        3.725730    0.116972    0.302079
     12          6           0        4.198962    1.092712   -0.775868
     13          6           0        5.199716    2.119778   -0.245377
     14          1           0        3.269138    0.683979    1.125134
     15          1           0        4.596435   -0.402171    0.725529
     16          1           0        3.327012    1.609452   -1.196935
     17          1           0        4.653282    0.523940   -1.597274
     18          1           0        6.087145    1.620698    0.157102
     19          1           0        4.753340    2.712378    0.559716
     20          1           0        5.524792    2.807248   -1.032506
     21          6           0       -3.537878   -0.215970   -0.371647
     22          6           0       -2.883714   -1.529369    0.058513
     23          6           0       -3.519961   -2.751546   -0.604259
     24          1           0       -4.608830   -0.250456   -0.129126
     25          1           0       -3.467697   -0.119997   -1.464011
     26          1           0       -2.953882   -1.622178    1.149879
     27          1           0       -1.814157   -1.491676   -0.184886
     28          1           0       -3.436998   -2.685761   -1.693933
     29          1           0       -4.583198   -2.817007   -0.351584
     30          1           0       -3.037066   -3.679579   -0.282661
     31          6           0       -2.912748    1.014907    0.282482
     32          6           0       -3.566913    2.328306   -0.147678
     33          6           0       -2.930666    3.550484    0.515094
     34          1           0       -2.982930    0.918934    1.374845
     35          1           0       -1.841796    1.049394    0.039961
     36          1           0       -4.636470    2.290613    0.095721
     37          1           0       -3.496745    2.421117   -1.239044
     38          1           0       -1.867429    3.615944    0.262419
     39          1           0       -3.013629    3.484700    1.604767
     40          1           0       -3.413561    4.478517    0.193496
 ---------------------------------------------------------------------

 SCF Done:  E(RHF) =  -470.733308265     A.U. after   11 cycles
 E2 =    -0.1582629041D+01 EUMP2 =    -0.47231593730576D+03

 The electronic state is 1-A.
 Alpha  occ. eigenvalues --  -11.21632 -11.21616 -11.21607 -11.21599 -11.21436
 Alpha  occ. eigenvalues --  -11.21421 -11.21374 -11.21361 -11.21103 -11.21080
 Alpha  occ. eigenvalues --  -11.21062 -11.21044  -1.08460  -1.08437  -1.03562
 Alpha  occ. eigenvalues --   -1.03521  -0.96007  -0.95973  -0.87022  -0.86992
 Alpha  occ. eigenvalues --   -0.79661  -0.79554  -0.78293  -0.78233  -0.65142
 Alpha  occ. eigenvalues --   -0.65026  -0.61065  -0.60835  -0.59366  -0.59350
 Alpha  occ. eigenvalues --   -0.57647  -0.57559  -0.55350  -0.55211  -0.52695
 Alpha  occ. eigenvalues --   -0.52667  -0.52434  -0.52400  -0.50043  -0.49855
 Alpha  occ. eigenvalues --   -0.48025  -0.47835  -0.46800  -0.46488  -0.45904
 Alpha  occ. eigenvalues --   -0.45770  -0.45747  -0.45550  -0.43803  -0.43791
 Alpha virt. eigenvalues --    0.21159   0.23232   0.23525   0.24690   0.25789
 Alpha virt. eigenvalues --    0.26926   0.27078   0.27458   0.28265   0.28849
 Alpha virt. eigenvalues --    0.30401   0.31515   0.31692   0.31781   0.32174

 Mulliken charges:
               1
     1  C   -0.298080
     2  C   -0.299395
     3  C   -0.482510
     4  H    0.148447
     5  H    0.149619
     6  H    0.152328
     7  H    0.151954
     8  H    0.155037
     9  H    0.161877
    10  H    0.160312
    11  C   -0.298379
    12  C   -0.299600
    13  C   -0.475732
    14  H    0.149732
    15  H    0.149795
    16  H    0.151642
    17  H    0.151944
    18  H    0.155239
    19  H    0.155286
    20  H    0.160269
    21  C   -0.297649
    22  C   -0.306394
    23  C   -0.475714
    24  H    0.149839
    25  H    0.149494
    26  H    0.152106
    27  H    0.157541
    28  H    0.155059
    29  H    0.155164
    30  H    0.161292
    31  C   -0.298113
    32  C   -0.299678
    33  C   -0.475691
    34  H    0.149651
    35  H    0.148558
    36  H    0.152161
    37  H    0.152027
    38  H    0.154900
    39  H    0.155222
    40  H    0.160437
 Sum of Mulliken charges =  -0.00000

 Dipole moment (field-independent basis, Debye):
    X=             -0.0119    Y=             -0.0092    Z=              0.0067  Tot=              0.0165
 Quadrupole moment (field-independent basis, Debye-Ang):
   XX=            -84.3451   YY=            -85.9759   ZZ=            -84.3410
   XY=             -1.3543   XZ=             -1.0144   YZ=             -0.4881

 Normal termination of Gaussian 16 at Thu May  6 03:45:39 2021.
