 Gaussian 16, Revision A.03,
 Gaussian 16:  EM64L-G16RevA.03 25-Dec-2016

 -------------
 #p 6-31g* mp2
 -------------

 ------------------------------------------------------
 Input file generated by CHIRIPA (05-May-2021 14:57:27)
 ------------------------------------------------------
 Symbolic Z-matrix:
 Charge =  0 Multiplicity = 1

                         Standard orientation:
 ---------------------------------------------------------------------
 Center     Atomic      Atomic             Coordinates (Angstroms)
 Number     Number       Type             X           Y           Z
 ---------------------------------------------------------------------
      1          6           0       -4.728749    1.538322    1.382111
      2          6           0       -3.460897    1.864667    0.889595
      3          6           0       -2.756906    0.961855    0.087177
      4          6           0       -3.353412   -0.263917   -0.204292
      5          6           0       -4.614971   -0.618205    0.271354
      6          6           0       -5.300731    0.300111    1.071965
      7          1           0       -5.268545    2.245670    2.004746
      8          1           0       -3.014226    2.825549    1.128836
      9          1           0       -1.773937    1.188786   -0.307401
     10          1           0       -5.034286   -1.583747    0.015776
     11          1           0       -6.285210    0.043972    1.453067
     12          7           0       -2.617779   -1.227890   -1.052819
     13          8           0       -3.165210   -2.301305   -1.295174
     14          8           0       -1.507688   -0.891784   -1.459474
     15          6           0        3.988060   -2.093026    1.191756
     16          6           0        4.946849   -1.074729    1.173912
     17          6           0        4.673290    0.147235    0.552207
     18          6           0        3.425019    0.317543   -0.044540
     19          6           0        2.449011   -0.677794   -0.043468
     20          6           0        2.744394   -1.891663    0.584081
     21          1           0        4.209045   -3.039133    1.676982
     22          1           0        5.913544   -1.228306    1.645036
     23          1           0        5.397247    0.952523    0.523650
     24          1           0        1.494303   -0.495157   -0.521582
     25          1           0        1.997869   -2.680709    0.596395
     26          7           0        3.123863    1.606897   -0.705805
     27          8           0        2.016586    1.731997   -1.224385
     28          8           0        4.000795    2.467980   -0.693002
 ---------------------------------------------------------------------

 SCF Done:  E(RHF) =  -868.340038980     A.U. after   16 cycles
 E2 =    -0.2598526349D+01 EUMP2 =    -0.87093856532824D+03

 The electronic state is 1-A.
 Alpha  occ. eigenvalues --  -20.61036 -20.61006 -20.60427 -20.60421 -15.86056
 Alpha  occ. eigenvalues --  -15.85472 -11.31196 -11.30673 -11.27780 -11.27671
 Alpha  occ. eigenvalues --  -11.27472 -11.27301 -11.27094 -11.27005 -11.26751
 Alpha  occ. eigenvalues --  -11.26671 -11.26296 -11.26156  -1.60091  -1.59505
 Alpha  occ. eigenvalues --   -1.39648  -1.39060  -1.19359  -1.18851  -1.08801
 Alpha  occ. eigenvalues --   -1.08290  -1.04719  -1.04213  -0.95665  -0.95139
 Alpha  occ. eigenvalues --   -0.86131  -0.85628  -0.82498  -0.81964  -0.77566
 Alpha  occ. eigenvalues --   -0.77013  -0.72281  -0.71694  -0.71404  -0.70827
 Alpha  occ. eigenvalues --   -0.70461  -0.69954  -0.65012  -0.64716  -0.64501
 Alpha  occ. eigenvalues --   -0.64211  -0.62053  -0.61530  -0.55244  -0.54757
 Alpha  occ. eigenvalues --   -0.53078  -0.52799  -0.52585  -0.52288  -0.49035
 Alpha  occ. eigenvalues --   -0.49018  -0.48453  -0.48437  -0.45099  -0.44502
 Alpha  occ. eigenvalues --   -0.37347  -0.36864  -0.36317  -0.35820
 Alpha virt. eigenvalues --    0.04908   0.05476   0.11333   0.11823   0.16418
 Alpha virt. eigenvalues --    0.16986   0.21304   0.22084   0.26937   0.27689
 Alpha virt. eigenvalues --    0.28204   0.29213   0.30791   0.31552   0.32108

 Mulliken charges:
               1
     1  C   -0.170355
     2  C   -0.219501
     3  C   -0.174023
     4  C    0.156333
     5  C   -0.171382
     6  C   -0.219023
     7  H    0.226119
     8  H    0.227430
     9  H    0.285173
    10  H    0.274449
    11  H    0.223081
    12  N    0.490199
    13  O   -0.460086
    14  O   -0.466022
    15  C   -0.170868
    16  C   -0.219528
    17  C   -0.171570
    18  C    0.156382
    19  C   -0.178571
    20  C   -0.221478
    21  H    0.224197
    22  H    0.221164
    23  H    0.273240
    24  H    0.292944
    25  H    0.228376
    26  N    0.487712
    27  O   -0.461406
    28  O   -0.462985
 Sum of Mulliken charges =  -0.00000

 Dipole moment (field-independent basis, Debye):
    X=             -1.7452    Y=             -1.1343    Z=              5.2900  Tot=              5.6848
 Quadrupole moment (field-independent basis, Debye-Ang):
   XX=            -74.2720   YY=           -107.7488   ZZ=           -107.5545
   XY=            -22.0938   XZ=             -0.9006   YZ=             -0.2432

 Normal termination of Gaussian 16 at Fri May  7 00:31:15 2021.
