 Gaussian 16, Revision A.03,
 Gaussian 16:  EM64L-G16RevA.03 25-Dec-2016

 -------------
 #p 6-31g* mp2
 -------------

 ------------------------------------------------------
 Input file generated by CHIRIPA (05-May-2021 14:51:10)
 ------------------------------------------------------
 Symbolic Z-matrix:
 Charge =  0 Multiplicity = 1

                         Standard orientation:
 ---------------------------------------------------------------------
 Center     Atomic      Atomic             Coordinates (Angstroms)
 Number     Number       Type             X           Y           Z
 ---------------------------------------------------------------------
      1          6           0        3.842420    0.702100   -0.410540
      2          6           0        2.418543    1.139952   -0.065802
      3          6           0        2.070074    2.516862   -0.631913
      4          1           0        4.551696    1.448141   -0.026750
      5          1           0        3.960872    0.691150   -1.502897
      6          1           0        2.302395    1.148739    1.025549
      7          1           0        1.712584    0.392685   -0.450291
      8          1           0        2.158050    2.518243   -1.723178
      9          1           0        2.751212    3.278593   -0.238952
     10          1           0        1.047764    2.810146   -0.373598
     11          6           0        4.205642   -0.672427    0.148453
     12          6           0        5.629519   -1.110278   -0.196285
     13          6           0        5.977988   -2.487189    0.369825
     14          1           0        4.087190   -0.661476    1.240810
     15          1           0        3.496366   -1.418467   -0.235338
     16          1           0        6.335477   -0.363011    0.188204
     17          1           0        5.745667   -1.119066   -1.287637
     18          1           0        5.296850   -3.248919   -0.023136
     19          1           0        5.890011   -2.488569    1.461090
     20          1           0        7.000298   -2.780472    0.111511
     21          6           0       -4.756812   -0.119635   -0.057321
     22          6           0       -5.166800   -1.592013   -0.102042
     23          6           0       -6.635572   -1.785444   -0.480310
     24          1           0       -5.395226    0.410463    0.662657
     25          1           0       -4.946819    0.336648   -1.038696
     26          1           0       -4.974786   -2.045729    0.878717
     27          1           0       -4.527208   -2.118707   -0.821856
     28          1           0       -6.838436   -1.358785   -1.467938
     29          1           0       -7.288556   -1.285393    0.242298
     30          1           0       -6.907212   -2.845347   -0.506319
     31          6           0       -3.291250    0.089961    0.319408
     32          6           0       -2.881261    1.562339    0.364129
     33          6           0       -1.412490    1.755770    0.742397
     34          1           0       -3.101243   -0.366322    1.300784
     35          1           0       -2.652835   -0.440136   -0.400570
     36          1           0       -3.520853    2.089033    1.083943
     37          1           0       -3.073277    2.016056   -0.616630
     38          1           0       -0.759506    1.255719    0.019789
     39          1           0       -1.209626    1.329112    1.730025
     40          1           0       -1.140850    2.815674    0.768406
 ---------------------------------------------------------------------

 SCF Done:  E(RHF) =  -470.732288626     A.U. after   11 cycles
 E2 =    -0.1583195400D+01 EUMP2 =    -0.47231548402590D+03

 The electronic state is 1-A.
 Alpha  occ. eigenvalues --  -11.21611 -11.21608 -11.21571 -11.21519 -11.21418
 Alpha  occ. eigenvalues --  -11.21358 -11.21356 -11.21294 -11.21079 -11.21061
 Alpha  occ. eigenvalues --  -11.21049 -11.20869  -1.08446  -1.08373  -1.03574
 Alpha  occ. eigenvalues --   -1.03439  -0.96067  -0.95850  -0.87085  -0.86868
 Alpha  occ. eigenvalues --   -0.79619  -0.79530  -0.78268  -0.78176  -0.65087
 Alpha  occ. eigenvalues --   -0.65001  -0.61026  -0.60832  -0.59545  -0.59156
 Alpha  occ. eigenvalues --   -0.57653  -0.57528  -0.55302  -0.55148  -0.52984
 Alpha  occ. eigenvalues --   -0.52466  -0.52429  -0.52140  -0.49887  -0.49851
 Alpha  occ. eigenvalues --   -0.47974  -0.47791  -0.46672  -0.46519  -0.45827
 Alpha  occ. eigenvalues --   -0.45731  -0.45690  -0.45631  -0.43915  -0.43575
 Alpha virt. eigenvalues --    0.22129   0.23039   0.23523   0.24963   0.26152
 Alpha virt. eigenvalues --    0.26836   0.26898   0.27313   0.27833   0.29117
 Alpha virt. eigenvalues --    0.29594   0.30899   0.31449   0.31764   0.32331

 Mulliken charges:
               1
     1  C   -0.298228
     2  C   -0.299167
     3  C   -0.483526
     4  H    0.149596
     5  H    0.149197
     6  H    0.152707
     7  H    0.150751
     8  H    0.153520
     9  H    0.154144
    10  H    0.169631
    11  C   -0.298187
    12  C   -0.299589
    13  C   -0.475658
    14  H    0.149465
    15  H    0.149384
    16  H    0.151906
    17  H    0.151810
    18  H    0.155083
    19  H    0.155138
    20  H    0.160139
    21  C   -0.298310
    22  C   -0.299642
    23  C   -0.475711
    24  H    0.149730
    25  H    0.149549
    26  H    0.151969
    27  H    0.151880
    28  H    0.155191
    29  H    0.155209
    30  H    0.160278
    31  C   -0.298592
    32  C   -0.299839
    33  C   -0.481317
    34  H    0.149655
    35  H    0.149520
    36  H    0.151860
    37  H    0.151997
    38  H    0.162254
    39  H    0.155604
    40  H    0.160599
 Sum of Mulliken charges =  -0.00000

 Dipole moment (field-independent basis, Debye):
    X=             -0.0450    Y=              0.0018    Z=              0.0224  Tot=              0.0503
 Quadrupole moment (field-independent basis, Debye-Ang):
   XX=            -86.0613   YY=            -85.7051   ZZ=            -83.2497
   XY=              0.1735   XZ=             -0.3079   YZ=              0.7341

 Normal termination of Gaussian 16 at Wed May  5 19:48:23 2021.
