 Gaussian 16, Revision A.03,
 Gaussian 16:  EM64L-G16RevA.03 25-Dec-2016

 -------------
 #p 6-31g* mp2
 -------------

 ------------------------------------------------------
 Input file generated by CHIRIPA (05-May-2021 14:55:20)
 ------------------------------------------------------
 Symbolic Z-matrix:
 Charge =  0 Multiplicity = 1

                         Standard orientation:
 ---------------------------------------------------------------------
 Center     Atomic      Atomic             Coordinates (Angstroms)
 Number     Number       Type             X           Y           Z
 ---------------------------------------------------------------------
      1          6           0        1.786665    0.869628    2.378285
      2          6           0        2.588118    1.248450    1.296302
      3          6           0        2.611588    0.481850    0.127404
      4          6           0        1.817552   -0.662703    0.074528
      5          6           0        1.008581   -1.066288    1.135647
      6          6           0        1.000840   -0.284497    2.294652
      7          1           0        1.774543    1.471042    3.282470
      8          1           0        3.199427    2.144266    1.358436
      9          1           0        3.222813    0.752043   -0.725132
     10          1           0        0.410014   -1.964476    1.044034
     11          1           0        0.377453   -0.581114    3.133373
     12          7           0        1.834072   -1.482309   -1.157695
     13          8           0        1.125394   -2.486275   -1.179226
     14          8           0        2.555387   -1.105231   -2.078648
     15          6           0       -3.030454    0.387888   -0.371970
     16          6           0       -3.234374   -0.777441    0.596747
     17          6           0       -4.654675   -1.341824    0.551923
     18          1           0       -3.750279    1.183370   -0.135315
     19          1           0       -3.260395    0.051753   -1.392527
     20          1           0       -3.002783   -0.439585    1.614998
     21          1           0       -2.513853   -1.570162    0.357880
     22          1           0       -4.893171   -1.705492   -0.452799
     23          1           0       -5.384880   -0.568492    0.811462
     24          1           0       -4.778331   -2.173867    1.252119
     25          6           0       -1.615508    0.962824   -0.338720
     26          6           0       -1.411589    2.128153   -1.307436
     27          6           0        0.008712    2.692537   -1.262613
     28          1           0       -1.385567    1.298959    0.681837
     29          1           0       -0.895684    0.167342   -0.575374
     30          1           0       -2.132111    2.920874   -1.068570
     31          1           0       -1.643181    1.790298   -2.325686
     32          1           0        0.738917    1.919204   -1.522150
     33          1           0        0.247208    3.056205   -0.257890
     34          1           0        0.132369    3.524580   -1.962808
 ---------------------------------------------------------------------

 SCF Done:  E(RHF) =  -669.533051989     A.U. after   15 cycles
 E2 =    -0.2097078256D+01 EUMP2 =    -0.67163013024551D+03

 The electronic state is 1-A.
 Alpha  occ. eigenvalues --  -20.60886 -20.60878 -15.85913 -11.31152 -11.27783
 Alpha  occ. eigenvalues --  -11.27761 -11.27545 -11.26776 -11.26762 -11.21759
 Alpha  occ. eigenvalues --  -11.21531 -11.21368 -11.21250 -11.21143 -11.21025
 Alpha  occ. eigenvalues --   -1.59951  -1.39507  -1.19402  -1.08809  -1.08431
 Alpha  occ. eigenvalues --   -1.04795  -1.03556  -0.95995  -0.95649  -0.87026
 Alpha  occ. eigenvalues --   -0.86199  -0.82478  -0.79647  -0.78296  -0.77523
 Alpha  occ. eigenvalues --   -0.72138  -0.71286  -0.70525  -0.65096  -0.65032
 Alpha  occ. eigenvalues --   -0.64775  -0.62147  -0.60956  -0.59388  -0.57643
 Alpha  occ. eigenvalues --   -0.55315  -0.55277  -0.53307  -0.52886  -0.52669
 Alpha  occ. eigenvalues --   -0.52473  -0.49951  -0.48903  -0.48889  -0.47899
 Alpha  occ. eigenvalues --   -0.46680  -0.45769  -0.45658  -0.44888  -0.43792
 Alpha  occ. eigenvalues --   -0.37281  -0.36246
 Alpha virt. eigenvalues --    0.04959   0.11070   0.16425   0.20877   0.22957
 Alpha virt. eigenvalues --    0.23985   0.25652   0.26432   0.27461   0.28394
 Alpha virt. eigenvalues --    0.28795   0.30111   0.30922   0.31831   0.31879

 Mulliken charges:
               1
     1  C   -0.172126
     2  C   -0.215278
     3  C   -0.171156
     4  C    0.159316
     5  C   -0.170445
     6  C   -0.215430
     7  H    0.225658
     8  H    0.223841
     9  H    0.275818
    10  H    0.276224
    11  H    0.223765
    12  N    0.489139
    13  O   -0.460949
    14  O   -0.460607
    15  C   -0.297263
    16  C   -0.301819
    17  C   -0.475368
    18  H    0.148073
    19  H    0.153725
    20  H    0.144499
    21  H    0.154165
    22  H    0.158908
    23  H    0.154723
    24  H    0.158993
    25  C   -0.300424
    26  C   -0.300087
    27  C   -0.476679
    28  H    0.146041
    29  H    0.152906
    30  H    0.149740
    31  H    0.155655
    32  H    0.157339
    33  H    0.150001
    34  H    0.159100
 Sum of Mulliken charges =  -0.00000

 Dipole moment (field-independent basis, Debye):
    X=              0.0059    Y=              2.8242    Z=              4.3114  Tot=              5.1541
 Quadrupole moment (field-independent basis, Debye-Ang):
   XX=            -94.1225   YY=            -97.1837   ZZ=            -93.2601
   XY=              7.2461   XZ=              6.5683   YZ=             -3.5097

 Normal termination of Gaussian 16 at Thu May  6 09:17:14 2021.
