 Gaussian 16, Revision A.03,
 Gaussian 16:  EM64L-G16RevA.03 25-Dec-2016

 -------------
 #p 6-31g* mp2
 -------------

 ------------------------------------------------------
 Input file generated by CHIRIPA (05-May-2021 14:51:13)
 ------------------------------------------------------
 Symbolic Z-matrix:
 Charge =  0 Multiplicity = 1

                         Standard orientation:
 ---------------------------------------------------------------------
 Center     Atomic      Atomic             Coordinates (Angstroms)
 Number     Number       Type             X           Y           Z
 ---------------------------------------------------------------------
      1          6           0        3.782822    0.328117    0.483371
      2          6           0        2.641111   -0.307700    1.277233
      3          6           0        1.558543    0.699710    1.665775
      4          1           0        4.228945    1.136649    1.078516
      5          1           0        3.373882    0.796077   -0.422817
      6          1           0        3.052265   -0.775518    2.180956
      7          1           0        2.197778   -1.114938    0.680207
      8          1           0        1.121080    1.158550    0.773199
      9          1           0        1.980422    1.499899    2.282474
     10          1           0        0.752157    0.223897    2.232524
     11          6           0        4.872842   -0.666366    0.087662
     12          6           0        6.014553   -0.030549   -0.706199
     13          6           0        7.097121   -1.037959   -1.094742
     14          1           0        5.281782   -1.134326    0.993850
     15          1           0        4.426719   -1.474897   -0.507482
     16          1           0        6.457886    0.776689   -0.109174
     17          1           0        5.603399    0.437269   -1.609922
     18          1           0        6.675242   -1.838148   -1.711441
     19          1           0        7.534584   -1.496799   -0.202165
     20          1           0        7.903507   -0.562146   -1.661490
     21          6           0       -5.053690    0.034087   -0.089746
     22          6           0       -5.459420   -1.432486   -0.239854
     23          6           0       -6.914321   -1.686796    0.155598
     24          1           0       -5.212260    0.347076    0.951330
     25          1           0       -5.716556    0.655740   -0.707445
     26          1           0       -4.795106   -2.051320    0.376868
     27          1           0       -5.299685   -1.742075   -1.280650
     28          1           0       -7.592070   -1.094029   -0.467209
     29          1           0       -7.084623   -1.405032    1.199728
     30          1           0       -7.183117   -2.741497    0.040647
     31          6           0       -3.601973    0.304163   -0.481287
     32          6           0       -3.196244    1.770735   -0.331179
     33          6           0       -1.741343    2.025045   -0.726631
     34          1           0       -2.939108   -0.317491    0.136412
     35          1           0       -3.443404   -0.008828   -1.522363
     36          1           0       -3.355979    2.080324    0.709617
     37          1           0       -3.860558    2.389570   -0.947901
     38          1           0       -1.571041    1.743281   -1.770761
     39          1           0       -1.063594    1.432278   -0.103825
     40          1           0       -1.472547    3.079746   -0.611680
 ---------------------------------------------------------------------

 SCF Done:  E(RHF) =  -470.733239786     A.U. after   11 cycles
 E2 =    -0.1582242954D+01 EUMP2 =    -0.47231548274008D+03

 The electronic state is 1-A.
 Alpha  occ. eigenvalues --  -11.21602 -11.21594 -11.21593 -11.21573 -11.21397
 Alpha  occ. eigenvalues --  -11.21390 -11.21338 -11.21331 -11.21065 -11.21065
 Alpha  occ. eigenvalues --  -11.21063 -11.21010  -1.08426  -1.08411  -1.03538
 Alpha  occ. eigenvalues --   -1.03500  -0.96009  -0.95933  -0.87048  -0.86932
 Alpha  occ. eigenvalues --   -0.79639  -0.79529  -0.78244  -0.78217  -0.65081
 Alpha  occ. eigenvalues --   -0.65021  -0.61035  -0.60817  -0.59352  -0.59322
 Alpha  occ. eigenvalues --   -0.57621  -0.57548  -0.55472  -0.55075  -0.52696
 Alpha  occ. eigenvalues --   -0.52656  -0.52480  -0.52297  -0.50136  -0.49685
 Alpha  occ. eigenvalues --   -0.47975  -0.47819  -0.46738  -0.46462  -0.45804
 Alpha  occ. eigenvalues --   -0.45753  -0.45717  -0.45624  -0.43782  -0.43766
 Alpha virt. eigenvalues --    0.22301   0.23003   0.23649   0.24746   0.26188
 Alpha virt. eigenvalues --    0.26729   0.27047   0.27513   0.27740   0.28899
 Alpha virt. eigenvalues --    0.30635   0.31616   0.31699   0.31818   0.32110

 Mulliken charges:
               1
     1  C   -0.298630
     2  C   -0.299359
     3  C   -0.481875
     4  H    0.149640
     5  H    0.150162
     6  H    0.151843
     7  H    0.151961
     8  H    0.162069
     9  H    0.155520
    10  H    0.159136
    11  C   -0.298325
    12  C   -0.299674
    13  C   -0.475706
    14  H    0.149462
    15  H    0.149683
    16  H    0.151930
    17  H    0.152032
    18  H    0.155180
    19  H    0.155146
    20  H    0.160246
    21  C   -0.298296
    22  C   -0.299636
    23  C   -0.475695
    24  H    0.149683
    25  H    0.149510
    26  H    0.151880
    27  H    0.151865
    28  H    0.155175
    29  H    0.155189
    30  H    0.160205
    31  C   -0.298445
    32  C   -0.299139
    33  C   -0.482835
    34  H    0.149639
    35  H    0.149419
    36  H    0.152126
    37  H    0.151688
    38  H    0.154359
    39  H    0.162741
    40  H    0.160128
 Sum of Mulliken charges =  -0.00000

 Dipole moment (field-independent basis, Debye):
    X=              0.0163    Y=              0.0051    Z=              0.0039  Tot=              0.0175
 Quadrupole moment (field-independent basis, Debye-Ang):
   XX=            -86.3231   YY=            -85.2383   ZZ=            -83.2950
   XY=              0.2544   XZ=              1.2558   YZ=             -0.0967

 Normal termination of Gaussian 16 at Wed May  5 19:59:26 2021.
