 Gaussian 16, Revision A.03,
 Gaussian 16:  EM64L-G16RevA.03 25-Dec-2016

 -------------
 #p 6-31g* mp2
 -------------

 ------------------------------------------------------
 Input file generated by CHIRIPA (05-May-2021 14:53:11)
 ------------------------------------------------------
 Symbolic Z-matrix:
 Charge =  0 Multiplicity = 1

                         Standard orientation:
 ---------------------------------------------------------------------
 Center     Atomic      Atomic             Coordinates (Angstroms)
 Number     Number       Type             X           Y           Z
 ---------------------------------------------------------------------
      1          6           0        3.398229   -0.528499    0.009888
      2          6           0        2.851232   -1.584889    0.970524
      3          6           0        3.253398   -3.006590    0.577048
      4          1           0        3.039492   -0.744757   -1.005732
      5          1           0        4.493902   -0.604852   -0.022758
      6          1           0        1.757010   -1.505654    1.002403
      7          1           0        3.211157   -1.365981    1.984007
      8          1           0        4.343333   -3.108903    0.563770
      9          1           0        2.880923   -3.249370   -0.423412
     10          1           0        2.851767   -3.745739    1.277199
     11          6           0        3.004651    0.897808    0.389984
     12          6           0        3.551649    1.954197   -0.570651
     13          6           0        3.149482    3.375898   -0.177176
     14          1           0        1.908978    0.974161    0.422630
     15          1           0        3.363389    1.114065    1.405605
     16          1           0        3.191723    1.735289   -1.584135
     17          1           0        4.645871    1.874962   -0.602530
     18          1           0        3.521957    3.618678    0.823285
     19          1           0        2.059548    3.478212   -0.163897
     20          1           0        3.551114    4.115047   -0.877326
     21          6           0       -4.320278    1.402400    0.658935
     22          6           0       -3.051521    1.910056    0.360501
     23          6           0       -2.035984    1.062356   -0.091869
     24          6           0       -2.325256   -0.293787   -0.235004
     25          6           0       -3.579233   -0.829728    0.054129
     26          6           0       -4.579627    0.036537    0.505068
     27          1           0       -5.103290    2.068124    1.009790
     28          1           0       -2.847251    2.970369    0.479056
     29          1           0       -1.044829    1.428762   -0.330143
     30          1           0       -3.752769   -1.891282   -0.073959
     31          1           0       -5.564025   -0.360505    0.736076
     32          7           0       -1.258168   -1.201035   -0.713150
     33          8           0       -1.538421   -2.391931   -0.830889
     34          8           0       -0.161738   -0.704061   -0.961130
 ---------------------------------------------------------------------

 SCF Done:  E(RHF) =  -669.536412881     A.U. after   15 cycles
 E2 =    -0.2092485504D+01 EUMP2 =    -0.67162889838485D+03

 The electronic state is 1-A.
 Alpha  occ. eigenvalues --  -20.61108 -20.61099 -15.86115 -11.31376 -11.27934
 Alpha  occ. eigenvalues --  -11.27926 -11.27654 -11.26923 -11.26913 -11.20955
 Alpha  occ. eigenvalues --  -11.20788 -11.20452 -11.20222 -11.20092 -11.19776
 Alpha  occ. eigenvalues --   -1.60155  -1.39714  -1.19537  -1.08954  -1.07395
 Alpha  occ. eigenvalues --   -1.04924  -1.02573  -0.95807  -0.95053  -0.86328
 Alpha  occ. eigenvalues --   -0.86080  -0.82644  -0.78686  -0.77713  -0.77158
 Alpha  occ. eigenvalues --   -0.72357  -0.71464  -0.70647  -0.65205  -0.64927
 Alpha  occ. eigenvalues --   -0.63960  -0.62273  -0.59948  -0.58483  -0.56658
 Alpha  occ. eigenvalues --   -0.55430  -0.54332  -0.53257  -0.53016  -0.51803
 Alpha  occ. eigenvalues --   -0.51495  -0.49235  -0.49092  -0.48876  -0.47005
 Alpha  occ. eigenvalues --   -0.45710  -0.45331  -0.44682  -0.44331  -0.42798
 Alpha  occ. eigenvalues --   -0.37510  -0.36520
 Alpha virt. eigenvalues --    0.04775   0.11123   0.16261   0.20423   0.23142
 Alpha virt. eigenvalues --    0.25071   0.26209   0.27490   0.28211   0.28773
 Alpha virt. eigenvalues --    0.29236   0.31238   0.31647   0.32380   0.32992

 Mulliken charges:
               1
     1  C   -0.295959
     2  C   -0.300022
     3  C   -0.475940
     4  H    0.162795
     5  H    0.142124
     6  H    0.162723
     7  H    0.141938
     8  H    0.148367
     9  H    0.163792
    10  H    0.156029
    11  C   -0.300466
    12  C   -0.299936
    13  C   -0.473077
    14  H    0.154005
    15  H    0.143313
    16  H    0.155084
    17  H    0.150531
    18  H    0.153977
    19  H    0.145743
    20  H    0.158583
    21  C   -0.170230
    22  C   -0.218952
    23  C   -0.171791
    24  C    0.157510
    25  C   -0.170410
    26  C   -0.218630
    27  H    0.226416
    28  H    0.224593
    29  H    0.277721
    30  H    0.276002
    31  H    0.224143
    32  N    0.490055
    33  O   -0.457556
    34  O   -0.462474
 Sum of Mulliken charges =  -0.00000

 Dipole moment (field-independent basis, Debye):
    X=             -4.0944    Y=              3.0566    Z=              1.5174  Tot=              5.3300
 Quadrupole moment (field-independent basis, Debye-Ang):
   XX=            -75.7132   YY=            -95.5621   ZZ=            -96.2991
   XY=             -3.4837   XZ=             -3.4704   YZ=             -1.3422

 Normal termination of Gaussian 16 at Thu May  6 00:54:17 2021.
