 Gaussian 16, Revision A.03,
 Gaussian 16:  EM64L-G16RevA.03 25-Dec-2016

 -------------
 #p 6-31g* mp2
 -------------

 ------------------------------------------------------
 Input file generated by CHIRIPA (05-May-2021 14:55:21)
 ------------------------------------------------------
 Symbolic Z-matrix:
 Charge =  0 Multiplicity = 1

                         Standard orientation:
 ---------------------------------------------------------------------
 Center     Atomic      Atomic             Coordinates (Angstroms)
 Number     Number       Type             X           Y           Z
 ---------------------------------------------------------------------
      1          6           0       -3.838741   -2.285933    0.117749
      2          6           0       -3.279352   -1.739832    1.277654
      3          6           0       -2.617967   -0.508846    1.235338
      4          6           0       -2.534189    0.151889    0.010715
      5          6           0       -3.081235   -0.366200   -1.162150
      6          6           0       -3.738074   -1.598586   -1.096311
      7          1           0       -4.350755   -3.242736    0.159758
      8          1           0       -3.356004   -2.271407    2.221899
      9          1           0       -2.175831   -0.063126    2.118100
     10          1           0       -2.988727    0.187174   -2.088777
     11          1           0       -4.171551   -2.020290   -1.998701
     12          7           0       -1.836416    1.455820   -0.046534
     13          8           0       -1.776199    2.018110   -1.137791
     14          8           0       -1.362932    1.890861    1.000934
     15          6           0        3.568766   -0.571613   -0.381265
     16          6           0        4.600067   -1.411590    0.372952
     17          6           0        4.945493   -2.713404   -0.350756
     18          1           0        2.656090   -1.165860   -0.525613
     19          1           0        3.954971   -0.343258   -1.384308
     20          1           0        4.212620   -1.637125    1.374769
     21          1           0        5.510325   -0.815207    0.515691
     22          1           0        5.356122   -2.504763   -1.343960
     23          1           0        4.051044   -3.331350   -0.480001
     24          1           0        5.684398   -3.298286    0.205836
     25          6           0        3.213160    0.732930    0.329678
     26          6           0        2.181861    1.572907   -0.424539
     27          6           0        1.836434    2.874722    0.299170
     28          1           0        2.826957    0.504575    1.332721
     29          1           0        4.125838    1.327178    0.474027
     30          1           0        1.271603    0.976524   -0.567277
     31          1           0        2.569307    1.798442   -1.426356
     32          1           0        2.730884    3.492667    0.428414
     33          1           0        1.425805    2.666080    1.292373
     34          1           0        1.097530    3.459603   -0.257422
 ---------------------------------------------------------------------

 SCF Done:  E(RHF) =  -669.535888511     A.U. after   15 cycles
 E2 =    -0.2092396959D+01 EUMP2 =    -0.67162828547047D+03

 The electronic state is 1-A.
 Alpha  occ. eigenvalues --  -20.60985 -20.60979 -15.85998 -11.31325 -11.27886
 Alpha  occ. eigenvalues --  -11.27879 -11.27619 -11.26888 -11.26878 -11.21205
 Alpha  occ. eigenvalues --  -11.20821 -11.20806 -11.20533 -11.20386 -11.19237
 Alpha  occ. eigenvalues --   -1.60036  -1.39591  -1.19490  -1.08895  -1.07684
 Alpha  occ. eigenvalues --   -1.04884  -1.02641  -0.95744  -0.95056  -0.86286
 Alpha  occ. eigenvalues --   -0.86083  -0.82570  -0.78780  -0.77627  -0.77431
 Alpha  occ. eigenvalues --   -0.72221  -0.71370  -0.70597  -0.65145  -0.64887
 Alpha  occ. eigenvalues --   -0.64326  -0.62231  -0.60041  -0.58539  -0.56645
 Alpha  occ. eigenvalues --   -0.55388  -0.54374  -0.53211  -0.52974  -0.51723
 Alpha  occ. eigenvalues --   -0.51501  -0.49248  -0.48975  -0.48716  -0.47055
 Alpha  occ. eigenvalues --   -0.45863  -0.45025  -0.44972  -0.44794  -0.42886
 Alpha  occ. eigenvalues --   -0.37468  -0.36484
 Alpha virt. eigenvalues --    0.04880   0.11171   0.16356   0.21297   0.23494
 Alpha virt. eigenvalues --    0.25244   0.27213   0.27248   0.28075   0.28207
 Alpha virt. eigenvalues --    0.29081   0.30861   0.32109   0.32298   0.32472

 Mulliken charges:
               1
     1  C   -0.170522
     2  C   -0.218588
     3  C   -0.170932
     4  C    0.157752
     5  C   -0.170618
     6  C   -0.218580
     7  H    0.226158
     8  H    0.223927
     9  H    0.275611
    10  H    0.276134
    11  H    0.224026
    12  N    0.488834
    13  O   -0.459290
    14  O   -0.458196
    15  C   -0.296881
    16  C   -0.298728
    17  C   -0.475005
    18  H    0.145809
    19  H    0.148721
    20  H    0.150033
    21  H    0.151910
    22  H    0.154944
    23  H    0.152796
    24  H    0.158530
    25  C   -0.297862
    26  C   -0.295739
    27  C   -0.473494
    28  H    0.147545
    29  H    0.147863
    30  H    0.145967
    31  H    0.147963
    32  H    0.141901
    33  H    0.163313
    34  H    0.174696
 Sum of Mulliken charges =  -0.00000

 Dipole moment (field-independent basis, Debye):
    X=             -2.7777    Y=             -4.4771    Z=              0.2231  Tot=              5.2735
 Quadrupole moment (field-independent basis, Debye-Ang):
   XX=            -83.2551   YY=            -97.4684   ZZ=            -89.8707
   XY=             12.2368   XZ=              0.3261   YZ=             -0.9923

 Normal termination of Gaussian 16 at Thu May  6 03:01:18 2021.
