 Gaussian 16, Revision A.03,
 Gaussian 16:  EM64L-G16RevA.03 25-Dec-2016

 -------------
 #p 6-31g* mp2
 -------------

 ------------------------------------------------------
 Input file generated by CHIRIPA (05-May-2021 14:55:21)
 ------------------------------------------------------
 Symbolic Z-matrix:
 Charge =  0 Multiplicity = 1

                         Standard orientation:
 ---------------------------------------------------------------------
 Center     Atomic      Atomic             Coordinates (Angstroms)
 Number     Number       Type             X           Y           Z
 ---------------------------------------------------------------------
      1          6           0        5.335033   -0.322492    0.002422
      2          6           0        4.677116    0.419514    0.988876
      3          6           0        3.281032    0.490158    1.011387
      4          6           0        2.571015   -0.196599    0.027755
      5          6           0        3.197556   -0.944232   -0.968127
      6          6           0        4.594460   -1.000801   -0.971215
      7          1           0        6.419863   -0.371903   -0.007521
      8          1           0        5.249681    0.947310    1.746270
      9          1           0        2.746142    1.057223    1.763549
     10          1           0        2.599668   -1.459702   -1.709907
     11          1           0        5.102729   -1.577825   -1.738516
     12          7           0        1.092610   -0.129262    0.041305
     13          8           0        0.489987   -0.743297   -0.836444
     14          8           0        0.564452    0.536277    0.929418
     15          6           0       -4.160942   -0.237672   -0.168147
     16          6           0       -3.978396   -1.560342    0.576972
     17          6           0       -5.102980   -2.557353    0.295767
     18          1           0       -5.125306    0.205588    0.115522
     19          1           0       -4.214009   -0.437137   -1.247402
     20          1           0       -3.924303   -1.358300    1.654409
     21          1           0       -3.014269   -2.000411    0.291642
     22          1           0       -5.154931   -2.788042   -0.773197
     23          1           0       -6.070134   -2.142283    0.597312
     24          1           0       -4.952502   -3.495821    0.838442
     25          6           0       -3.044623    0.769374    0.102811
     26          6           0       -3.227169    2.092046   -0.642308
     27          6           0       -2.102585    3.089057   -0.361103
     28          1           0       -2.991556    0.968841    1.182067
     29          1           0       -2.080259    0.326115   -0.180857
     30          1           0       -4.191296    2.532115   -0.356978
     31          1           0       -3.281263    1.890004   -1.719744
     32          1           0       -1.135431    2.673987   -0.662648
     33          1           0       -2.050636    3.319746    0.707861
     34          1           0       -2.253064    4.027524   -0.903779
 ---------------------------------------------------------------------

 SCF Done:  E(RHF) =  -669.536914985     A.U. after   15 cycles
 E2 =    -0.2092707284D+01 EUMP2 =    -0.67162962226905D+03

 The electronic state is 1-A.
 Alpha  occ. eigenvalues --  -20.61240 -20.61235 -15.86214 -11.31450 -11.27994
 Alpha  occ. eigenvalues --  -11.27987 -11.27713 -11.26976 -11.26966 -11.20164
 Alpha  occ. eigenvalues --  -11.19995 -11.19969 -11.19787 -11.19542 -11.19164
 Alpha  occ. eigenvalues --   -1.60264  -1.39820  -1.19602  -1.09026  -1.06745
 Alpha  occ. eigenvalues --   -1.04981  -1.02032  -0.95879  -0.94471  -0.86386
 Alpha  occ. eigenvalues --   -0.85498  -0.82716  -0.78106  -0.77787  -0.76477
 Alpha  occ. eigenvalues --   -0.72408  -0.71558  -0.70709  -0.65255  -0.64985
 Alpha  occ. eigenvalues --   -0.63384  -0.62327  -0.59449  -0.57862  -0.56083
 Alpha  occ. eigenvalues --   -0.55492  -0.53766  -0.53318  -0.53070  -0.51268
 Alpha  occ. eigenvalues --   -0.50913  -0.49326  -0.49191  -0.48385  -0.46410
 Alpha  occ. eigenvalues --   -0.45251  -0.45114  -0.44054  -0.43702  -0.42213
 Alpha  occ. eigenvalues --   -0.37574  -0.36575
 Alpha virt. eigenvalues --    0.04728   0.11082   0.16246   0.21222   0.24483
 Alpha virt. eigenvalues --    0.25730   0.27155   0.28057   0.28353   0.29162
 Alpha virt. eigenvalues --    0.29558   0.30847   0.32339   0.32765   0.33048

 Mulliken charges:
               1
     1  C   -0.170182
     2  C   -0.218632
     3  C   -0.170539
     4  C    0.160193
     5  C   -0.170547
     6  C   -0.218621
     7  H    0.226601
     8  H    0.224468
     9  H    0.276472
    10  H    0.276015
    11  H    0.224365
    12  N    0.487551
    13  O   -0.459846
    14  O   -0.455493
    15  C   -0.296593
    16  C   -0.299719
    17  C   -0.474606
    18  H    0.141695
    19  H    0.145553
    20  H    0.148975
    21  H    0.159727
    22  H    0.152916
    23  H    0.151620
    24  H    0.155645
    25  C   -0.310117
    26  C   -0.298474
    27  C   -0.472110
    28  H    0.144940
    29  H    0.184899
    30  H    0.143662
    31  H    0.146949
    32  H    0.160347
    33  H    0.153227
    34  H    0.149658
 Sum of Mulliken charges =  -0.00000

 Dipole moment (field-independent basis, Debye):
    X=              5.8346    Y=             -0.3603    Z=              0.0013  Tot=              5.8457
 Quadrupole moment (field-independent basis, Debye-Ang):
   XX=            -70.7518   YY=            -95.1509   ZZ=            -91.2739
   XY=             -2.1576   XZ=             -0.3458   YZ=              3.3303

 Normal termination of Gaussian 16 at Wed May  5 15:56:03 2021.
