 Gaussian 16, Revision A.03,
 Gaussian 16:  EM64L-G16RevA.03 25-Dec-2016

 -------------
 #p 6-31g* mp2
 -------------

 ------------------------------------------------------
 Input file generated by CHIRIPA (05-May-2021 14:57:25)
 ------------------------------------------------------
 Symbolic Z-matrix:
 Charge =  0 Multiplicity = 1

                         Standard orientation:
 ---------------------------------------------------------------------
 Center     Atomic      Atomic             Coordinates (Angstroms)
 Number     Number       Type             X           Y           Z
 ---------------------------------------------------------------------
      1          6           0       -5.776261    1.684413   -0.393347
      2          6           0       -4.447940    2.117008   -0.463670
      3          6           0       -3.396853    1.219511   -0.253278
      4          6           0       -3.711700   -0.109348    0.026535
      5          6           0       -5.024878   -0.570823    0.103312
      6          6           0       -6.059990    0.344241   -0.110579
      7          1           0       -6.586565    2.388433   -0.558143
      8          1           0       -4.224617    3.157212   -0.683094
      9          1           0       -2.359457    1.527527   -0.301798
     10          1           0       -5.216154   -1.613975    0.323911
     11          1           0       -7.090633    0.005464   -0.055344
     12          7           0       -2.607417   -1.068786    0.251119
     13          8           0       -2.911259   -2.234257    0.496059
     14          8           0       -1.458949   -0.637156    0.177956
     15          6           0        5.731429    1.679134    0.065143
     16          6           0        4.685088    1.740541    0.991383
     17          6           0        3.661514    0.788488    0.970424
     18          6           0        3.716034   -0.215828    0.005195
     19          6           0        4.745111   -0.303823   -0.931047
     20          6           0        5.758053    0.658947   -0.891430
     21          1           0        6.522436    2.422875    0.088670
     22          1           0        4.661822    2.531710    1.735396
     23          1           0        2.839632    0.812367    1.675661
     24          1           0        4.741023   -1.104314   -1.660852
     25          1           0        6.569414    0.608778   -1.612001
     26          7           0        2.638049   -1.229396   -0.026870
     27          8           0        2.709115   -2.104226   -0.887253
     28          8           0        1.742471   -1.129808    0.808989
 ---------------------------------------------------------------------

 SCF Done:  E(RHF) =  -868.334459531     A.U. after   16 cycles
 E2 =    -0.2600539250D+01 EUMP2 =    -0.87093499878093D+03

 The electronic state is 1-A.
 Alpha  occ. eigenvalues --  -20.59747 -20.59691 -20.59648 -20.59529 -15.84792
 Alpha  occ. eigenvalues --  -15.84652 -11.30557 -11.30463 -11.27186 -11.27167
 Alpha  occ. eigenvalues --  -11.27088 -11.27076 -11.26995 -11.26919 -11.26291
 Alpha  occ. eigenvalues --  -11.26269 -11.26207 -11.26197  -1.58796  -1.58655
 Alpha  occ. eigenvalues --   -1.38343  -1.38198  -1.18770  -1.18680  -1.08090
 Alpha  occ. eigenvalues --   -1.07992  -1.04234  -1.04148  -0.94860  -0.94741
 Alpha  occ. eigenvalues --   -0.85613  -0.85525  -0.81701  -0.81565  -0.76675
 Alpha  occ. eigenvalues --   -0.76550  -0.71098  -0.70741  -0.70153  -0.69994
 Alpha  occ. eigenvalues --   -0.69873  -0.69785  -0.64414  -0.64316  -0.64241
 Alpha  occ. eigenvalues --   -0.64157  -0.61580  -0.61490  -0.54724  -0.54641
 Alpha  occ. eigenvalues --   -0.52540  -0.52456  -0.52333  -0.52247  -0.47895
 Alpha  occ. eigenvalues --   -0.47756  -0.47618  -0.47431  -0.43666  -0.43482
 Alpha  occ. eigenvalues --   -0.36773  -0.36688  -0.35856  -0.35775
 Alpha virt. eigenvalues --    0.05870   0.05994   0.11792   0.11873   0.17290
 Alpha virt. eigenvalues --    0.17405   0.21870   0.21954   0.27749   0.27830
 Alpha virt. eigenvalues --    0.28791   0.28896   0.31386   0.31475   0.33039

 Mulliken charges:
               1
     1  C   -0.172125
     2  C   -0.218476
     3  C   -0.171630
     4  C    0.159503
     5  C   -0.171446
     6  C   -0.218450
     7  H    0.223036
     8  H    0.220418
     9  H    0.274320
    10  H    0.275569
    11  H    0.221590
    12  N    0.486916
    13  O   -0.461165
    14  O   -0.448289
    15  C   -0.172420
    16  C   -0.218881
    17  C   -0.171948
    18  C    0.159554
    19  C   -0.171840
    20  C   -0.218629
    21  H    0.222535
    22  H    0.220456
    23  H    0.276552
    24  H    0.275004
    25  H    0.220962
    26  N    0.486722
    27  O   -0.463740
    28  O   -0.444096
 Sum of Mulliken charges =  -0.00000

 Dipole moment (field-independent basis, Debye):
    X=             -0.1336    Y=              6.7586    Z=             -0.5908  Tot=              6.7857
 Quadrupole moment (field-independent basis, Debye-Ang):
   XX=            -48.1432   YY=           -104.6799   ZZ=           -103.0303
   XY=              2.0305   XZ=              0.7702   YZ=              1.4808

 Normal termination of Gaussian 16 at Fri May  7 00:22:54 2021.
