 Gaussian 16, Revision A.03,
 Gaussian 16:  EM64L-G16RevA.03 25-Dec-2016

 -------------
 #p 6-31g* mp2
 -------------

 ------------------------------------------------------
 Input file generated by CHIRIPA (05-May-2021 14:55:20)
 ------------------------------------------------------
 Symbolic Z-matrix:
 Charge =  0 Multiplicity = 1

                         Standard orientation:
 ---------------------------------------------------------------------
 Center     Atomic      Atomic             Coordinates (Angstroms)
 Number     Number       Type             X           Y           Z
 ---------------------------------------------------------------------
      1          6           0        3.203213   -2.429331    0.059428
      2          6           0        2.792877   -1.779005    1.227855
      3          6           0        2.673564   -0.386445    1.260852
      4          6           0        2.973971    0.327827    0.102033
      5          6           0        3.385230   -0.291142   -1.077387
      6          6           0        3.497561   -1.684637   -1.087442
      7          1           0        3.293186   -3.511468    0.042707
      8          1           0        2.563622   -2.354783    2.120025
      9          1           0        2.358041    0.142576    2.151919
     10          1           0        3.606803    0.309804   -1.950994
     11          1           0        3.816458   -2.187010   -1.996271
     12          7           0        2.851355    1.802563    0.124822
     13          8           0        3.121891    2.409058   -0.909398
     14          8           0        2.487036    2.324042    1.176472
     15          6           0       -4.513117    0.091433   -0.409139
     16          6           0       -5.671747   -0.172110    0.553204
     17          6           0       -7.026716    0.233066   -0.027906
     18          1           0       -4.497346    1.158391   -0.670478
     19          1           0       -4.690678   -0.456924   -1.344645
     20          1           0       -5.491371    0.375479    1.487135
     21          1           0       -5.684646   -1.238529    0.812433
     22          1           0       -7.232719   -0.322470   -0.948527
     23          1           0       -7.038346    1.300708   -0.269991
     24          1           0       -7.840795    0.036049    0.676592
     25          6           0       -3.151983   -0.308452    0.157548
     26          6           0       -1.993352   -0.044909   -0.804794
     27          6           0       -0.638384   -0.450085   -0.223684
     28          1           0       -2.974422    0.239906    1.093054
     29          1           0       -3.167755   -1.375409    0.418888
     30          1           0       -1.980455    1.021510   -1.064023
     31          1           0       -2.173729   -0.592497   -1.738725
     32          1           0       -0.626755   -1.517727    0.018401
     33          1           0       -0.432382    0.105451    0.696937
     34          1           0        0.175695   -0.253069   -0.928183
 ---------------------------------------------------------------------

 SCF Done:  E(RHF) =  -669.534874509     A.U. after   15 cycles
 E2 =    -0.2092994427D+01 EUMP2 =    -0.67162786893656D+03

 The electronic state is 1-A.
 Alpha  occ. eigenvalues --  -20.60769 -20.60763 -15.85814 -11.31133 -11.27737
 Alpha  occ. eigenvalues --  -11.27720 -11.27491 -11.26768 -11.26755 -11.21539
 Alpha  occ. eigenvalues --  -11.21461 -11.21321 -11.21262 -11.21006 -11.20970
 Alpha  occ. eigenvalues --   -1.59840  -1.39395  -1.19347  -1.08742  -1.08343
 Alpha  occ. eigenvalues --   -1.04752  -1.03445  -0.95912  -0.95575  -0.86932
 Alpha  occ. eigenvalues --   -0.86150  -0.82415  -0.79519  -0.78161  -0.77462
 Alpha  occ. eigenvalues --   -0.72039  -0.71163  -0.70462  -0.65004  -0.64970
 Alpha  occ. eigenvalues --   -0.64759  -0.62104  -0.60841  -0.59307  -0.57523
 Alpha  occ. eigenvalues --   -0.55273  -0.55184  -0.53524  -0.52847  -0.52351
 Alpha  occ. eigenvalues --   -0.52108  -0.49853  -0.48795  -0.48795  -0.47844
 Alpha  occ. eigenvalues --   -0.46546  -0.45705  -0.45626  -0.44797  -0.43688
 Alpha  occ. eigenvalues --   -0.37269  -0.36314
 Alpha virt. eigenvalues --    0.05061   0.11235   0.16571   0.21379   0.22935
 Alpha virt. eigenvalues --    0.24286   0.26662   0.27139   0.27633   0.27839
 Alpha virt. eigenvalues --    0.28404   0.30756   0.31378   0.31656   0.31948

 Mulliken charges:
               1
     1  C   -0.170873
     2  C   -0.216607
     3  C   -0.168019
     4  C    0.162692
     5  C   -0.174338
     6  C   -0.217051
     7  H    0.225433
     8  H    0.223384
     9  H    0.274944
    10  H    0.275430
    11  H    0.223344
    12  N    0.488260
    13  O   -0.460749
    14  O   -0.461172
    15  C   -0.298322
    16  C   -0.299567
    17  C   -0.475700
    18  H    0.151642
    19  H    0.148638
    20  H    0.152480
    21  H    0.150488
    22  H    0.154675
    23  H    0.156130
    24  H    0.159865
    25  C   -0.298412
    26  C   -0.300553
    27  C   -0.477062
    28  H    0.150738
    29  H    0.146583
    30  H    0.156421
    31  H    0.149731
    32  H    0.150279
    33  H    0.155558
    34  H    0.161709
 Sum of Mulliken charges =  -0.00000

 Dipole moment (field-independent basis, Debye):
    X=              0.4932    Y=             -5.1709    Z=             -0.0593  Tot=              5.1947
 Quadrupole moment (field-independent basis, Debye-Ang):
   XX=            -93.7767   YY=            -98.0120   ZZ=            -90.2226
   XY=            -15.3211   XZ=             -2.0293   YZ=             -0.3716

 Normal termination of Gaussian 16 at Thu May  6 14:07:50 2021.
