 Gaussian 16, Revision A.03,
 Gaussian 16:  EM64L-G16RevA.03 25-Dec-2016

 -------------
 #p 6-31g* mp2
 -------------

 ------------------------------------------------------
 Input file generated by CHIRIPA (05-May-2021 14:55:20)
 ------------------------------------------------------
 Symbolic Z-matrix:
 Charge =  0 Multiplicity = 1

                         Standard orientation:
 ---------------------------------------------------------------------
 Center     Atomic      Atomic             Coordinates (Angstroms)
 Number     Number       Type             X           Y           Z
 ---------------------------------------------------------------------
      1          6           0       -1.120724   -2.047061    0.651119
      2          6           0       -1.001533   -1.434078   -0.600507
      3          6           0       -1.859142   -0.391966   -0.965276
      4          6           0       -2.828965    0.013749   -0.049783
      5          6           0       -2.972757   -0.577053    1.204636
      6          6           0       -2.104222   -1.617349    1.548114
      7          1           0       -0.450268   -2.855893    0.926211
      8          1           0       -0.238666   -1.765725   -1.299141
      9          1           0       -1.788962    0.100168   -1.927720
     10          1           0       -3.743025   -0.224605    1.879829
     11          1           0       -2.199103   -2.091556    2.520827
     12          7           0       -3.742661    1.116026   -0.424678
     13          8           0       -4.588799    1.455017    0.399805
     14          8           0       -3.595377    1.620127   -1.535905
     15          6           0        3.843538    0.854904   -0.053709
     16          6           0        3.143880    2.069207    0.557789
     17          6           0        3.987089    3.341875    0.473492
     18          1           0        4.802379    0.695763    0.458387
     19          1           0        4.082238    1.068758   -1.104748
     20          1           0        2.905332    1.852605    1.606977
     21          1           0        2.186505    2.225360    0.044305
     22          1           0        4.213905    3.585334   -0.569525
     23          1           0        4.936817    3.210462    1.002025
     24          1           0        3.467907    4.197520    0.916417
     25          6           0        3.013106   -0.425030    0.022978
     26          6           0        3.712765   -1.639334   -0.588521
     27          6           0        2.869555   -2.912002   -0.504222
     28          1           0        2.774407   -0.638884    1.074017
     29          1           0        2.054265   -0.265891   -0.489119
     30          1           0        4.670140   -1.795487   -0.075037
     31          1           0        3.951312   -1.422732   -1.637708
     32          1           0        1.919827   -2.780589   -1.032756
     33          1           0        2.642738   -3.155461    0.538794
     34          1           0        3.388738   -3.767646   -0.947148
 ---------------------------------------------------------------------

 SCF Done:  E(RHF) =  -669.535299733     A.U. after   15 cycles
 E2 =    -0.2092199114D+01 EUMP2 =    -0.67162749884723D+03

 The electronic state is 1-A.
 Alpha  occ. eigenvalues --  -20.60748 -20.60743 -15.85802 -11.31159 -11.27738
 Alpha  occ. eigenvalues --  -11.27733 -11.27448 -11.26736 -11.26723 -11.22440
 Alpha  occ. eigenvalues --  -11.22281 -11.22049 -11.21914 -11.21831 -11.21281
 Alpha  occ. eigenvalues --   -1.59824  -1.39377  -1.19333  -1.09038  -1.08721
 Alpha  occ. eigenvalues --   -1.04743  -1.04155  -0.96628  -0.95558  -0.87651
 Alpha  occ. eigenvalues --   -0.86140  -0.82397  -0.80236  -0.78798  -0.77448
 Alpha  occ. eigenvalues --   -0.72020  -0.71147  -0.70426  -0.65711  -0.64985
 Alpha  occ. eigenvalues --   -0.64750  -0.62148  -0.61509  -0.60004  -0.58208
 Alpha  occ. eigenvalues --   -0.55952  -0.55216  -0.53316  -0.53110  -0.53047
 Alpha  occ. eigenvalues --   -0.52809  -0.50589  -0.48788  -0.48776  -0.48524
 Alpha  occ. eigenvalues --   -0.47246  -0.46341  -0.46235  -0.44785  -0.44378
 Alpha  occ. eigenvalues --   -0.37287  -0.36328
 Alpha virt. eigenvalues --    0.05084   0.11227   0.16519   0.19433   0.22684
 Alpha virt. eigenvalues --    0.23961   0.24981   0.25981   0.27037   0.27836
 Alpha virt. eigenvalues --    0.29316   0.29845   0.31173   0.31689   0.32040

 Mulliken charges:
               1
     1  C   -0.172264
     2  C   -0.220281
     3  C   -0.172750
     4  C    0.158765
     5  C   -0.170688
     6  C   -0.218959
     7  H    0.228191
     8  H    0.227873
     9  H    0.275475
    10  H    0.275491
    11  H    0.223288
    12  N    0.488008
    13  O   -0.460493
    14  O   -0.460669
    15  C   -0.298852
    16  C   -0.300149
    17  C   -0.476187
    18  H    0.150568
    19  H    0.150399
    20  H    0.152112
    21  H    0.154185
    22  H    0.155956
    23  H    0.154980
    24  H    0.162809
    25  C   -0.300609
    26  C   -0.300188
    27  C   -0.478825
    28  H    0.149169
    29  H    0.148777
    30  H    0.155723
    31  H    0.154263
    32  H    0.145592
    33  H    0.153347
    34  H    0.165944
 Sum of Mulliken charges =  -0.00000

 Dipole moment (field-independent basis, Debye):
    X=              3.3625    Y=             -3.8263    Z=              1.3590  Tot=              5.2720
 Quadrupole moment (field-independent basis, Debye-Ang):
   XX=           -112.1656   YY=            -96.3800   ZZ=            -90.2929
   XY=             10.7392   XZ=             -5.9431   YZ=             -0.4566

 Normal termination of Gaussian 16 at Thu May  6 10:50:40 2021.
