 Gaussian 16, Revision A.03,
 Gaussian 16:  EM64L-G16RevA.03 25-Dec-2016

 -------------
 #p 6-31g* mp2
 -------------

 ------------------------------------------------------
 Input file generated by CHIRIPA (05-May-2021 14:53:15)
 ------------------------------------------------------
 Symbolic Z-matrix:
 Charge =  0 Multiplicity = 1

                         Standard orientation:
 ---------------------------------------------------------------------
 Center     Atomic      Atomic             Coordinates (Angstroms)
 Number     Number       Type             X           Y           Z
 ---------------------------------------------------------------------
      1          6           0       -5.341532    0.311159   -0.319249
      2          6           0       -6.689373   -0.296939    0.070015
      3          6           0       -7.863050    0.343003   -0.672111
      4          1           0       -5.361050    1.390614   -0.115923
      5          1           0       -5.196085    0.199749   -1.402682
      6          1           0       -6.831616   -0.185650    1.152603
      7          1           0       -6.666578   -1.375104   -0.134083
      8          1           0       -7.748189    0.219609   -1.753861
      9          1           0       -7.914165    1.415822   -0.459864
     10          1           0       -8.816757   -0.106694   -0.378725
     11          6           0       -4.158489   -0.318183    0.414280
     12          6           0       -2.810648    0.289915    0.025016
     13          6           0       -1.636971   -0.350027    0.767142
     14          1           0       -4.303936   -0.206773    1.497713
     15          1           0       -4.138971   -1.397638    0.210954
     16          1           0       -2.833443    1.368081    0.229114
     17          1           0       -2.668405    0.178626   -1.057572
     18          1           0       -1.585856   -1.422845    0.554895
     19          1           0       -1.751832   -0.226633    1.848892
     20          1           0       -0.683264    0.099670    0.473756
     21          6           0        3.911156    2.516855    0.034177
     22          6           0        2.727777    1.896844    0.448571
     23          6           0        2.605668    0.504581    0.413368
     24          6           0        3.691590   -0.240312   -0.044014
     25          6           0        4.883685    0.348042   -0.463588
     26          6           0        4.983442    1.741841   -0.419780
     27          1           0        3.997332    3.598995    0.064865
     28          1           0        1.893400    2.496207    0.801591
     29          1           0        1.701064   -0.001334    0.728266
     30          1           0        5.698304   -0.276013   -0.810530
     31          1           0        5.903678    2.220632   -0.742224
     32          7           0        3.574150   -1.715051   -0.085836
     33          8           0        4.545311   -2.348862   -0.492983
     34          8           0        2.513164   -2.209218    0.289322
 ---------------------------------------------------------------------

 SCF Done:  E(RHF) =  -669.535486656     A.U. after   15 cycles
 E2 =    -0.2090868806D+01 EUMP2 =    -0.67162635546245D+03

 The electronic state is 1-A.
 Alpha  occ. eigenvalues --  -20.60728 -20.60722 -15.85780 -11.31150 -11.27730
 Alpha  occ. eigenvalues --  -11.27695 -11.27478 -11.26750 -11.26737 -11.21803
 Alpha  occ. eigenvalues --  -11.21649 -11.21502 -11.21440 -11.21336 -11.21114
 Alpha  occ. eigenvalues --   -1.59803  -1.39356  -1.19329  -1.08725  -1.08540
 Alpha  occ. eigenvalues --   -1.04736  -1.03659  -0.96114  -0.95556  -0.87133
 Alpha  occ. eigenvalues --   -0.86130  -0.82389  -0.79721  -0.78342  -0.77433
 Alpha  occ. eigenvalues --   -0.72000  -0.71127  -0.70447  -0.65163  -0.64983
 Alpha  occ. eigenvalues --   -0.64747  -0.62125  -0.61043  -0.59490  -0.57725
 Alpha  occ. eigenvalues --   -0.55375  -0.55243  -0.53089  -0.53021  -0.52635
 Alpha  occ. eigenvalues --   -0.52494  -0.50027  -0.48760  -0.48753  -0.48036
 Alpha  occ. eigenvalues --   -0.46737  -0.45886  -0.45803  -0.44761  -0.43922
 Alpha  occ. eigenvalues --   -0.37314  -0.36336
 Alpha virt. eigenvalues --    0.05086   0.11299   0.16575   0.20565   0.22830
 Alpha virt. eigenvalues --    0.23993   0.25964   0.26577   0.27412   0.27899
 Alpha virt. eigenvalues --    0.28852   0.30630   0.31349   0.31580   0.31929

 Mulliken charges:
               1
     1  C   -0.298319
     2  C   -0.299858
     3  C   -0.475772
     4  H    0.148445
     5  H    0.150163
     6  H    0.151925
     7  H    0.153228
     8  H    0.155479
     9  H    0.154565
    10  H    0.160734
    11  C   -0.299212
    12  C   -0.299519
    13  C   -0.477791
    14  H    0.149539
    15  H    0.152741
    16  H    0.148231
    17  H    0.154062
    18  H    0.167588
    19  H    0.155143
    20  H    0.149031
    21  C   -0.170736
    22  C   -0.221045
    23  C   -0.179998
    24  C    0.159324
    25  C   -0.170453
    26  C   -0.218824
    27  H    0.225464
    28  H    0.223395
    29  H    0.286954
    30  H    0.275508
    31  H    0.223351
    32  N    0.487214
    33  O   -0.460732
    34  O   -0.459824
 Sum of Mulliken charges =  -0.00000

 Dipole moment (field-independent basis, Debye):
    X=              0.3180    Y=              5.1094    Z=              0.1395  Tot=              5.1212
 Quadrupole moment (field-independent basis, Debye-Ang):
   XX=            -88.0937   YY=            -97.4643   ZZ=            -94.5966
   XY=             19.5004   XZ=             -1.9197   YZ=              0.5308

 Normal termination of Gaussian 16 at Thu May  6 20:25:34 2021.
