 Gaussian 16, Revision A.03,
 Gaussian 16:  EM64L-G16RevA.03 25-Dec-2016

 -------------
 #p 6-31g* mp2
 -------------

 ------------------------------------------------------
 Input file generated by CHIRIPA (05-May-2021 14:55:19)
 ------------------------------------------------------
 Symbolic Z-matrix:
 Charge =  0 Multiplicity = 1

                         Standard orientation:
 ---------------------------------------------------------------------
 Center     Atomic      Atomic             Coordinates (Angstroms)
 Number     Number       Type             X           Y           Z
 ---------------------------------------------------------------------
      1          6           0       -2.369176    2.295019    0.501335
      2          6           0       -1.870450    1.460501    1.507005
      3          6           0       -1.683990    0.095473    1.269352
      4          6           0       -2.008112   -0.403744    0.008790
      5          6           0       -2.506829    0.402042   -1.013599
      6          6           0       -2.685216    1.764062   -0.753546
      7          1           0       -2.510887    3.354237    0.694650
      8          1           0       -1.624155    1.870093    2.482514
      9          1           0       -1.299503   -0.573229    2.029896
     10          1           0       -2.743340   -0.035291   -1.976003
     11          1           0       -3.072701    2.409786   -1.536451
     12          7           0       -1.814987   -1.847246   -0.254660
     13          8           0       -2.108145   -2.262548   -1.373687
     14          8           0       -1.374116   -2.536028    0.662863
     15          6           0        2.873563   -0.464828   -0.303668
     16          6           0        2.443936   -1.628222    0.590714
     17          6           0        2.976742   -2.976163    0.103922
     18          1           0        2.524309   -0.650248   -1.328650
     19          1           0        3.970965   -0.431807   -0.348551
     20          1           0        1.347690   -1.658191    0.635007
     21          1           0        2.794088   -1.439919    1.613725
     22          1           0        4.071197   -2.970712    0.076735
     23          1           0        2.616581   -3.190224   -0.907544
     24          1           0        2.657687   -3.793798    0.757784
     25          6           0        2.348686    0.889373    0.170012
     26          6           0        2.778313    2.052767   -0.724371
     27          6           0        2.245507    3.400707   -0.237579
     28          1           0        1.251283    0.856351    0.214894
     29          1           0        2.697940    1.074792    1.194993
     30          1           0        2.428161    1.864464   -1.747382
     31          1           0        3.874559    2.082736   -0.768664
     32          1           0        2.605668    3.614769    0.773887
     33          1           0        1.151052    3.395257   -0.210392
     34          1           0        2.564562    4.218343   -0.891441
 ---------------------------------------------------------------------

 SCF Done:  E(RHF) =  -669.536446012     A.U. after   15 cycles
 E2 =    -0.2093659578D+01 EUMP2 =    -0.67163010559076D+03

 The electronic state is 1-A.
 Alpha  occ. eigenvalues --  -20.61023 -20.61014 -15.86030 -11.31361 -11.27910
 Alpha  occ. eigenvalues --  -11.27906 -11.27653 -11.26924 -11.26915 -11.21624
 Alpha  occ. eigenvalues --  -11.21287 -11.21240 -11.21033 -11.20944 -11.20320
 Alpha  occ. eigenvalues --   -1.60071  -1.39628  -1.19529  -1.08929  -1.08187
 Alpha  occ. eigenvalues --   -1.04917  -1.03241  -0.95770  -0.95709  -0.86733
 Alpha  occ. eigenvalues --   -0.86314  -0.82598  -0.79349  -0.77983  -0.77638
 Alpha  occ. eigenvalues --   -0.72256  -0.71388  -0.70621  -0.65180  -0.64912
 Alpha  occ. eigenvalues --   -0.64819  -0.62258  -0.60637  -0.59117  -0.57298
 Alpha  occ. eigenvalues --   -0.55414  -0.55021  -0.53270  -0.53000  -0.52393
 Alpha  occ. eigenvalues --   -0.52140  -0.49676  -0.49031  -0.49014  -0.47653
 Alpha  occ. eigenvalues --   -0.46414  -0.45645  -0.45490  -0.44702  -0.43495
 Alpha  occ. eigenvalues --   -0.37495  -0.36478
 Alpha virt. eigenvalues --    0.04839   0.11081   0.16283   0.21207   0.22955
 Alpha virt. eigenvalues --    0.24490   0.26464   0.27054   0.27649   0.27988
 Alpha virt. eigenvalues --    0.28438   0.30708   0.31419   0.31768   0.32439

 Mulliken charges:
               1
     1  C   -0.171163
     2  C   -0.217099
     3  C   -0.171947
     4  C    0.158833
     5  C   -0.171196
     6  C   -0.218519
     7  H    0.227040
     8  H    0.225205
     9  H    0.277227
    10  H    0.276007
    11  H    0.224401
    12  N    0.487692
    13  O   -0.458089
    14  O   -0.457601
    15  C   -0.298522
    16  C   -0.306937
    17  C   -0.473894
    18  H    0.150260
    19  H    0.147999
    20  H    0.161835
    21  H    0.146494
    22  H    0.149971
    23  H    0.158365
    24  H    0.164811
    25  C   -0.302775
    26  C   -0.298230
    27  C   -0.476265
    28  H    0.151598
    29  H    0.146054
    30  H    0.151984
    31  H    0.152542
    32  H    0.153493
    33  H    0.151058
    34  H    0.159369
 Sum of Mulliken charges =  -0.00000

 Dipole moment (field-independent basis, Debye):
    X=             -0.9130    Y=              4.9492    Z=              0.9191  Tot=              5.1159
 Quadrupole moment (field-independent basis, Debye-Ang):
   XX=            -91.8925   YY=           -100.4293   ZZ=            -90.1313
   XY=            -10.0870   XZ=              0.3639   YZ=             -1.0909

 Normal termination of Gaussian 16 at Thu May  6 09:13:25 2021.
