 Gaussian 16, Revision A.03,
 Gaussian 16:  EM64L-G16RevA.03 25-Dec-2016

 -------------
 #p 6-31g* mp2
 -------------

 ------------------------------------------------------
 Input file generated by CHIRIPA (05-May-2021 14:53:16)
 ------------------------------------------------------
 Symbolic Z-matrix:
 Charge =  0 Multiplicity = 1

                         Standard orientation:
 ---------------------------------------------------------------------
 Center     Atomic      Atomic             Coordinates (Angstroms)
 Number     Number       Type             X           Y           Z
 ---------------------------------------------------------------------
      1          6           0        2.774833    0.025109   -0.433150
      2          6           0        2.900479   -1.438491   -0.008799
      3          6           0        3.393245   -2.341697   -1.139813
      4          1           0        2.086477    0.095038   -1.286509
      5          1           0        3.751346    0.381504   -0.789243
      6          1           0        1.924344   -1.791613    0.347686
      7          1           0        3.588467   -1.504920    0.843771
      8          1           0        4.377962   -2.016784   -1.491046
      9          1           0        2.704383   -2.305106   -1.989950
     10          1           0        3.475784   -3.383477   -0.814635
     11          6           0        2.283284    0.940510    0.686738
     12          6           0        2.157639    2.404110    0.262386
     13          6           0        1.664873    3.307316    1.393401
     14          1           0        1.306772    0.584116    1.042830
     15          1           0        2.971640    0.870582    1.540096
     16          1           0        1.469650    2.470540   -0.590183
     17          1           0        3.133773    2.757233   -0.094098
     18          1           0        2.353734    3.270725    2.243537
     19          1           0        0.680156    2.982403    1.744633
     20          1           0        1.582334    4.349097    1.068223
     21          6           0       -1.446784   -2.313363    1.429763
     22          6           0       -0.827489   -2.219501    0.179089
     23          6           0       -1.113034   -1.151092   -0.676198
     24          6           0       -2.026973   -0.190014   -0.246858
     25          6           0       -2.660358   -0.255693    0.993222
     26          6           0       -2.359633   -1.332888    1.832128
     27          1           0       -1.219070   -3.146740    2.087809
     28          1           0       -0.118148   -2.979489   -0.136024
     29          1           0       -0.648038   -1.053866   -1.649720
     30          1           0       -3.363133    0.517292    1.279614
     31          1           0       -2.842099   -1.403208    2.802864
     32          7           0       -2.337302    0.945713   -1.143642
     33          8           0       -3.146142    1.779430   -0.741983
     34          8           0       -1.765821    0.980674   -2.231219
 ---------------------------------------------------------------------

 SCF Done:  E(RHF) =  -669.534915664     A.U. after   15 cycles
 E2 =    -0.2094405266D+01 EUMP2 =    -0.67162932093074D+03

 The electronic state is 1-A.
 Alpha  occ. eigenvalues --  -20.60896 -20.60890 -15.85947 -11.31335 -11.27898
 Alpha  occ. eigenvalues --  -11.27884 -11.27622 -11.26901 -11.26886 -11.21943
 Alpha  occ. eigenvalues --  -11.21614 -11.21545 -11.21404 -11.21340 -11.20867
 Alpha  occ. eigenvalues --   -1.59968  -1.39521  -1.19508  -1.08894  -1.08541
 Alpha  occ. eigenvalues --   -1.04914  -1.03656  -0.96113  -0.95721  -0.87131
 Alpha  occ. eigenvalues --   -0.86305  -0.82559  -0.79740  -0.78308  -0.77604
 Alpha  occ. eigenvalues --   -0.72161  -0.71293  -0.70595  -0.65298  -0.65129
 Alpha  occ. eigenvalues --   -0.64880  -0.62288  -0.61011  -0.59511  -0.57701
 Alpha  occ. eigenvalues --   -0.55430  -0.55382  -0.53261  -0.53000  -0.52798
 Alpha  occ. eigenvalues --   -0.52527  -0.50071  -0.48925  -0.48917  -0.48040
 Alpha  occ. eigenvalues --   -0.46776  -0.45849  -0.45733  -0.44913  -0.43886
 Alpha  occ. eigenvalues --   -0.37460  -0.36431
 Alpha virt. eigenvalues --    0.04912   0.11017   0.16324   0.19870   0.22976
 Alpha virt. eigenvalues --    0.23911   0.25774   0.26721   0.27458   0.28318
 Alpha virt. eigenvalues --    0.29274   0.30701   0.31333   0.31412   0.32250

 Mulliken charges:
               1
     1  C   -0.298761
     2  C   -0.307331
     3  C   -0.476741
     4  H    0.150781
     5  H    0.151536
     6  H    0.150053
     7  H    0.152908
     8  H    0.160369
     9  H    0.151112
    10  H    0.157091
    11  C   -0.300770
    12  C   -0.302753
    13  C   -0.475138
    14  H    0.151129
    15  H    0.147765
    16  H    0.160335
    17  H    0.151459
    18  H    0.152496
    19  H    0.154577
    20  H    0.163222
    21  C   -0.172019
    22  C   -0.218483
    23  C   -0.170518
    24  C    0.158336
    25  C   -0.171219
    26  C   -0.218163
    27  H    0.226762
    28  H    0.227228
    29  H    0.276441
    30  H    0.276185
    31  H    0.224262
    32  N    0.488050
    33  O   -0.459561
    34  O   -0.460641
 Sum of Mulliken charges =  -0.00000

 Dipole moment (field-independent basis, Debye):
    X=              1.0014    Y=             -3.9199    Z=              3.1534  Tot=              5.1296
 Quadrupole moment (field-independent basis, Debye-Ang):
   XX=            -96.8234   YY=            -93.6695   ZZ=            -94.8482
   XY=              7.2882   XZ=             -8.8984   YZ=              1.0563

 Normal termination of Gaussian 16 at Thu May  6 17:16:40 2021.
