 Gaussian 16, Revision A.03,
 Gaussian 16:  EM64L-G16RevA.03 25-Dec-2016

 -------------
 #p 6-31g* mp2
 -------------

 ------------------------------------------------------
 Input file generated by CHIRIPA (05-May-2021 14:51:09)
 ------------------------------------------------------
 Symbolic Z-matrix:
 Charge =  0 Multiplicity = 1

                         Standard orientation:
 ---------------------------------------------------------------------
 Center     Atomic      Atomic             Coordinates (Angstroms)
 Number     Number       Type             X           Y           Z
 ---------------------------------------------------------------------
      1          6           0       -2.853673   -0.451718   -0.266197
      2          6           0       -3.322308   -1.812898   -0.781519
      3          6           0       -2.203607   -2.854986   -0.800329
      4          1           0       -2.027316   -0.093327   -0.895193
      5          1           0       -2.445931   -0.571630    0.747096
      6          1           0       -3.730314   -1.690220   -1.793002
      7          1           0       -4.147773   -2.168002   -0.151340
      8          1           0       -1.801458   -3.006677    0.206581
      9          1           0       -1.381627   -2.526180   -1.444408
     10          1           0       -2.560555   -3.820509   -1.172099
     11          6           0       -3.960796    0.600610   -0.241463
     12          6           0       -3.492161    1.961789    0.273858
     13          6           0       -4.610862    3.003877    0.292668
     14          1           0       -4.368538    0.720521   -1.254756
     15          1           0       -4.787153    0.242219    0.387532
     16          1           0       -2.666696    2.316894   -0.356320
     17          1           0       -3.084155    1.839111    1.285341
     18          1           0       -5.432841    2.675072    0.936747
     19          1           0       -5.013011    3.155569   -0.714242
     20          1           0       -4.253914    3.969400    0.664438
     21          6           0        3.843703    0.122013   -0.341427
     22          6           0        5.019778    1.021740    0.039789
     23          6           0        5.883669    1.406230   -1.161733
     24          1           0        4.227266   -0.786875   -0.824902
     25          1           0        3.224836    0.636588   -1.089498
     26          1           0        5.635477    0.506186    0.787943
     27          1           0        4.633381    1.928504    0.522585
     28          1           0        5.288898    1.943107   -1.907798
     29          1           0        6.296688    0.512707   -1.640932
     30          1           0        6.718497    2.049484   -0.866530
     31          6           0        2.970766   -0.270904    0.849087
     32          6           0        1.794690   -1.170631    0.467873
     33          6           0        0.930800   -1.555122    1.669393
     34          1           0        3.589633   -0.785480    1.597159
     35          1           0        2.587203    0.637982    1.332563
     36          1           0        2.181087   -2.077395   -0.014924
     37          1           0        1.178992   -0.655077   -0.280282
     38          1           0        0.517781   -0.661598    2.148593
     39          1           0        1.525570   -2.091998    2.415459
     40          1           0        0.095971   -2.198376    1.374191
 ---------------------------------------------------------------------

 SCF Done:  E(RHF) =  -470.733190027     A.U. after   11 cycles
 E2 =    -0.1583067540D+01 EUMP2 =    -0.47231625756750D+03

 The electronic state is 1-A.
 Alpha  occ. eigenvalues --  -11.21621 -11.21617 -11.21586 -11.21549 -11.21412
 Alpha  occ. eigenvalues --  -11.21377 -11.21352 -11.21316 -11.21087 -11.21086
 Alpha  occ. eigenvalues --  -11.21061 -11.20984  -1.08447  -1.08394  -1.03561
 Alpha  occ. eigenvalues --   -1.03479  -0.96011  -0.95931  -0.87033  -0.86947
 Alpha  occ. eigenvalues --   -0.79621  -0.79549  -0.78259  -0.78207  -0.65076
 Alpha  occ. eigenvalues --   -0.65027  -0.60961  -0.60889  -0.59497  -0.59217
 Alpha  occ. eigenvalues --   -0.57742  -0.57419  -0.55296  -0.55225  -0.52758
 Alpha  occ. eigenvalues --   -0.52688  -0.52466  -0.52222  -0.49944  -0.49880
 Alpha  occ. eigenvalues --   -0.47978  -0.47808  -0.46669  -0.46564  -0.45832
 Alpha  occ. eigenvalues --   -0.45732  -0.45731  -0.45619  -0.43802  -0.43713
 Alpha virt. eigenvalues --    0.21014   0.23180   0.23413   0.25046   0.25453
 Alpha virt. eigenvalues --    0.26487   0.26730   0.27577   0.27998   0.29411
 Alpha virt. eigenvalues --    0.29892   0.31327   0.31604   0.31918   0.32294

 Mulliken charges:
               1
     1  C   -0.300581
     2  C   -0.299716
     3  C   -0.480355
     4  H    0.149653
     5  H    0.152367
     6  H    0.151950
     7  H    0.151972
     8  H    0.158797
     9  H    0.156503
    10  H    0.160502
    11  C   -0.298344
    12  C   -0.299583
    13  C   -0.475697
    14  H    0.149520
    15  H    0.149773
    16  H    0.151586
    17  H    0.151892
    18  H    0.155293
    19  H    0.155220
    20  H    0.160211
    21  C   -0.298179
    22  C   -0.299617
    23  C   -0.475679
    24  H    0.149600
    25  H    0.149213
    26  H    0.151927
    27  H    0.151921
    28  H    0.155071
    29  H    0.155158
    30  H    0.160205
    31  C   -0.298516
    32  C   -0.299594
    33  C   -0.481675
    34  H    0.149436
    35  H    0.149662
    36  H    0.151820
    37  H    0.152593
    38  H    0.154713
    39  H    0.154252
    40  H    0.166726
 Sum of Mulliken charges =  -0.00000

 Dipole moment (field-independent basis, Debye):
    X=             -0.0272    Y=             -0.0142    Z=             -0.0052  Tot=              0.0312
 Quadrupole moment (field-independent basis, Debye-Ang):
   XX=            -85.4267   YY=            -84.8823   ZZ=            -84.4771
   XY=             -0.0597   XZ=              0.4237   YZ=             -0.1713

 Normal termination of Gaussian 16 at Wed May  5 22:58:23 2021.
