 Gaussian 16, Revision A.03,
 Gaussian 16:  EM64L-G16RevA.03 25-Dec-2016

 -------------
 #p 6-31g* mp2
 -------------

 ------------------------------------------------------
 Input file generated by CHIRIPA (05-May-2021 14:51:08)
 ------------------------------------------------------
 Symbolic Z-matrix:
 Charge =  0 Multiplicity = 1

                         Standard orientation:
 ---------------------------------------------------------------------
 Center     Atomic      Atomic             Coordinates (Angstroms)
 Number     Number       Type             X           Y           Z
 ---------------------------------------------------------------------
      1          6           0       -3.165868   -0.663162   -0.095636
      2          6           0       -4.577119   -1.099782    0.298976
      3          6           0       -4.605733   -2.476038    0.964479
      4          1           0       -2.734640   -1.410116   -0.776112
      5          1           0       -2.529246   -0.651738    0.799895
      6          1           0       -5.211237   -1.109044   -0.596805
      7          1           0       -5.005109   -0.351605    0.978440
      8          1           0       -3.996250   -2.476916    1.873946
      9          1           0       -4.203549   -3.238659    0.289751
     10          1           0       -5.624238   -2.768444    1.238355
     11          6           0       -3.120904    0.710700   -0.762127
     12          6           0       -1.709653    1.147320   -1.156740
     13          6           0       -1.681039    2.523576   -1.822242
     14          1           0       -3.757526    0.699276   -1.657659
     15          1           0       -3.552132    1.457654   -0.081652
     16          1           0       -1.281663    0.399143   -1.836203
     17          1           0       -1.075535    1.156582   -0.260958
     18          1           0       -2.083223    3.286197   -1.147514
     19          1           0       -2.290522    2.524454   -2.731709
     20          1           0       -0.662534    2.815982   -2.096118
     21          6           0        2.443103    0.199952    0.636208
     22          6           0        2.447590    1.301647    1.696506
     23          6           0        1.039295    1.738588    2.100962
     24          1           0        1.899101    0.554818   -0.249839
     25          1           0        1.885443   -0.665828    1.019397
     26          1           0        3.006257    2.164571    1.311966
     27          1           0        2.991809    0.944187    2.580057
     28          1           0        0.476044    0.893246    2.509311
     29          1           0        0.490574    2.120565    1.234014
     30          1           0        1.065919    2.526800    2.859825
     31          6           0        3.843669   -0.247490    0.221556
     32          6           0        3.839182   -1.349185   -0.838742
     33          6           0        5.247476   -1.786126   -1.243199
     34          1           0        4.401330    0.618290   -0.161633
     35          1           0        4.387671   -0.602356    1.107601
     36          1           0        3.294962   -0.991726   -1.722295
     37          1           0        3.280515   -2.212109   -0.454203
     38          1           0        5.796198   -2.168102   -0.376251
     39          1           0        5.810728   -0.940784   -1.651547
     40          1           0        5.220853   -2.574337   -2.002061
 ---------------------------------------------------------------------

 SCF Done:  E(RHF) =  -470.733238392     A.U. after   11 cycles
 E2 =    -0.1583027151D+01 EUMP2 =    -0.47231626554303D+03

 The electronic state is 1-A.
 Alpha  occ. eigenvalues --  -11.21625 -11.21599 -11.21578 -11.21530 -11.21403
 Alpha  occ. eigenvalues --  -11.21371 -11.21344 -11.21312 -11.21113 -11.21080
 Alpha  occ. eigenvalues --  -11.21070 -11.21058  -1.08443  -1.08395  -1.03561
 Alpha  occ. eigenvalues --   -1.03496  -0.96002  -0.95959  -0.87020  -0.86974
 Alpha  occ. eigenvalues --   -0.79673  -0.79518  -0.78304  -0.78149  -0.65107
 Alpha  occ. eigenvalues --   -0.65002  -0.61057  -0.60821  -0.59408  -0.59286
 Alpha  occ. eigenvalues --   -0.57633  -0.57548  -0.55345  -0.55192  -0.52692
 Alpha  occ. eigenvalues --   -0.52660  -0.52442  -0.52379  -0.49992  -0.49863
 Alpha  occ. eigenvalues --   -0.48109  -0.47781  -0.46765  -0.46473  -0.45960
 Alpha  occ. eigenvalues --   -0.45731  -0.45701  -0.45396  -0.43796  -0.43759
 Alpha virt. eigenvalues --    0.21110   0.23097   0.23568   0.24638   0.26231
 Alpha virt. eigenvalues --    0.26341   0.26913   0.27695   0.28143   0.29351
 Alpha virt. eigenvalues --    0.30713   0.31478   0.31732   0.31788   0.32034

 Mulliken charges:
               1
     1  C   -0.298421
     2  C   -0.299660
     3  C   -0.475664
     4  H    0.149622
     5  H    0.149818
     6  H    0.151858
     7  H    0.151984
     8  H    0.155023
     9  H    0.155113
    10  H    0.160190
    11  C   -0.297680
    12  C   -0.308798
    13  C   -0.475928
    14  H    0.149231
    15  H    0.149636
    16  H    0.151693
    17  H    0.161160
    18  H    0.155274
    19  H    0.155490
    20  H    0.159110
    21  C   -0.300052
    22  C   -0.299544
    23  C   -0.480913
    24  H    0.152048
    25  H    0.149607
    26  H    0.151954
    27  H    0.152019
    28  H    0.154545
    29  H    0.160703
    30  H    0.160597
    31  C   -0.298348
    32  C   -0.299623
    33  C   -0.475712
    34  H    0.149433
    35  H    0.149647
    36  H    0.151981
    37  H    0.152046
    38  H    0.155172
    39  H    0.155154
    40  H    0.160235
 Sum of Mulliken charges =  -0.00000

 Dipole moment (field-independent basis, Debye):
    X=              0.0147    Y=              0.0018    Z=              0.0128  Tot=              0.0196
 Quadrupole moment (field-independent basis, Debye-Ang):
   XX=            -85.7724   YY=            -85.2452   ZZ=            -83.8376
   XY=              0.2804   XZ=              0.5532   YZ=              0.2287

 Normal termination of Gaussian 16 at Wed May  5 15:06:23 2021.
