 Gaussian 16, Revision A.03,
 Gaussian 16:  EM64L-G16RevA.03 25-Dec-2016

 -------------
 #p 6-31g* mp2
 -------------

 ------------------------------------------------------
 Input file generated by CHIRIPA (05-May-2021 14:57:25)
 ------------------------------------------------------
 Symbolic Z-matrix:
 Charge =  0 Multiplicity = 1

                         Standard orientation:
 ---------------------------------------------------------------------
 Center     Atomic      Atomic             Coordinates (Angstroms)
 Number     Number       Type             X           Y           Z
 ---------------------------------------------------------------------
      1          6           0        2.426732    1.577195    0.184226
      2          6           0        3.720688    2.099970    0.278586
      3          6           0        4.834427    1.260445    0.181979
      4          6           0        4.616593   -0.103028   -0.009797
      5          6           0        3.339838   -0.654019   -0.107752
      6          6           0        2.240764    0.204290   -0.008302
      7          1           0        1.567249    2.236654    0.260377
      8          1           0        3.868124    3.165781    0.428102
      9          1           0        5.847147    1.638567    0.251552
     10          1           0        3.224589   -1.720747   -0.256840
     11          1           0        1.237011   -0.204491   -0.081948
     12          7           0        5.787896   -1.001739   -0.113575
     13          8           0        5.569201   -2.199352   -0.282493
     14          8           0        6.902478   -0.491518   -0.024033
     15          6           0       -6.827980   -0.809002    0.025352
     16          6           0       -6.521899    0.527818   -0.249866
     17          6           0       -5.193216    0.962238   -0.270600
     18          6           0       -4.191096    0.028762   -0.010465
     19          6           0       -4.464059   -1.309819    0.266990
     20          6           0       -5.799896   -1.721945    0.282449
     21          1           0       -7.862912   -1.137810    0.039411
     22          1           0       -7.318271    1.239031   -0.449900
     23          1           0       -4.928027    1.991271   -0.480801
     24          1           0       -3.648573   -1.995511    0.462512
     25          1           0       -6.034644   -2.760754    0.496489
     26          7           0       -2.780692    0.476862   -0.029622
     27          8           0       -1.916079   -0.365186    0.202834
     28          8           0       -2.566538    1.661645   -0.276733
 ---------------------------------------------------------------------

 SCF Done:  E(RHF) =  -868.341180180     A.U. after   16 cycles
 E2 =    -0.2598054636D+01 EUMP2 =    -0.87093923481629D+03

 The electronic state is 1-A.
 Alpha  occ. eigenvalues --  -20.61925 -20.61911 -20.59932 -20.59926 -15.86924
 Alpha  occ. eigenvalues --  -15.84973 -11.31945 -11.30103 -11.28470 -11.28466
 Alpha  occ. eigenvalues --  -11.28145 -11.27406 -11.27395 -11.26673 -11.26565
 Alpha  occ. eigenvalues --  -11.26178 -11.25631 -11.25328  -1.60971  -1.59012
 Alpha  occ. eigenvalues --   -1.40532  -1.38572  -1.20083  -1.18219  -1.09543
 Alpha  occ. eigenvalues --   -1.07630  -1.05433  -1.03574  -0.96436  -0.94519
 Alpha  occ. eigenvalues --   -0.86847  -0.84957  -0.83282  -0.81358  -0.78364
 Alpha  occ. eigenvalues --   -0.76458  -0.73167  -0.72255  -0.71197  -0.71185
 Alpha  occ. eigenvalues --   -0.70333  -0.69269  -0.65740  -0.65432  -0.63847
 Alpha  occ. eigenvalues --   -0.63511  -0.62783  -0.60910  -0.55945  -0.53991
 Alpha  occ. eigenvalues --   -0.53780  -0.53519  -0.51938  -0.51628  -0.49924
 Alpha  occ. eigenvalues --   -0.49893  -0.47968  -0.47925  -0.46007  -0.44032
 Alpha  occ. eigenvalues --   -0.38040  -0.37019  -0.36160  -0.35191
 Alpha virt. eigenvalues --    0.04149   0.06040   0.10641   0.12474   0.15717
 Alpha virt. eigenvalues --    0.17623   0.20814   0.22818   0.26753   0.27655
 Alpha virt. eigenvalues --    0.28704   0.29646   0.30433   0.31825   0.32470

 Mulliken charges:
               1
     1  C   -0.174110
     2  C   -0.219352
     3  C   -0.173453
     4  C    0.157880
     5  C   -0.174029
     6  C   -0.227659
     7  H    0.234920
     8  H    0.219649
     9  H    0.271440
    10  H    0.272475
    11  H    0.247206
    12  N    0.488214
    13  O   -0.463105
    14  O   -0.463772
    15  C   -0.169500
    16  C   -0.218566
    17  C   -0.170184
    18  C    0.157477
    19  C   -0.170217
    20  C   -0.218509
    21  H    0.228320
    22  H    0.225636
    23  H    0.275872
    24  H    0.275845
    25  H    0.226046
    26  N    0.491055
    27  O   -0.468183
    28  O   -0.461397
 Sum of Mulliken charges =  -0.00000

 Dipole moment (field-independent basis, Debye):
    X=             -9.8360    Y=              1.5956    Z=              0.4310  Tot=              9.9739
 Quadrupole moment (field-independent basis, Debye-Ang):
   XX=           -100.3228   YY=            -98.5072   ZZ=           -106.2850
   XY=             23.0264   XZ=              2.2988   YZ=             -0.7596

 Normal termination of Gaussian 16 at Thu May  6 18:05:44 2021.
