 Gaussian 16, Revision A.03,
 Gaussian 16:  EM64L-G16RevA.03 25-Dec-2016

 -------------
 #p 6-31g* mp2
 -------------

 ------------------------------------------------------
 Input file generated by CHIRIPA (05-May-2021 14:53:18)
 ------------------------------------------------------
 Symbolic Z-matrix:
 Charge =  0 Multiplicity = 1

                         Standard orientation:
 ---------------------------------------------------------------------
 Center     Atomic      Atomic             Coordinates (Angstroms)
 Number     Number       Type             X           Y           Z
 ---------------------------------------------------------------------
      1          6           0       -3.753829    1.078207    0.221256
      2          6           0       -2.457457    1.887371    0.169705
      3          6           0       -2.677608    3.374814    0.446909
      4          1           0       -4.463629    1.487873   -0.510388
      5          1           0       -4.216878    1.203291    1.209859
      6          1           0       -1.996282    1.759689   -0.818035
      7          1           0       -1.750592    1.475610    0.901423
      8          1           0       -3.115726    3.520978    1.439526
      9          1           0       -3.362812    3.806671   -0.289701
     10          1           0       -1.737920    3.934365    0.405084
     11          6           0       -3.550040   -0.410593   -0.053834
     12          6           0       -4.846413   -1.219757   -0.002283
     13          6           0       -4.626262   -2.707200   -0.279487
     14          1           0       -3.086992   -0.535677   -1.042436
     15          1           0       -2.840241   -0.820259    0.677811
     16          1           0       -5.553278   -0.807997   -0.734000
     17          1           0       -5.307588   -1.092076    0.985457
     18          1           0       -3.941057   -3.139057    0.457124
     19          1           0       -4.188144   -2.853364   -1.272104
     20          1           0       -5.565950   -3.266751   -0.237662
     21          6           0        5.335378    0.146315    0.130454
     22          6           0        4.778498   -1.036144    0.628646
     23          6           0        3.404397   -1.272311    0.525601
     24          6           0        2.613094   -0.300144   -0.084334
     25          6           0        3.138169    0.887912   -0.590407
     26          6           0        4.514883    1.102883   -0.476412
     27          1           0        6.403828    0.321543    0.214755
     28          1           0        5.413284   -1.780796    1.100436
     29          1           0        2.947020   -2.178960    0.902714
     30          1           0        2.479872    1.611588   -1.055547
     31          1           0        4.944611    2.022116   -0.864212
     32          7           0        1.157012   -0.538944   -0.199219
     33          8           0        0.481412    0.333266   -0.740932
     34          8           0        0.718905   -1.593802    0.254624
 ---------------------------------------------------------------------

 SCF Done:  E(RHF) =  -669.535627171     A.U. after   15 cycles
 E2 =    -0.2091763852D+01 EUMP2 =    -0.67162739102304D+03

 The electronic state is 1-A.
 Alpha  occ. eigenvalues --  -20.60959 -20.60943 -15.85979 -11.31309 -11.27873
 Alpha  occ. eigenvalues --  -11.27869 -11.27609 -11.26880 -11.26870 -11.20350
 Alpha  occ. eigenvalues --  -11.19965 -11.19935 -11.19921 -11.19847 -11.19720
 Alpha  occ. eigenvalues --   -1.60012  -1.39569  -1.19477  -1.08881  -1.06959
 Alpha  occ. eigenvalues --   -1.04874  -1.02180  -0.95722  -0.94676  -0.86275
 Alpha  occ. eigenvalues --   -0.85694  -0.82562  -0.78212  -0.77604  -0.76701
 Alpha  occ. eigenvalues --   -0.72191  -0.71326  -0.70586  -0.65133  -0.64876
 Alpha  occ. eigenvalues --   -0.63607  -0.62221  -0.59595  -0.58036  -0.56261
 Alpha  occ. eigenvalues --   -0.55378  -0.53985  -0.53206  -0.52966  -0.51424
 Alpha  occ. eigenvalues --   -0.51085  -0.49010  -0.48958  -0.48621  -0.46532
 Alpha  occ. eigenvalues --   -0.45248  -0.44969  -0.44177  -0.44133  -0.42407
 Alpha  occ. eigenvalues --   -0.37455  -0.36476
 Alpha virt. eigenvalues --    0.04909   0.11179   0.16403   0.21307   0.24230
 Alpha virt. eigenvalues --    0.25511   0.27233   0.28045   0.28154   0.29024
 Alpha virt. eigenvalues --    0.29307   0.30915   0.32353   0.32625   0.32981

 Mulliken charges:
               1
     1  C   -0.299505
     2  C   -0.294724
     3  C   -0.475525
     4  H    0.143122
     5  H    0.142673
     6  H    0.165486
     7  H    0.154470
     8  H    0.149785
     9  H    0.150383
    10  H    0.154187
    11  C   -0.296875
    12  C   -0.299157
    13  C   -0.474221
    14  H    0.155621
    15  H    0.158877
    16  H    0.147147
    17  H    0.147272
    18  H    0.157254
    19  H    0.155258
    20  H    0.154237
    21  C   -0.170611
    22  C   -0.218570
    23  C   -0.170644
    24  C    0.157694
    25  C   -0.170821
    26  C   -0.218524
    27  H    0.226041
    28  H    0.223849
    29  H    0.275820
    30  H    0.275671
    31  H    0.223881
    32  N    0.490950
    33  O   -0.460592
    34  O   -0.459907
 Sum of Mulliken charges =  -0.00000

 Dipole moment (field-independent basis, Debye):
    X=              5.5397    Y=              0.7005    Z=              0.3206  Tot=              5.5930
 Quadrupole moment (field-independent basis, Debye-Ang):
   XX=            -70.2710   YY=            -93.6724   ZZ=            -93.5979
   XY=              0.4476   XZ=              1.3252   YZ=             -3.1885

 Normal termination of Gaussian 16 at Thu May  6 12:21:05 2021.
