 Gaussian 16, Revision A.03,
 Gaussian 16:  EM64L-G16RevA.03 25-Dec-2016

 -------------
 #p 6-31g* mp2
 -------------

 ------------------------------------------------------
 Input file generated by CHIRIPA (05-May-2021 14:57:26)
 ------------------------------------------------------
 Symbolic Z-matrix:
 Charge =  0 Multiplicity = 1

                         Standard orientation:
 ---------------------------------------------------------------------
 Center     Atomic      Atomic             Coordinates (Angstroms)
 Number     Number       Type             X           Y           Z
 ---------------------------------------------------------------------
      1          6           0        1.248411   -2.398273   -0.700835
      2          6           0        1.085861   -1.965642    0.619366
      3          6           0        1.788295   -0.853856    1.093778
      4          6           0        2.648844   -0.195318    0.216808
      5          6           0        2.832204   -0.602034   -1.103893
      6          6           0        2.119528   -1.716291   -1.556741
      7          1           0        0.698765   -3.262895   -1.060994
      8          1           0        0.410022   -2.493342    1.286313
      9          1           0        1.681345   -0.497462    2.111109
     10          1           0        3.513094   -0.055590   -1.745147
     11          1           0        2.247746   -2.050028   -2.582521
     12          7           0        3.397901    0.982988    0.707633
     13          8           0        4.149984    1.545931   -0.084896
     14          8           0        3.218745    1.321289    1.875577
     15          6           0       -3.361237   -1.840406    0.697588
     16          6           0       -3.949661   -0.656797    1.155136
     17          6           0       -3.494660    0.584368    0.700130
     18          6           0       -2.444583    0.605098   -0.216494
     19          6           0       -1.837761   -0.556710   -0.691109
     20          6           0       -2.309020   -1.786679   -0.222452
     21          1           0       -3.721008   -2.800223    1.056350
     22          1           0       -4.766986   -0.695488    1.869649
     23          1           0       -3.932055    1.516075    1.037806
     24          1           0       -1.024693   -0.486176   -1.403404
     25          1           0       -1.850141   -2.704271   -0.579523
     26          7           0       -1.954288    1.913138   -0.705415
     27          8           0       -1.027750    1.904415   -1.512934
     28          8           0       -2.505817    2.922334   -0.271854
 ---------------------------------------------------------------------

 SCF Done:  E(RHF) =  -868.334636900     A.U. after   16 cycles
 E2 =    -0.2604461708D+01 EUMP2 =    -0.87093909860794D+03

 The electronic state is 1-A.
 Alpha  occ. eigenvalues --  -20.60949 -20.60935 -20.60703 -20.60690 -15.86008
 Alpha  occ. eigenvalues --  -15.85759 -11.31509 -11.31391 -11.28123 -11.28118
 Alpha  occ. eigenvalues --  -11.27986 -11.27940 -11.27932 -11.27868 -11.27272
 Alpha  occ. eigenvalues --  -11.27154 -11.27118 -11.27100  -1.60016  -1.59760
 Alpha  occ. eigenvalues --   -1.39566  -1.39309  -1.19770  -1.19584  -1.09136
 Alpha  occ. eigenvalues --   -1.08991  -1.05224  -1.04984  -0.95924  -0.95765
 Alpha  occ. eigenvalues --   -0.86618  -0.86404  -0.82771  -0.82569  -0.77783
 Alpha  occ. eigenvalues --   -0.77536  -0.72225  -0.71984  -0.71346  -0.71071
 Alpha  occ. eigenvalues --   -0.70881  -0.70786  -0.65436  -0.65377  -0.65211
 Alpha  occ. eigenvalues --   -0.64926  -0.62566  -0.62329  -0.55755  -0.55616
 Alpha  occ. eigenvalues --   -0.53864  -0.53354  -0.53098  -0.52920  -0.48993
 Alpha  occ. eigenvalues --   -0.48965  -0.48761  -0.48714  -0.44938  -0.44658
 Alpha  occ. eigenvalues --   -0.37987  -0.37768  -0.37102  -0.35892
 Alpha virt. eigenvalues --    0.04764   0.04931   0.10637   0.11127   0.16156
 Alpha virt. eigenvalues --    0.16318   0.19417   0.22028   0.25438   0.26994
 Alpha virt. eigenvalues --    0.27980   0.28783   0.30060   0.31842   0.31998

 Mulliken charges:
               1
     1  C   -0.186639
     2  C   -0.210392
     3  C   -0.172003
     4  C    0.163736
     5  C   -0.165678
     6  C   -0.219059
     7  H    0.218407
     8  H    0.221136
     9  H    0.277055
    10  H    0.279594
    11  H    0.225273
    12  N    0.488876
    13  O   -0.456578
    14  O   -0.459432
    15  C   -0.173343
    16  C   -0.219516
    17  C   -0.169663
    18  C    0.156289
    19  C   -0.163966
    20  C   -0.223777
    21  H    0.224519
    22  H    0.224727
    23  H    0.277845
    24  H    0.278814
    25  H    0.212709
    26  N    0.488425
    27  O   -0.459503
    28  O   -0.457858
 Sum of Mulliken charges =  -0.00000

 Dipole moment (field-independent basis, Debye):
    X=             -4.1469    Y=             -8.3715    Z=              0.0198  Tot=              9.3423
 Quadrupole moment (field-independent basis, Debye-Ang):
   XX=           -107.4907   YY=           -109.5025   ZZ=           -101.2817
   XY=             -1.8855   XZ=            -13.7157   YZ=              2.3626

 Normal termination of Gaussian 16 at Fri May  7 05:04:55 2021.
