 Gaussian 16, Revision A.03,
 Gaussian 16:  EM64L-G16RevA.03 25-Dec-2016

 -------------
 #p 6-31g* mp2
 -------------

 ------------------------------------------------------
 Input file generated by CHIRIPA (05-May-2021 14:51:07)
 ------------------------------------------------------
 Symbolic Z-matrix:
 Charge =  0 Multiplicity = 1

                         Standard orientation:
 ---------------------------------------------------------------------
 Center     Atomic      Atomic             Coordinates (Angstroms)
 Number     Number       Type             X           Y           Z
 ---------------------------------------------------------------------
      1          6           0       -3.214425   -0.129423   -0.716661
      2          6           0       -2.807774   -1.566722   -0.389868
      3          6           0       -3.465501   -2.591849   -1.314153
      4          1           0       -4.307175   -0.039565   -0.647621
      5          1           0       -2.947894    0.091563   -1.759504
      6          1           0       -3.073737   -1.784481    0.652466
      7          1           0       -1.715848   -1.653122   -0.459507
      8          1           0       -3.190600   -2.402673   -2.356862
      9          1           0       -4.556203   -2.534778   -1.238571
     10          1           0       -3.160962   -3.612615   -1.062848
     11          6           0       -2.565038    0.906926    0.198764
     12          6           0       -2.971689    2.344225   -0.128029
     13          6           0       -2.313961    3.369352    0.796256
     14          1           0       -2.831568    0.685940    1.241607
     15          1           0       -1.472287    0.817068    0.129725
     16          1           0       -4.063614    2.430625   -0.058390
     17          1           0       -2.705726    2.561984   -1.170363
     18          1           0       -1.223259    3.312281    0.720675
     19          1           0       -2.588863    3.180176    1.838965
     20          1           0       -2.618500    4.390118    0.544952
     21          6           0        2.622742   -0.820823    0.829442
     22          6           0        1.103000   -0.987321    0.803962
     23          6           0        0.583967   -1.854241    1.951502
     24          1           0        3.094611   -1.811920    0.784579
     25          1           0        2.919876   -0.376333    1.789408
     26          1           0        0.808692   -1.430088   -0.156223
     27          1           0        0.634696    0.004297    0.848698
     28          1           0        0.849018   -1.413210    2.917856
     29          1           0        1.024002   -2.855744    1.907226
     30          1           0       -0.504729   -1.960065    1.914051
     31          6           0        3.156721    0.043320   -0.311545
     32          6           0        4.676462    0.209818   -0.286066
     33          6           0        5.195496    1.076738   -1.433606
     34          1           0        2.859587   -0.401170   -1.271512
     35          1           0        2.684851    1.034416   -0.266682
     36          1           0        5.144766   -0.781801   -0.330801
     37          1           0        4.970771    0.652584    0.674120
     38          1           0        4.755460    2.078241   -1.389328
     39          1           0        4.930444    0.635707   -2.399959
     40          1           0        6.284192    1.182562   -1.396154
 ---------------------------------------------------------------------

 SCF Done:  E(RHF) =  -470.732522906     A.U. after   11 cycles
 E2 =    -0.1584398728D+01 EUMP2 =    -0.47231692163404D+03

 The electronic state is 1-A.
 Alpha  occ. eigenvalues --  -11.21624 -11.21609 -11.21591 -11.21564 -11.21430
 Alpha  occ. eigenvalues --  -11.21373 -11.21367 -11.21304 -11.21092 -11.21088
 Alpha  occ. eigenvalues --  -11.21064 -11.21003  -1.08478  -1.08391  -1.03565
 Alpha  occ. eigenvalues --   -1.03502  -0.95984  -0.95971  -0.87021  -0.86968
 Alpha  occ. eigenvalues --   -0.79636  -0.79593  -0.78421  -0.78087  -0.65102
 Alpha  occ. eigenvalues --   -0.65044  -0.61066  -0.60819  -0.59493  -0.59220
 Alpha  occ. eigenvalues --   -0.57600  -0.57585  -0.55317  -0.55217  -0.52738
 Alpha  occ. eigenvalues --   -0.52619  -0.52468  -0.52334  -0.50000  -0.49858
 Alpha  occ. eigenvalues --   -0.48064  -0.47842  -0.46862  -0.46436  -0.46133
 Alpha  occ. eigenvalues --   -0.45741  -0.45674  -0.45248  -0.43785  -0.43762
 Alpha virt. eigenvalues --    0.21332   0.23118   0.23514   0.24183   0.25652
 Alpha virt. eigenvalues --    0.26213   0.26555   0.27810   0.28106   0.29565
 Alpha virt. eigenvalues --    0.30051   0.30631   0.31749   0.31899   0.32189

 Mulliken charges:
               1
     1  C   -0.297248
     2  C   -0.308465
     3  C   -0.475334
     4  H    0.149400
     5  H    0.149157
     6  H    0.151577
     7  H    0.161749
     8  H    0.154929
     9  H    0.155126
    10  H    0.160132
    11  C   -0.306589
    12  C   -0.299020
    13  C   -0.475589
    14  H    0.148823
    15  H    0.158657
    16  H    0.151899
    17  H    0.151835
    18  H    0.154107
    19  H    0.155230
    20  H    0.160390
    21  C   -0.297309
    22  C   -0.306216
    23  C   -0.479777
    24  H    0.149733
    25  H    0.149732
    26  H    0.151484
    27  H    0.156846
    28  H    0.154843
    29  H    0.154614
    30  H    0.165902
    31  C   -0.298296
    32  C   -0.299625
    33  C   -0.475736
    34  H    0.149248
    35  H    0.148930
    36  H    0.152087
    37  H    0.152102
    38  H    0.155156
    39  H    0.155125
    40  H    0.160393
 Sum of Mulliken charges =  -0.00000

 Dipole moment (field-independent basis, Debye):
    X=              0.0090    Y=             -0.0054    Z=              0.0017  Tot=              0.0106
 Quadrupole moment (field-independent basis, Debye-Ang):
   XX=            -84.6987   YY=            -85.2376   ZZ=            -84.9796
   XY=             -0.6727   XZ=             -0.4203   YZ=              0.4078

 Normal termination of Gaussian 16 at Thu May  6 05:15:29 2021.
