 Gaussian 16, Revision A.03,
 Gaussian 16:  EM64L-G16RevA.03 25-Dec-2016

 -------------
 #p 6-31g* mp2
 -------------

 ------------------------------------------------------
 Input file generated by CHIRIPA (05-May-2021 14:53:12)
 ------------------------------------------------------
 Symbolic Z-matrix:
 Charge =  0 Multiplicity = 1

                         Standard orientation:
 ---------------------------------------------------------------------
 Center     Atomic      Atomic             Coordinates (Angstroms)
 Number     Number       Type             X           Y           Z
 ---------------------------------------------------------------------
      1          6           0        3.091397   -0.383939   -0.283444
      2          6           0        4.344703   -1.256014   -0.201623
      3          6           0        4.029380   -2.751038   -0.258797
      4          1           0        2.413677   -0.648925    0.539613
      5          1           0        2.555258   -0.611164   -1.215280
      6          1           0        4.879050   -1.026221    0.729122
      7          1           0        5.019603   -0.988789   -1.024858
      8          1           0        3.516712   -3.001159   -1.193255
      9          1           0        3.375360   -3.038804    0.570690
     10          1           0        4.939553   -3.355887   -0.198769
     11          6           0        3.390344    1.113136   -0.227538
     12          6           0        2.137038    1.985211   -0.309359
     13          6           0        2.452360    3.480235   -0.252185
     14          1           0        3.926482    1.340361    0.704298
     15          1           0        4.068064    1.378122   -1.050595
     16          1           0        1.462137    1.717986    0.513876
     17          1           0        1.602691    1.755418   -1.240104
     18          1           0        3.106381    3.768001   -1.081672
     19          1           0        2.965029    3.730356    0.682273
     20          1           0        1.542188    4.085084   -0.312213
     21          6           0       -1.099302   -0.442889    2.270477
     22          6           0       -2.313946    0.249597    2.310761
     23          6           0       -3.115842    0.343596    1.169413
     24          6           0       -2.670431   -0.269563   -0.000602
     25          6           0       -1.465291   -0.966535   -0.072423
     26          6           0       -0.679591   -1.047678    1.081109
     27          1           0       -0.482659   -0.510917    3.161836
     28          1           0       -2.642418    0.720264    3.233054
     29          1           0       -4.060627    0.873491    1.172643
     30          1           0       -1.164403   -1.425396   -1.006409
     31          1           0        0.263252   -1.586122    1.046894
     32          7           0       -3.510789   -0.176855   -1.215346
     33          8           0       -3.095968   -0.725764   -2.233806
     34          8           0       -4.568372    0.442962   -1.126002
 ---------------------------------------------------------------------

 SCF Done:  E(RHF) =  -669.535491615     A.U. after   15 cycles
 E2 =    -0.2092154931D+01 EUMP2 =    -0.67162764654567D+03

 The electronic state is 1-A.
 Alpha  occ. eigenvalues --  -20.60760 -20.60755 -15.85813 -11.31179 -11.27746
 Alpha  occ. eigenvalues --  -11.27736 -11.27504 -11.26773 -11.26737 -11.22248
 Alpha  occ. eigenvalues --  -11.22132 -11.21945 -11.21871 -11.21779 -11.21347
 Alpha  occ. eigenvalues --   -1.59835  -1.39388  -1.19353  -1.09013  -1.08750
 Alpha  occ. eigenvalues --   -1.04752  -1.04042  -0.96513  -0.95585  -0.87526
 Alpha  occ. eigenvalues --   -0.86158  -0.82416  -0.80114  -0.78844  -0.77448
 Alpha  occ. eigenvalues --   -0.72032  -0.71157  -0.70466  -0.65689  -0.65006
 Alpha  occ. eigenvalues --   -0.64734  -0.62112  -0.61431  -0.59880  -0.58114
 Alpha  occ. eigenvalues --   -0.55820  -0.55264  -0.53213  -0.53053  -0.53008
 Alpha  occ. eigenvalues --   -0.52783  -0.50456  -0.48798  -0.48786  -0.48418
 Alpha  occ. eigenvalues --   -0.47150  -0.46344  -0.46270  -0.44793  -0.44317
 Alpha  occ. eigenvalues --   -0.37329  -0.36323
 Alpha virt. eigenvalues --    0.05067   0.11196   0.16525   0.19992   0.22761
 Alpha virt. eigenvalues --    0.23531   0.25297   0.26217   0.27401   0.28362
 Alpha virt. eigenvalues --    0.29046   0.30057   0.31285   0.31479   0.31899

 Mulliken charges:
               1
     1  C   -0.301080
     2  C   -0.299709
     3  C   -0.476444
     4  H    0.141391
     5  H    0.150847
     6  H    0.152495
     7  H    0.155916
     8  H    0.157044
     9  H    0.148612
    10  H    0.164225
    11  C   -0.298293
    12  C   -0.301844
    13  C   -0.476170
    14  H    0.148910
    15  H    0.152636
    16  H    0.151760
    17  H    0.154941
    18  H    0.156640
    19  H    0.153749
    20  H    0.162586
    21  C   -0.173206
    22  C   -0.218299
    23  C   -0.171032
    24  C    0.158694
    25  C   -0.171713
    26  C   -0.217745
    27  H    0.225225
    28  H    0.223359
    29  H    0.275548
    30  H    0.275831
    31  H    0.228014
    32  N    0.488070
    33  O   -0.460478
    34  O   -0.460479
 Sum of Mulliken charges =  -0.00000

 Dipole moment (field-independent basis, Debye):
    X=              3.0430    Y=             -0.2759    Z=              4.2028  Tot=              5.1961
 Quadrupole moment (field-independent basis, Debye-Ang):
   XX=           -108.3136   YY=            -94.8784   ZZ=            -92.8841
   XY=             -2.1194   XZ=            -13.8405   YZ=              0.3728

 Normal termination of Gaussian 16 at Thu May  6 00:56:25 2021.
