 Gaussian 16, Revision A.03,
 Gaussian 16:  EM64L-G16RevA.03 25-Dec-2016

 -------------
 #p 6-31g* mp2
 -------------

 ------------------------------------------------------
 Input file generated by CHIRIPA (05-May-2021 14:57:25)
 ------------------------------------------------------
 Symbolic Z-matrix:
 Charge =  0 Multiplicity = 1

                         Standard orientation:
 ---------------------------------------------------------------------
 Center     Atomic      Atomic             Coordinates (Angstroms)
 Number     Number       Type             X           Y           Z
 ---------------------------------------------------------------------
      1          6           0       -2.616504    1.704782    1.576393
      2          6           0       -2.211130    0.451476    2.046943
      3          6           0       -2.094088   -0.631914    1.171091
      4          6           0       -2.391682   -0.425513   -0.175061
      5          6           0       -2.797990    0.811005   -0.674287
      6          6           0       -2.908126    1.880237    0.219671
      7          1           0       -2.704743    2.540886    2.263808
      8          1           0       -1.984001    0.312293    3.100074
      9          1           0       -1.782400   -1.612930    1.508547
     10          1           0       -3.017539    0.918963   -1.729542
     11          1           0       -3.223169    2.852444   -0.148577
     12          7           0       -2.271430   -1.564955   -1.111871
     13          8           0       -2.539407   -1.357123   -2.293239
     14          8           0       -1.911477   -2.644306   -0.647035
     15          6           0        1.724718    2.481521   -0.906486
     16          6           0        2.947838    1.914636   -1.279500
     17          6           0        3.338606    0.671930   -0.772026
     18          6           0        2.477897    0.020797    0.110298
     19          6           0        1.252983    0.559561    0.500947
     20          6           0        0.882679    1.803370   -0.019018
     21          1           0        1.429109    3.447312   -1.305556
     22          1           0        3.603791    2.439029   -1.968546
     23          1           0        4.279956    0.210093   -1.044029
     24          1           0        0.620308    0.012919    1.189659
     25          1           0       -0.067794    2.241212    0.272428
     26          7           0        2.880753   -1.295384    0.654149
     27          8           0        2.104558   -1.848855    1.429926
     28          8           0        3.965078   -1.748614    0.294347
 ---------------------------------------------------------------------

 SCF Done:  E(RHF) =  -868.335518106     A.U. after   16 cycles
 E2 =    -0.2605467825D+01 EUMP2 =    -0.87094098593130D+03

 The electronic state is 1-A.
 Alpha  occ. eigenvalues --  -20.61151 -20.61106 -20.60620 -20.60612 -15.86197
 Alpha  occ. eigenvalues --  -15.85667 -11.31938 -11.31015 -11.28585 -11.28471
 Alpha  occ. eigenvalues --  -11.28405 -11.27670 -11.27616 -11.27583 -11.27494
 Alpha  occ. eigenvalues --  -11.27357 -11.26636 -11.26488  -1.60202  -1.59682
 Alpha  occ. eigenvalues --   -1.39741  -1.39241  -1.20221  -1.19187  -1.09522
 Alpha  occ. eigenvalues --   -1.08600  -1.05650  -1.04590  -0.96270  -0.95438
 Alpha  occ. eigenvalues --   -0.86987  -0.86006  -0.83076  -0.82274  -0.78043
 Alpha  occ. eigenvalues --   -0.77331  -0.72405  -0.71898  -0.71541  -0.71239
 Alpha  occ. eigenvalues --   -0.70995  -0.70352  -0.65809  -0.65575  -0.64850
 Alpha  occ. eigenvalues --   -0.64646  -0.62911  -0.62078  -0.56093  -0.55266
 Alpha  occ. eigenvalues --   -0.53812  -0.53659  -0.52877  -0.52675  -0.49200
 Alpha  occ. eigenvalues --   -0.49135  -0.48654  -0.48633  -0.45061  -0.44645
 Alpha  occ. eigenvalues --   -0.38290  -0.37403  -0.37034  -0.36093
 Alpha virt. eigenvalues --    0.04409   0.05201   0.10147   0.11551   0.15763
 Alpha virt. eigenvalues --    0.16691   0.20587   0.21946   0.26352   0.27517
 Alpha virt. eigenvalues --    0.27975   0.28751   0.30321   0.31501   0.31993

 Mulliken charges:
               1
     1  C   -0.178576
     2  C   -0.222959
     3  C   -0.184444
     4  C    0.165845
     5  C   -0.167310
     6  C   -0.228816
     7  H    0.229188
     8  H    0.231490
     9  H    0.289601
    10  H    0.278616
    11  H    0.225125
    12  N    0.487678
    13  O   -0.459978
    14  O   -0.451444
    15  C   -0.173365
    16  C   -0.217904
    17  C   -0.170435
    18  C    0.161269
    19  C   -0.178971
    20  C   -0.224701
    21  H    0.222069
    22  H    0.222689
    23  H    0.275649
    24  H    0.275206
    25  H    0.227419
    26  N    0.489081
    27  O   -0.462829
    28  O   -0.459193
 Sum of Mulliken charges =  -0.00000

 Dipole moment (field-independent basis, Debye):
    X=             -2.1014    Y=              8.3349    Z=              1.3664  Tot=              8.7036
 Quadrupole moment (field-independent basis, Debye-Ang):
   XX=           -106.2507   YY=           -107.3913   ZZ=           -102.8609
   XY=              1.3995   XZ=            -14.3380   YZ=             -4.3769

 Normal termination of Gaussian 16 at Thu May  6 18:05:30 2021.
