 Gaussian 16, Revision A.03,
 Gaussian 16:  EM64L-G16RevA.03 25-Dec-2016

 -------------
 #p 6-31g* mp2
 -------------

 ------------------------------------------------------
 Input file generated by CHIRIPA (05-May-2021 14:57:23)
 ------------------------------------------------------
 Symbolic Z-matrix:
 Charge =  0 Multiplicity = 1

                         Standard orientation:
 ---------------------------------------------------------------------
 Center     Atomic      Atomic             Coordinates (Angstroms)
 Number     Number       Type             X           Y           Z
 ---------------------------------------------------------------------
      1          6           0       -4.671765    1.898038    1.086193
      2          6           0       -4.860697    0.564083    1.462213
      3          6           0       -4.181433   -0.463162    0.800460
      4          6           0       -3.316900   -0.118988   -0.237527
      5          6           0       -3.107521    1.200531   -0.635421
      6          6           0       -3.797322    2.211452    0.040420
      7          1           0       -5.203526    2.689686    1.605731
      8          1           0       -5.539181    0.317730    2.274009
      9          1           0       -4.309042   -1.504276    1.071041
     10          1           0       -2.424647    1.415008   -1.448503
     11          1           0       -3.648640    3.246537   -0.253752
     12          7           0       -2.592216   -1.197845   -0.945553
     13          8           0       -1.836072   -0.868371   -1.856777
     14          8           0       -2.794075   -2.352499   -0.575873
     15          6           0        2.263798   -2.236917    0.617801
     16          6           0        1.893800   -1.481919   -0.500055
     17          6           0        2.536596   -0.273576   -0.785127
     18          6           0        3.549694    0.151750    0.072792
     19          6           0        3.940988   -0.577980    1.194252
     20          6           0        3.284412   -1.783337    1.459901
     21          1           0        1.759106   -3.174427    0.831708
     22          1           0        1.101526   -1.831716   -1.155790
     23          1           0        2.270148    0.330766   -1.643726
     24          1           0        4.734435   -0.203374    1.829491
     25          1           0        3.573852   -2.367598    2.328757
     26          7           0        4.237487    1.429387   -0.218721
     27          8           0        5.126929    1.782223    0.552667
     28          8           0        3.874115    2.053774   -1.213075
 ---------------------------------------------------------------------

 SCF Done:  E(RHF) =  -868.340556667     A.U. after   16 cycles
 E2 =    -0.2598325000D+01 EUMP2 =    -0.87093888166720D+03

 The electronic state is 1-A.
 Alpha  occ. eigenvalues --  -20.61635 -20.61626 -20.60317 -20.60312 -15.86651
 Alpha  occ. eigenvalues --  -15.85359 -11.31703 -11.30538 -11.28245 -11.28218
 Alpha  occ. eigenvalues --  -11.27915 -11.27188 -11.27152 -11.27110 -11.26983
 Alpha  occ. eigenvalues --  -11.26707 -11.26105 -11.25813  -1.60697  -1.59397
 Alpha  occ. eigenvalues --   -1.40257  -1.38955  -1.19846  -1.18668  -1.09299
 Alpha  occ. eigenvalues --   -1.08091  -1.05199  -1.04016  -0.96186  -0.94965
 Alpha  occ. eigenvalues --   -0.86613  -0.85418  -0.83029  -0.81786  -0.78111
 Alpha  occ. eigenvalues --   -0.76866  -0.72881  -0.71997  -0.71582  -0.70949
 Alpha  occ. eigenvalues --   -0.70718  -0.69760  -0.65501  -0.65197  -0.64300
 Alpha  occ. eigenvalues --   -0.63965  -0.62550  -0.61343  -0.55711  -0.54508
 Alpha  occ. eigenvalues --   -0.53546  -0.53285  -0.52395  -0.52066  -0.49648
 Alpha  occ. eigenvalues --   -0.49614  -0.48348  -0.48318  -0.45726  -0.44402
 Alpha  occ. eigenvalues --   -0.37806  -0.36787  -0.36648  -0.35627
 Alpha virt. eigenvalues --    0.04372   0.05620   0.10872   0.12019   0.15926
 Alpha virt. eigenvalues --    0.17177   0.21041   0.22336   0.26981   0.27807
 Alpha virt. eigenvalues --    0.28418   0.29077   0.30659   0.31917   0.32178

 Mulliken charges:
               1
     1  C   -0.169631
     2  C   -0.218579
     3  C   -0.170863
     4  C    0.157843
     5  C   -0.169996
     6  C   -0.218314
     7  H    0.228010
     8  H    0.224759
     9  H    0.274935
    10  H    0.276407
    11  H    0.226919
    12  N    0.488721
    13  O   -0.466300
    14  O   -0.461105
    15  C   -0.173003
    16  C   -0.226416
    17  C   -0.174290
    18  C    0.157775
    19  C   -0.173372
    20  C   -0.218968
    21  H    0.228152
    22  H    0.245912
    23  H    0.275789
    24  H    0.272447
    25  H    0.220461
    26  N    0.488027
    27  O   -0.462983
    28  O   -0.462338
 Sum of Mulliken charges =  -0.00000

 Dipole moment (field-independent basis, Debye):
    X=             -5.3849    Y=             -0.6981    Z=              3.4801  Tot=              6.4495
 Quadrupole moment (field-independent basis, Debye-Ang):
   XX=           -103.9952   YY=           -105.3830   ZZ=           -101.7095
   XY=            -28.2009   XZ=             -3.6467   YZ=             -4.1113

 Normal termination of Gaussian 16 at Thu May  6 06:37:39 2021.
