 Gaussian 16, Revision A.03,
 Gaussian 16:  EM64L-G16RevA.03 25-Dec-2016

 -------------
 #p 6-31g* mp2
 -------------

 ------------------------------------------------------
 Input file generated by CHIRIPA (05-May-2021 14:51:11)
 ------------------------------------------------------
 Symbolic Z-matrix:
 Charge =  0 Multiplicity = 1

                         Standard orientation:
 ---------------------------------------------------------------------
 Center     Atomic      Atomic             Coordinates (Angstroms)
 Number     Number       Type             X           Y           Z
 ---------------------------------------------------------------------
      1          6           0       -4.220591   -0.628517   -0.081476
      2          6           0       -5.524399    0.134113    0.156144
      3          6           0       -6.760955   -0.757008    0.035208
      4          1           0       -4.247924   -1.086697   -1.079609
      5          1           0       -4.150410   -1.454498    0.639791
      6          1           0       -5.591441    0.959253   -0.564457
      7          1           0       -5.493878    0.590690    1.153752
      8          1           0       -6.720909   -1.572542    0.764524
      9          1           0       -6.819026   -1.201885   -0.963447
     10          1           0       -7.681825   -0.191562    0.208787
     11          6           0       -2.975525    0.248829    0.036021
     12          6           0       -1.671717   -0.513802   -0.201598
     13          6           0       -0.435161    0.377320   -0.080663
     14          1           0       -3.045706    1.074809   -0.685245
     15          1           0       -2.948192    0.707008    1.034154
     16          1           0       -1.702238   -0.970379   -1.199207
     17          1           0       -1.604675   -1.338942    0.519003
     18          1           0       -0.377090    0.822196    0.917993
     19          1           0       -0.475207    1.192853   -0.809979
     20          1           0        0.485709   -0.188127   -0.254242
     21          6           0        3.301702    0.789158    0.392091
     22          6           0        2.844814    1.911078   -0.540933
     23          6           0        2.254227    3.103078    0.212815
     24          1           0        2.448781    0.455166    0.998655
     25          1           0        4.047890    1.186517    1.094018
     26          1           0        2.100728    1.511388   -1.241789
     27          1           0        3.698878    2.242306   -1.145480
     28          1           0        2.992780    3.528734    0.899807
     29          1           0        1.385550    2.793663    0.802952
     30          1           0        1.934142    3.893358   -0.473380
     31          6           0        3.894414   -0.409469   -0.346637
     32          6           0        4.351302   -1.531389    0.586387
     33          6           0        4.941889   -2.723390   -0.167360
     34          1           0        3.148225   -0.806829   -1.048564
     35          1           0        4.747336   -0.075478   -0.953200
     36          1           0        3.497238   -1.862617    1.190936
     37          1           0        5.095388   -1.131699    1.287244
     38          1           0        5.810566   -2.413975   -0.757497
     39          1           0        4.203335   -3.149045   -0.854352
     40          1           0        5.261974   -3.513670    0.518835
 ---------------------------------------------------------------------

 SCF Done:  E(RHF) =  -470.731657299     A.U. after   11 cycles
 E2 =    -0.1584470523D+01 EUMP2 =    -0.47231612782226D+03

 The electronic state is 1-A.
 Alpha  occ. eigenvalues --  -11.21665 -11.21631 -11.21576 -11.21453 -11.21411
 Alpha  occ. eigenvalues --  -11.21391 -11.21344 -11.21214 -11.21152 -11.21095
 Alpha  occ. eigenvalues --  -11.21053 -11.20910  -1.08495  -1.08343  -1.03627
 Alpha  occ. eigenvalues --   -1.03411  -0.96055  -0.95896  -0.87096  -0.86903
 Alpha  occ. eigenvalues --   -0.79677  -0.79509  -0.78296  -0.78164  -0.65113
 Alpha  occ. eigenvalues --   -0.65052  -0.61011  -0.60894  -0.59354  -0.59266
 Alpha  occ. eigenvalues --   -0.57698  -0.57504  -0.55382  -0.55175  -0.52733
 Alpha  occ. eigenvalues --   -0.52590  -0.52481  -0.52271  -0.50035  -0.49812
 Alpha  occ. eigenvalues --   -0.47999  -0.47764  -0.46836  -0.46427  -0.45864
 Alpha  occ. eigenvalues --   -0.45788  -0.45674  -0.45506  -0.43782  -0.43691
 Alpha virt. eigenvalues --    0.21013   0.22998   0.23622   0.24741   0.26114
 Alpha virt. eigenvalues --    0.26445   0.26806   0.27584   0.27902   0.29472
 Alpha virt. eigenvalues --    0.30141   0.31142   0.31786   0.32143   0.32480

 Mulliken charges:
               1
     1  C   -0.298287
     2  C   -0.299657
     3  C   -0.475731
     4  H    0.149714
     5  H    0.149581
     6  H    0.152017
     7  H    0.152017
     8  H    0.155216
     9  H    0.155215
    10  H    0.160380
    11  C   -0.298864
    12  C   -0.300699
    13  C   -0.480753
    14  H    0.149777
    15  H    0.149709
    16  H    0.151951
    17  H    0.151823
    18  H    0.155479
    19  H    0.157655
    20  H    0.166396
    21  C   -0.303108
    22  C   -0.300708
    23  C   -0.478616
    24  H    0.153530
    25  H    0.149624
    26  H    0.155219
    27  H    0.151074
    28  H    0.154081
    29  H    0.159366
    30  H    0.158865
    31  C   -0.300149
    32  C   -0.299382
    33  C   -0.475637
    34  H    0.149027
    35  H    0.149985
    36  H    0.151477
    37  H    0.152103
    38  H    0.155211
    39  H    0.154961
    40  H    0.160138
 Sum of Mulliken charges =  -0.00000

 Dipole moment (field-independent basis, Debye):
    X=             -0.0637    Y=             -0.0097    Z=              0.0021  Tot=              0.0645
 Quadrupole moment (field-independent basis, Debye-Ang):
   XX=            -85.3240   YY=            -85.8644   ZZ=            -83.9374
   XY=              0.1923   XZ=              0.2549   YZ=             -0.5963

 Normal termination of Gaussian 16 at Wed May  5 18:17:15 2021.
