 Gaussian 16, Revision A.03,
 Gaussian 16:  EM64L-G16RevA.03 25-Dec-2016

 -------------
 #p 6-31g* mp2
 -------------

 ------------------------------------------------------
 Input file generated by CHIRIPA (05-May-2021 14:53:18)
 ------------------------------------------------------
 Symbolic Z-matrix:
 Charge =  0 Multiplicity = 1

                         Standard orientation:
 ---------------------------------------------------------------------
 Center     Atomic      Atomic             Coordinates (Angstroms)
 Number     Number       Type             X           Y           Z
 ---------------------------------------------------------------------
      1          6           0        3.217626   -0.436138   -0.504949
      2          6           0        2.871728   -1.659182    0.345053
      3          6           0        2.829688   -2.952450   -0.469493
      4          1           0        2.479639   -0.338454   -1.312896
      5          1           0        4.190973   -0.597785   -0.988542
      6          1           0        1.899963   -1.494694    0.827995
      7          1           0        3.610514   -1.753855    1.151184
      8          1           0        3.800016   -3.143695   -0.939057
      9          1           0        2.079746   -2.883062   -1.264083
     10          1           0        2.580634   -3.814063    0.157767
     11          6           0        3.263482    0.864385    0.295216
     12          6           0        3.609381    2.087428   -0.554786
     13          6           0        3.651421    3.380696    0.259759
     14          1           0        2.290136    1.026031    0.778808
     15          1           0        4.001469    0.766701    1.103163
     16          1           0        2.870594    2.182101   -1.360918
     17          1           0        4.581145    1.922941   -1.037729
     18          1           0        4.401363    3.311308    1.054349
     19          1           0        2.681093    3.571942    0.729323
     20          1           0        3.900475    4.242309   -0.367501
     21          6           0       -4.500187    1.304170   -0.488807
     22          6           0       -3.840062    0.595542   -1.498065
     23          6           0       -2.748213   -0.222745   -1.193400
     24          6           0       -2.341376   -0.309538    0.137104
     25          6           0       -2.978444    0.383987    1.164944
     26          6           0       -4.068034    1.196321    0.837138
     27          1           0       -5.347484    1.937523   -0.734467
     28          1           0       -4.173484    0.677389   -2.528685
     29          1           0       -2.218962   -0.782369   -1.955064
     30          1           0       -2.622949    0.282265    2.183125
     31          1           0       -4.578788    1.745495    1.623003
     32          7           0       -1.186680   -1.172672    0.471888
     33          8           0       -0.847778   -1.232138    1.651823
     34          8           0       -0.642396   -1.773385   -0.451982
 ---------------------------------------------------------------------

 SCF Done:  E(RHF) =  -669.536826187     A.U. after   15 cycles
 E2 =    -0.2092802717D+01 EUMP2 =    -0.67162962890400D+03

 The electronic state is 1-A.
 Alpha  occ. eigenvalues --  -20.61219 -20.61205 -15.86195 -11.31444 -11.27988
 Alpha  occ. eigenvalues --  -11.27984 -11.27709 -11.26973 -11.26964 -11.20916
 Alpha  occ. eigenvalues --  -11.20571 -11.20394 -11.20041 -11.19635 -11.19219
 Alpha  occ. eigenvalues --   -1.60243  -1.39799  -1.19597  -1.09017  -1.07254
 Alpha  occ. eigenvalues --   -1.04978  -1.02263  -0.95871  -0.94773  -0.86382
 Alpha  occ. eigenvalues --   -0.85810  -0.82708  -0.78443  -0.77777  -0.76938
 Alpha  occ. eigenvalues --   -0.72405  -0.71553  -0.70703  -0.65252  -0.64985
 Alpha  occ. eigenvalues --   -0.63887  -0.62324  -0.59649  -0.58248  -0.56346
 Alpha  occ. eigenvalues --   -0.55484  -0.54078  -0.53313  -0.53066  -0.51504
 Alpha  occ. eigenvalues --   -0.51200  -0.49208  -0.49162  -0.48738  -0.46710
 Alpha  occ. eigenvalues --   -0.45480  -0.45234  -0.44500  -0.44223  -0.42551
 Alpha  occ. eigenvalues --   -0.37567  -0.36574
 Alpha virt. eigenvalues --    0.04714   0.11083   0.16224   0.21214   0.23891
 Alpha virt. eigenvalues --    0.25696   0.27155   0.27677   0.28248   0.28635
 Alpha virt. eigenvalues --    0.29128   0.30828   0.32291   0.32626   0.32853

 Mulliken charges:
               1
     1  C   -0.298426
     2  C   -0.306347
     3  C   -0.472648
     4  H    0.148898
     5  H    0.143190
     6  H    0.178763
     7  H    0.141825
     8  H    0.142255
     9  H    0.164053
    10  H    0.158022
    11  C   -0.297159
    12  C   -0.298299
    13  C   -0.474588
    14  H    0.148753
    15  H    0.148040
    16  H    0.148434
    17  H    0.150630
    18  H    0.154897
    19  H    0.152649
    20  H    0.156876
    21  C   -0.170204
    22  C   -0.218599
    23  C   -0.170709
    24  C    0.160292
    25  C   -0.170533
    26  C   -0.218617
    27  H    0.226626
    28  H    0.224420
    29  H    0.275967
    30  H    0.276252
    31  H    0.224434
    32  N    0.488598
    33  O   -0.458382
    34  O   -0.459362
 Sum of Mulliken charges =  -0.00000

 Dipole moment (field-independent basis, Debye):
    X=             -4.5642    Y=              2.9499    Z=             -1.1192  Tot=              5.5485
 Quadrupole moment (field-independent basis, Debye-Ang):
   XX=            -76.5825   YY=            -98.6529   ZZ=            -90.6455
   XY=             -6.4057   XZ=              2.1241   YZ=              1.6369

 Normal termination of Gaussian 16 at Thu May  6 17:19:51 2021.
