 Gaussian 16, Revision A.03,
 Gaussian 16:  EM64L-G16RevA.03 25-Dec-2016

 -------------
 #p 6-31g* mp2
 -------------

 ------------------------------------------------------
 Input file generated by CHIRIPA (05-May-2021 14:51:08)
 ------------------------------------------------------
 Symbolic Z-matrix:
 Charge =  0 Multiplicity = 1

                         Standard orientation:
 ---------------------------------------------------------------------
 Center     Atomic      Atomic             Coordinates (Angstroms)
 Number     Number       Type             X           Y           Z
 ---------------------------------------------------------------------
      1          6           0        3.820611   -0.097638   -0.188749
      2          6           0        5.323133   -0.014643   -0.459898
      3          6           0        5.941131   -1.374788   -0.785284
      4          1           0        3.642556   -0.791570    0.644137
      5          1           0        3.319851   -0.528303   -1.066907
      6          1           0        5.820742    0.417020    0.417979
      7          1           0        5.497646    0.679320   -1.292111
      8          1           0        5.471385   -1.808693   -1.673916
      9          1           0        5.796317   -2.072484    0.045890
     10          1           0        7.015751   -1.292279   -0.975662
     11          6           0        3.188408    1.254125    0.138035
     12          6           0        1.685886    1.171130    0.409184
     13          6           0        1.067888    2.531275    0.734570
     14          1           0        3.689168    1.684790    1.016193
     15          1           0        3.366462    1.948057   -0.694851
     16          1           0        1.511373    0.477167    1.241397
     17          1           0        1.188277    0.739467   -0.468693
     18          1           0        1.212701    3.228971   -0.096604
     19          1           0        1.537634    2.965180    1.623202
     20          1           0       -0.006733    2.448766    0.924948
     21          6           0       -2.802021   -0.830020   -0.137589
     22          6           0       -2.094768   -1.469767    1.057609
     23          6           0       -0.690409   -1.968556    0.715876
     24          1           0       -2.859973   -1.561089   -0.955589
     25          1           0       -2.194855    0.007123   -0.508987
     26          1           0       -2.703760   -2.304585    1.427505
     27          1           0       -2.038664   -0.737152    1.872928
     28          1           0       -0.062324   -1.142313    0.367405
     29          1           0       -0.731200   -2.718652   -0.080549
     30          1           0       -0.203061   -2.422198    1.584532
     31          6           0       -4.206997   -0.326468    0.188303
     32          6           0       -4.914252    0.313280   -1.006895
     33          6           0       -6.318610    0.812070   -0.665163
     34          1           0       -4.814164   -1.163610    0.559701
     35          1           0       -4.149046    0.404601    1.006304
     36          1           0       -4.970355   -0.419335   -1.822214
     37          1           0       -4.305259    1.148098   -1.376791
     38          1           0       -6.277820    1.562165    0.131263
     39          1           0       -6.946695   -0.014174   -0.316691
     40          1           0       -6.805958    1.265710   -1.533818
 ---------------------------------------------------------------------

 SCF Done:  E(RHF) =  -470.732597059     A.U. after   11 cycles
 E2 =    -0.1583318346D+01 EUMP2 =    -0.47231591540483D+03

 The electronic state is 1-A.
 Alpha  occ. eigenvalues --  -11.21659 -11.21609 -11.21586 -11.21532 -11.21432
 Alpha  occ. eigenvalues --  -11.21378 -11.21366 -11.21318 -11.21154 -11.21069
 Alpha  occ. eigenvalues --  -11.21058 -11.20863  -1.08473  -1.08387  -1.03592
 Alpha  occ. eigenvalues --   -1.03459  -0.96021  -0.95918  -0.87053  -0.86924
 Alpha  occ. eigenvalues --   -0.79740  -0.79473  -0.78320  -0.78167  -0.65095
 Alpha  occ. eigenvalues --   -0.65028  -0.60973  -0.60910  -0.59398  -0.59281
 Alpha  occ. eigenvalues --   -0.57663  -0.57507  -0.55302  -0.55216  -0.52727
 Alpha  occ. eigenvalues --   -0.52610  -0.52481  -0.52312  -0.49966  -0.49932
 Alpha  occ. eigenvalues --   -0.48106  -0.47702  -0.46675  -0.46603  -0.45889
 Alpha  occ. eigenvalues --   -0.45739  -0.45718  -0.45431  -0.43817  -0.43736
 Alpha virt. eigenvalues --    0.21098   0.23061   0.23737   0.25070   0.25855
 Alpha virt. eigenvalues --    0.26549   0.26752   0.27501   0.28472   0.29130
 Alpha virt. eigenvalues --    0.30630   0.31171   0.31698   0.31818   0.32230

 Mulliken charges:
               1
     1  C   -0.298884
     2  C   -0.299619
     3  C   -0.475706
     4  H    0.150336
     5  H    0.149870
     6  H    0.151888
     7  H    0.151894
     8  H    0.155334
     9  H    0.155344
    10  H    0.160220
    11  C   -0.297225
    12  C   -0.306046
    13  C   -0.475752
    14  H    0.149605
    15  H    0.149600
    16  H    0.156519
    17  H    0.153545
    18  H    0.155507
    19  H    0.155703
    20  H    0.159758
    21  C   -0.299017
    22  C   -0.298916
    23  C   -0.485301
    24  H    0.149582
    25  H    0.149418
    26  H    0.151483
    27  H    0.151033
    28  H    0.168067
    29  H    0.153755
    30  H    0.158263
    31  C   -0.298183
    32  C   -0.299640
    33  C   -0.475680
    34  H    0.149601
    35  H    0.149414
    36  H    0.151878
    37  H    0.151836
    38  H    0.155164
    39  H    0.155170
    40  H    0.160183
 Sum of Mulliken charges =  -0.00000

 Dipole moment (field-independent basis, Debye):
    X=              0.0621    Y=              0.0315    Z=             -0.0056  Tot=              0.0698
 Quadrupole moment (field-independent basis, Debye-Ang):
   XX=            -86.0460   YY=            -85.0345   ZZ=            -83.8027
   XY=              1.2518   XZ=              0.5793   YZ=             -0.1306

 Normal termination of Gaussian 16 at Wed May  5 19:40:36 2021.
