 Gaussian 16, Revision A.03,
 Gaussian 16:  EM64L-G16RevA.03 25-Dec-2016

 -------------
 #p 6-31g* mp2
 -------------

 ------------------------------------------------------
 Input file generated by CHIRIPA (05-May-2021 14:55:24)
 ------------------------------------------------------
 Symbolic Z-matrix:
 Charge =  0 Multiplicity = 1

                         Standard orientation:
 ---------------------------------------------------------------------
 Center     Atomic      Atomic             Coordinates (Angstroms)
 Number     Number       Type             X           Y           Z
 ---------------------------------------------------------------------
      1          6           0       -0.740099   -0.406228    1.348203
      2          6           0       -1.915799   -0.974350    1.849690
      3          6           0       -3.131370   -0.795750    1.182577
      4          6           0       -3.134848   -0.039773    0.011349
      5          6           0       -1.980330    0.539003   -0.513436
      6          6           0       -0.776054    0.347306    0.170318
      7          1           0        0.199798   -0.550055    1.872896
      8          1           0       -1.890868   -1.560037    2.764235
      9          1           0       -4.056435   -1.224328    1.548628
     10          1           0       -2.036705    1.117765   -1.427369
     11          1           0        0.135451    0.789696   -0.221468
     12          7           0       -4.415740    0.156235   -0.703702
     13          8           0       -4.392191    0.826540   -1.733640
     14          8           0       -5.418997   -0.364151   -0.220680
     15          6           0        3.979072   -0.481716   -0.610307
     16          6           0        3.697733   -1.863300   -0.018649
     17          6           0        4.177002   -3.001295   -0.920350
     18          1           0        3.491547   -0.403946   -1.591742
     19          1           0        5.058528   -0.379749   -0.788557
     20          1           0        2.619291   -1.962111    0.159720
     21          1           0        4.185825   -1.937721    0.961577
     22          1           0        5.256458   -2.930748   -1.088866
     23          1           0        3.681023   -2.955277   -1.895280
     24          1           0        3.965905   -3.979957   -0.478177
     25          6           0        3.505705    0.666234    0.279561
     26          6           0        3.787045    2.047818   -0.312097
     27          6           0        3.307776    3.185812    0.589603
     28          1           0        2.426250    0.564267    0.457811
     29          1           0        3.993231    0.588464    1.260996
     30          1           0        3.298952    2.122239   -1.292323
     31          1           0        4.865487    2.146629   -0.490466
     32          1           0        3.803755    3.139795    1.564534
     33          1           0        2.228320    3.115265    0.758120
     34          1           0        3.518873    4.164475    0.147431
 ---------------------------------------------------------------------

 SCF Done:  E(RHF) =  -669.535463080     A.U. after   15 cycles
 E2 =    -0.2091861026D+01 EUMP2 =    -0.67162732410635D+03

 The electronic state is 1-A.
 Alpha  occ. eigenvalues --  -20.60757 -20.60752 -15.85811 -11.31179 -11.27750
 Alpha  occ. eigenvalues --  -11.27746 -11.27478 -11.26760 -11.26745 -11.22596
 Alpha  occ. eigenvalues --  -11.22535 -11.22492 -11.22303 -11.21946 -11.21746
 Alpha  occ. eigenvalues --   -1.59833  -1.39386  -1.19351  -1.09425  -1.08744
 Alpha  occ. eigenvalues --   -1.04757  -1.04417  -0.96861  -0.95579  -0.87870
 Alpha  occ. eigenvalues --   -0.86160  -0.82411  -0.80487  -0.79262  -0.77461
 Alpha  occ. eigenvalues --   -0.72030  -0.71156  -0.70457  -0.66144  -0.65001
 Alpha  occ. eigenvalues --   -0.64721  -0.62137  -0.61779  -0.60226  -0.58472
 Alpha  occ. eigenvalues --   -0.56155  -0.55247  -0.53509  -0.53284  -0.53082
 Alpha  occ. eigenvalues --   -0.52854  -0.50799  -0.48821  -0.48784  -0.48763
 Alpha  occ. eigenvalues --   -0.47530  -0.46769  -0.46707  -0.44791  -0.44701
 Alpha  occ. eigenvalues --   -0.37328  -0.36360
 Alpha virt. eigenvalues --    0.05068   0.11255   0.16532   0.18378   0.22676
 Alpha virt. eigenvalues --    0.23142   0.24828   0.25846   0.27083   0.27814
 Alpha virt. eigenvalues --    0.29611   0.30594   0.30970   0.31230   0.31871

 Mulliken charges:
               1
     1  C   -0.173748
     2  C   -0.218544
     3  C   -0.171007
     4  C    0.158756
     5  C   -0.170928
     6  C   -0.224023
     7  H    0.228114
     8  H    0.223582
     9  H    0.275619
    10  H    0.275705
    11  H    0.228753
    12  N    0.487954
    13  O   -0.460447
    14  O   -0.460374
    15  C   -0.298525
    16  C   -0.301048
    17  C   -0.476092
    18  H    0.150997
    19  H    0.154053
    20  H    0.147654
    21  H    0.152476
    22  H    0.157339
    23  H    0.157525
    24  H    0.162181
    25  C   -0.303509
    26  C   -0.301191
    27  C   -0.476358
    28  H    0.139427
    29  H    0.153058
    30  H    0.151918
    31  H    0.156982
    32  H    0.157418
    33  H    0.151283
    34  H    0.164998
 Sum of Mulliken charges =  -0.00000

 Dipole moment (field-independent basis, Debye):
    X=              4.7467    Y=             -0.6902    Z=              2.4810  Tot=              5.4003
 Quadrupole moment (field-independent basis, Debye-Ang):
   XX=           -120.6382   YY=            -94.2446   ZZ=            -92.6841
   XY=              3.8739   XZ=             -9.3751   YZ=             -2.7862

 Normal termination of Gaussian 16 at Thu May  6 07:54:02 2021.
