 Gaussian 16, Revision A.03,
 Gaussian 16:  EM64L-G16RevA.03 25-Dec-2016

 -------------
 #p 6-31g* mp2
 -------------

 ------------------------------------------------------
 Input file generated by CHIRIPA (05-May-2021 14:57:23)
 ------------------------------------------------------
 Symbolic Z-matrix:
 Charge =  0 Multiplicity = 1

                         Standard orientation:
 ---------------------------------------------------------------------
 Center     Atomic      Atomic             Coordinates (Angstroms)
 Number     Number       Type             X           Y           Z
 ---------------------------------------------------------------------
      1          6           0        1.841827    1.879077    0.955480
      2          6           0        2.849869    1.369988    1.780829
      3          6           0        3.813670    0.496559    1.268229
      4          6           0        3.739078    0.151752   -0.080412
      5          6           0        2.747059    0.642203   -0.928141
      6          6           0        1.793724    1.514203   -0.393991
      7          1           0        1.097188    2.557023    1.362050
      8          1           0        2.889693    1.651622    2.829228
      9          1           0        4.604932    0.087645    1.884762
     10          1           0        2.733347    0.343207   -1.969214
     11          1           0        1.012004    1.908018   -1.037318
     12          7           0        4.753871   -0.772152   -0.634486
     13          8           0        4.666215   -1.060520   -1.826038
     14          8           0        5.617706   -1.190445    0.133276
     15          6           0       -5.890180    0.551996   -0.519235
     16          6           0       -4.783666    1.090838   -1.183914
     17          6           0       -3.494511    0.624224   -0.910240
     18          6           0       -3.347698   -0.386779    0.038237
     19          6           0       -4.430318   -0.943831    0.717146
     20          6           0       -5.710292   -0.461831    0.427504
     21          1           0       -6.888060    0.920450   -0.738034
     22          1           0       -4.920372    1.878273   -1.919646
     23          1           0       -2.620390    1.023561   -1.410101
     24          1           0       -4.262454   -1.727907    1.445476
     25          1           0       -6.567791   -0.882169    0.945244
     26          7           0       -1.987787   -0.888907    0.336416
     27          8           0       -1.885116   -1.780343    1.176319
     28          8           0       -1.050311   -0.381530   -0.275420
 ---------------------------------------------------------------------

 SCF Done:  E(RHF) =  -868.337713311     A.U. after   16 cycles
 E2 =    -0.2599829671D+01 EUMP2 =    -0.87093754298280D+03

 The electronic state is 1-A.
 Alpha  occ. eigenvalues --  -20.61383 -20.61350 -20.59823 -20.59817 -15.86414
 Alpha  occ. eigenvalues --  -15.84869 -11.31756 -11.30053 -11.28362 -11.28281
 Alpha  occ. eigenvalues --  -11.28021 -11.27329 -11.27284 -11.26620 -11.26558
 Alpha  occ. eigenvalues --  -11.26343 -11.25658 -11.25581  -1.60436  -1.58898
 Alpha  occ. eigenvalues --   -1.39997  -1.38458  -1.19917  -1.18197  -1.09310
 Alpha  occ. eigenvalues --   -1.07643  -1.05317  -1.03586  -0.96154  -0.94515
 Alpha  occ. eigenvalues --   -0.86714  -0.85016  -0.82992  -0.81361  -0.78054
 Alpha  occ. eigenvalues --   -0.76424  -0.72640  -0.71762  -0.71102  -0.71020
 Alpha  occ. eigenvalues --   -0.70209  -0.69371  -0.65572  -0.65312  -0.63880
 Alpha  occ. eigenvalues --   -0.63633  -0.62671  -0.60970  -0.55800  -0.54158
 Alpha  occ. eigenvalues --   -0.53644  -0.53407  -0.51890  -0.51725  -0.49394
 Alpha  occ. eigenvalues --   -0.49363  -0.47860  -0.47842  -0.45409  -0.43906
 Alpha  occ. eigenvalues --   -0.37886  -0.36920  -0.36144  -0.35105
 Alpha virt. eigenvalues --    0.04474   0.06119   0.10735   0.12516   0.16006
 Alpha virt. eigenvalues --    0.17657   0.20710   0.22316   0.26335   0.27285
 Alpha virt. eigenvalues --    0.28637   0.29264   0.30390   0.31358   0.32753

 Mulliken charges:
               1
     1  C   -0.168239
     2  C   -0.217377
     3  C   -0.171489
     4  C    0.158862
     5  C   -0.168193
     6  C   -0.196375
     7  H    0.219035
     8  H    0.218872
     9  H    0.271980
    10  H    0.272260
    11  H    0.217636
    12  N    0.488379
    13  O   -0.462684
    14  O   -0.463515
    15  C   -0.170580
    16  C   -0.218112
    17  C   -0.171396
    18  C    0.158464
    19  C   -0.170678
    20  C   -0.218216
    21  H    0.227368
    22  H    0.223994
    23  H    0.269634
    24  H    0.277165
    25  H    0.225426
    26  N    0.490753
    27  O   -0.456174
    28  O   -0.466800
 Sum of Mulliken charges =  -0.00000

 Dipole moment (field-independent basis, Debye):
    X=             -8.7467    Y=              4.9300    Z=              0.9064  Tot=             10.0813
 Quadrupole moment (field-independent basis, Debye-Ang):
   XX=            -99.2184   YY=           -104.5465   ZZ=            -99.7488
   XY=              8.7897   XZ=             11.5870   YZ=             -2.4837

 Normal termination of Gaussian 16 at Thu May  6 17:58:32 2021.
