 Gaussian 16, Revision A.03,
 Gaussian 16:  EM64L-G16RevA.03 25-Dec-2016

 -------------
 #p 6-31g* mp2
 -------------

 ------------------------------------------------------
 Input file generated by CHIRIPA (05-May-2021 14:51:11)
 ------------------------------------------------------
 Symbolic Z-matrix:
 Charge =  0 Multiplicity = 1

                         Standard orientation:
 ---------------------------------------------------------------------
 Center     Atomic      Atomic             Coordinates (Angstroms)
 Number     Number       Type             X           Y           Z
 ---------------------------------------------------------------------
      1          6           0       -2.527362   -0.065908    0.375830
      2          6           0       -3.958935    0.424949    0.594097
      3          6           0       -4.028508    1.670237    1.478525
      4          1           0       -2.067447   -0.280306    1.350230
      5          1           0       -1.935710    0.741008   -0.078295
      6          1           0       -4.548062   -0.383114    1.046403
      7          1           0       -4.415559    0.638021   -0.380947
      8          1           0       -3.464722    2.494028    1.028955
      9          1           0       -3.597977    1.467091    2.464414
     10          1           0       -5.061006    2.003978    1.621438
     11          6           0       -2.441426   -1.310149   -0.506331
     12          6           0       -1.009852   -1.801007   -0.724599
     13          6           0       -0.940279   -3.046294   -1.609027
     14          1           0       -3.033077   -2.117066   -0.052207
     15          1           0       -2.901340   -1.095751   -1.480732
     16          1           0       -0.553228   -2.014079    0.250445
     17          1           0       -0.420725   -0.992944   -1.176904
     18          1           0       -1.370810   -2.843149   -2.594915
     19          1           0       -1.504065   -3.870086   -1.159456
     20          1           0        0.092219   -3.380036   -1.751940
     21          6           0        2.722720    0.326626    0.694553
     22          6           0        3.218583   -1.094726    0.426478
     23          6           0        3.692018   -1.804778    1.695131
     24          1           0        3.529454    0.907495    1.162226
     25          1           0        1.901242    0.289556    1.423383
     26          1           0        4.037962   -1.055109   -0.302676
     27          1           0        2.410637   -1.672223   -0.040787
     28          1           0        2.878400   -1.873785    2.424420
     29          1           0        4.514969   -1.253165    2.161043
     30          1           0        4.042190   -2.819261    1.480505
     31          6           0        2.246067    1.049432   -0.564051
     32          6           0        1.750203    2.470783   -0.295976
     33          6           0        1.276770    3.180835   -1.564630
     34          1           0        3.067545    1.086501   -1.292882
     35          1           0        1.439334    0.468563   -1.031724
     36          1           0        2.558149    3.048280    0.171288
     37          1           0        0.930825    2.431166    0.433177
     38          1           0        0.453818    2.629222   -2.030542
     39          1           0        2.090388    3.249842   -2.293919
     40          1           0        0.926598    4.195318   -1.350004
 ---------------------------------------------------------------------

 SCF Done:  E(RHF) =  -470.733315137     A.U. after   11 cycles
 E2 =    -0.1583946941D+01 EUMP2 =    -0.47231726207773D+03

 The electronic state is 1-A.
 Alpha  occ. eigenvalues --  -11.21692 -11.21661 -11.21583 -11.21554 -11.21490
 Alpha  occ. eigenvalues --  -11.21431 -11.21355 -11.21295 -11.21146 -11.21114
 Alpha  occ. eigenvalues --  -11.21094 -11.21051  -1.08521  -1.08389  -1.03605
 Alpha  occ. eigenvalues --   -1.03508  -0.96048  -0.95961  -0.87064  -0.86977
 Alpha  occ. eigenvalues --   -0.79684  -0.79569  -0.78381  -0.78159  -0.65214
 Alpha  occ. eigenvalues --   -0.64971  -0.61036  -0.60882  -0.59421  -0.59324
 Alpha  occ. eigenvalues --   -0.57663  -0.57570  -0.55359  -0.55230  -0.52741
 Alpha  occ. eigenvalues --   -0.52658  -0.52483  -0.52380  -0.50027  -0.49880
 Alpha  occ. eigenvalues --   -0.48030  -0.47902  -0.46840  -0.46528  -0.46132
 Alpha  occ. eigenvalues --   -0.45821  -0.45685  -0.45270  -0.43856  -0.43756
 Alpha virt. eigenvalues --    0.19779   0.22221   0.23618   0.24175   0.25777
 Alpha virt. eigenvalues --    0.26405   0.27038   0.27678   0.28186   0.29822
 Alpha virt. eigenvalues --    0.30522   0.31375   0.31536   0.31752   0.32402

 Mulliken charges:
               1
     1  C   -0.299635
     2  C   -0.299656
     3  C   -0.475880
     4  H    0.149438
     5  H    0.149975
     6  H    0.152235
     7  H    0.152226
     8  H    0.155422
     9  H    0.155176
    10  H    0.160555
    11  C   -0.297979
    12  C   -0.307925
    13  C   -0.476321
    14  H    0.150018
    15  H    0.149903
    16  H    0.152454
    17  H    0.158635
    18  H    0.155548
    19  H    0.155660
    20  H    0.161040
    21  C   -0.297497
    22  C   -0.303400
    23  C   -0.475579
    24  H    0.149370
    25  H    0.149922
    26  H    0.151541
    27  H    0.156006
    28  H    0.154741
    29  H    0.155153
    30  H    0.160027
    31  C   -0.305772
    32  C   -0.300268
    33  C   -0.475781
    34  H    0.149171
    35  H    0.156933
    36  H    0.151991
    37  H    0.152935
    38  H    0.153865
    39  H    0.155438
    40  H    0.160313
 Sum of Mulliken charges =  -0.00000

 Dipole moment (field-independent basis, Debye):
    X=             -0.0371    Y=             -0.0180    Z=             -0.0052  Tot=              0.0416
 Quadrupole moment (field-independent basis, Debye-Ang):
   XX=            -84.0628   YY=            -85.5240   ZZ=            -85.1438
   XY=              0.8462   XZ=             -0.3996   YZ=             -0.5317

 Normal termination of Gaussian 16 at Wed May  5 15:15:16 2021.
