 Gaussian 16, Revision A.03,
 Gaussian 16:  EM64L-G16RevA.03 25-Dec-2016

 -------------
 #p 6-31g* mp2
 -------------

 ------------------------------------------------------
 Input file generated by CHIRIPA (05-May-2021 14:53:12)
 ------------------------------------------------------
 Symbolic Z-matrix:
 Charge =  0 Multiplicity = 1

                         Standard orientation:
 ---------------------------------------------------------------------
 Center     Atomic      Atomic             Coordinates (Angstroms)
 Number     Number       Type             X           Y           Z
 ---------------------------------------------------------------------
      1          6           0       -4.605305   -0.166995   -0.383713
      2          6           0       -3.370934    0.326919    0.371511
      3          6           0       -2.081740    0.168489   -0.435131
      4          1           0       -4.465600   -1.223488   -0.650641
      5          1           0       -4.693250    0.385369   -1.329522
      6          1           0       -3.286124   -0.225244    1.316253
      7          1           0       -3.513676    1.382306    0.636840
      8          1           0       -2.140988    0.733493   -1.371006
      9          1           0       -1.912143   -0.883191   -0.687732
     10          1           0       -1.211881    0.527746    0.123563
     11          6           0       -5.901910   -0.015205    0.409701
     12          6           0       -7.136281   -0.509120   -0.345523
     13          6           0       -8.425476   -0.350690    0.461119
     14          1           0       -5.813965   -0.567569    1.355510
     15          1           0       -6.041615    1.041287    0.676629
     16          1           0       -6.993540   -1.564507   -0.610852
     17          1           0       -7.221092    0.043044   -1.290265
     18          1           0       -8.595073    0.700990    0.713720
     19          1           0       -8.366228   -0.915694    1.396994
     20          1           0       -9.295335   -0.709946   -0.097575
     21          6           0        2.354527    1.873747   -0.243938
     22          6           0        2.018012    0.536701   -0.479704
     23          6           0        2.979434   -0.470373   -0.353145
     24          6           0        4.273551   -0.103094    0.012450
     25          6           0        4.639712    1.220098    0.254067
     26          6           0        3.661998    2.210585    0.121550
     27          1           0        1.601343    2.649624   -0.344567
     28          1           0        1.003403    0.272179   -0.763681
     29          1           0        2.746164   -1.513358   -0.529739
     30          1           0        5.659455    1.452914    0.535737
     31          1           0        3.926196    3.248125    0.305270
     32          7           0        5.299989   -1.160458    0.149585
     33          8           0        6.433072   -0.810820    0.472868
     34          8           0        4.951991   -2.318836   -0.068806
 ---------------------------------------------------------------------

 SCF Done:  E(RHF) =  -669.535596322     A.U. after   15 cycles
 E2 =    -0.2090799904D+01 EUMP2 =    -0.67162639622579D+03

 The electronic state is 1-A.
 Alpha  occ. eigenvalues --  -20.60716 -20.60711 -15.85768 -11.31123 -11.27693
 Alpha  occ. eigenvalues --  -11.27673 -11.27425 -11.26709 -11.26631 -11.22425
 Alpha  occ. eigenvalues --  -11.22217 -11.22018 -11.22004 -11.21864 -11.21405
 Alpha  occ. eigenvalues --   -1.59792  -1.39345  -1.19290  -1.09035  -1.08688
 Alpha  occ. eigenvalues --   -1.04689  -1.04182  -0.96661  -0.95526  -0.87698
 Alpha  occ. eigenvalues --   -0.86084  -0.82356  -0.80260  -0.78806  -0.77405
 Alpha  occ. eigenvalues --   -0.71987  -0.71114  -0.70402  -0.65658  -0.64941
 Alpha  occ. eigenvalues --   -0.64719  -0.62075  -0.61571  -0.60033  -0.58239
 Alpha  occ. eigenvalues --   -0.55935  -0.55197  -0.53517  -0.53095  -0.53004
 Alpha  occ. eigenvalues --   -0.52622  -0.50589  -0.48743  -0.48743  -0.48564
 Alpha  occ. eigenvalues --   -0.47261  -0.46361  -0.46255  -0.44753  -0.44422
 Alpha  occ. eigenvalues --   -0.37274  -0.36289
 Alpha virt. eigenvalues --    0.05125   0.11292   0.16615   0.20652   0.22384
 Alpha virt. eigenvalues --    0.23805   0.25880   0.26093   0.26920   0.28044
 Alpha virt. eigenvalues --    0.28530   0.30227   0.30769   0.31164   0.31788

 Mulliken charges:
               1
     1  C   -0.299314
     2  C   -0.299442
     3  C   -0.482978
     4  H    0.151307
     5  H    0.149969
     6  H    0.155527
     7  H    0.152853
     8  H    0.155991
     9  H    0.158019
    10  H    0.154689
    11  C   -0.298881
    12  C   -0.300091
    13  C   -0.476036
    14  H    0.150864
    15  H    0.149988
    16  H    0.152894
    17  H    0.152208
    18  H    0.155400
    19  H    0.155961
    20  H    0.161526
    21  C   -0.173294
    22  C   -0.226118
    23  C   -0.172637
    24  C    0.158867
    25  C   -0.171361
    26  C   -0.218394
    27  H    0.225451
    28  H    0.236121
    29  H    0.275716
    30  H    0.275323
    31  H    0.223051
    32  N    0.488039
    33  O   -0.460680
    34  O   -0.460540
 Sum of Mulliken charges =  -0.00000

 Dipole moment (field-independent basis, Debye):
    X=             -3.8567    Y=              3.7050    Z=             -0.4713  Tot=              5.3687
 Quadrupole moment (field-independent basis, Debye-Ang):
   XX=           -123.9670   YY=            -92.5904   ZZ=            -95.3761
   XY=             19.1149   XZ=             -0.6962   YZ=              0.6988

 Normal termination of Gaussian 16 at Thu May  6 04:06:14 2021.
