 Gaussian 16, Revision A.03,
 Gaussian 16:  EM64L-G16RevA.03 25-Dec-2016

 -------------
 #p 6-31g* mp2
 -------------

 ------------------------------------------------------
 Input file generated by CHIRIPA (05-May-2021 14:53:17)
 ------------------------------------------------------
 Symbolic Z-matrix:
 Charge =  0 Multiplicity = 1

                         Standard orientation:
 ---------------------------------------------------------------------
 Center     Atomic      Atomic             Coordinates (Angstroms)
 Number     Number       Type             X           Y           Z
 ---------------------------------------------------------------------
      1          6           0       -3.467356    0.311146   -0.085556
      2          6           0       -3.895588   -1.112781   -0.441976
      3          6           0       -5.223603   -1.509745    0.203462
      4          1           0       -3.387152    0.400614    1.006464
      5          1           0       -4.252874    1.012310   -0.399763
      6          1           0       -3.108881   -1.810923   -0.128438
      7          1           0       -3.974597   -1.198923   -1.533284
      8          1           0       -6.024754   -0.836520   -0.118294
      9          1           0       -5.154120   -1.451997    1.294534
     10          1           0       -5.510753   -2.531286   -0.064605
     11          6           0       -2.141571    0.722600   -0.723307
     12          6           0       -1.713339    2.146526   -0.366887
     13          6           0       -0.385324    2.543490   -1.012325
     14          1           0       -1.356054    0.021435   -0.409100
     15          1           0       -2.221775    0.633132   -1.815327
     16          1           0       -1.634331    2.232668    0.724421
     17          1           0       -2.500046    2.844668   -0.680425
     18          1           0       -0.454808    2.485743   -2.103397
     19          1           0        0.415826    1.870265   -0.690568
     20          1           0       -0.098174    3.565031   -0.744258
     21          6           0        3.100481   -1.022556   -1.954697
     22          6           0        2.351501   -1.950755   -1.223947
     23          6           0        1.842642   -1.618814    0.035189
     24          6           0        2.103061   -0.343989    0.535481
     25          6           0        2.845789    0.602712   -0.168369
     26          6           0        3.344804    0.248973   -1.425509
     27          1           0        3.491951   -1.288882   -2.932049
     28          1           0        2.160183   -2.938978   -1.632429
     29          1           0        1.259718   -2.318060    0.622277
     30          1           0        3.019940    1.580055    0.265093
     31          1           0        3.926148    0.971852   -1.990778
     32          7           0        1.569566    0.018961    1.867416
     33          8           0        1.812977    1.148641    2.285997
     34          8           0        0.918101   -0.833113    2.467585
 ---------------------------------------------------------------------

 SCF Done:  E(RHF) =  -669.535146164     A.U. after   15 cycles
 E2 =    -0.2093646623D+01 EUMP2 =    -0.67162879278698D+03

 The electronic state is 1-A.
 Alpha  occ. eigenvalues --  -20.60898 -20.60879 -15.85932 -11.31276 -11.27860
 Alpha  occ. eigenvalues --  -11.27822 -11.27579 -11.26854 -11.26841 -11.21371
 Alpha  occ. eigenvalues --  -11.21228 -11.21110 -11.21025 -11.20828 -11.20787
 Alpha  occ. eigenvalues --   -1.59960  -1.39513  -1.19465  -1.08853  -1.08129
 Alpha  occ. eigenvalues --   -1.04860  -1.03248  -0.95734  -0.95668  -0.86745
 Alpha  occ. eigenvalues --   -0.86247  -0.82517  -0.79319  -0.77949  -0.77567
 Alpha  occ. eigenvalues --   -0.72149  -0.71298  -0.70560  -0.65108  -0.64854
 Alpha  occ. eigenvalues --   -0.64743  -0.62203  -0.60652  -0.59080  -0.57333
 Alpha  occ. eigenvalues --   -0.55359  -0.55049  -0.53244  -0.52939  -0.52411
 Alpha  occ. eigenvalues --   -0.52093  -0.49654  -0.48909  -0.48906  -0.47629
 Alpha  occ. eigenvalues --   -0.46333  -0.45485  -0.45398  -0.44898  -0.43503
 Alpha  occ. eigenvalues --   -0.37397  -0.36400
 Alpha virt. eigenvalues --    0.04949   0.11092   0.16447   0.21314   0.22979
 Alpha virt. eigenvalues --    0.24451   0.26603   0.27158   0.27693   0.28209
 Alpha virt. eigenvalues --    0.28527   0.30966   0.31534   0.32068   0.32191

 Mulliken charges:
               1
     1  C   -0.298969
     2  C   -0.299001
     3  C   -0.475839
     4  H    0.156196
     5  H    0.148295
     6  H    0.151179
     7  H    0.148847
     8  H    0.154516
     9  H    0.158088
    10  H    0.158360
    11  C   -0.297990
    12  C   -0.302012
    13  C   -0.479681
    14  H    0.147202
    15  H    0.145878
    16  H    0.161668
    17  H    0.150420
    18  H    0.150135
    19  H    0.156834
    20  H    0.160037
    21  C   -0.170628
    22  C   -0.217675
    23  C   -0.171800
    24  C    0.161449
    25  C   -0.175969
    26  C   -0.215394
    27  H    0.226184
    28  H    0.224059
    29  H    0.275823
    30  H    0.277021
    31  H    0.224463
    32  N    0.488780
    33  O   -0.459794
    34  O   -0.460683
 Sum of Mulliken charges =  -0.00000

 Dipole moment (field-independent basis, Debye):
    X=              1.9856    Y=             -1.2963    Z=             -4.5899  Tot=              5.1663
 Quadrupole moment (field-independent basis, Debye-Ang):
   XX=            -87.1588   YY=            -90.0335   ZZ=            -99.9896
   XY=             -1.8961   XZ=             -8.8794   YZ=              0.6406

 Normal termination of Gaussian 16 at Thu May  6 18:57:32 2021.
