 Gaussian 16, Revision A.03,
 Gaussian 16:  EM64L-G16RevA.03 25-Dec-2016

 -------------
 #p 6-31g* mp2
 -------------

 ------------------------------------------------------
 Input file generated by CHIRIPA (05-May-2021 14:57:23)
 ------------------------------------------------------
 Symbolic Z-matrix:
 Charge =  0 Multiplicity = 1

                         Standard orientation:
 ---------------------------------------------------------------------
 Center     Atomic      Atomic             Coordinates (Angstroms)
 Number     Number       Type             X           Y           Z
 ---------------------------------------------------------------------
      1          6           0        1.836912    0.443946    0.067533
      2          6           0        2.669697    1.499809   -0.317364
      3          6           0        4.053057    1.317484   -0.404663
      4          6           0        4.572174    0.060468   -0.098529
      5          6           0        3.768639   -1.011115    0.287904
      6          6           0        2.388069   -0.805943    0.368408
      7          1           0        0.763369    0.594454    0.132709
      8          1           0        2.244437    2.471572   -0.551616
      9          1           0        4.720878    2.117602   -0.700032
     10          1           0        4.221810   -1.968394    0.515216
     11          1           0        1.743740   -1.627752    0.667596
     12          7           0        6.035198   -0.144645   -0.187352
     13          8           0        6.467846   -1.261722    0.087588
     14          8           0        6.721566    0.815548   -0.530229
     15          6           0       -6.692736    0.315066   -0.704019
     16          6           0       -6.040852   -0.877190   -1.035822
     17          6           0       -4.732310   -1.114688   -0.604706
     18          6           0       -4.102731   -0.133846    0.160063
     19          6           0       -4.725566    1.064069    0.507000
     20          6           0       -6.034175    1.280189    0.064976
     21          1           0       -7.709269    0.491255   -1.043156
     22          1           0       -6.549843   -1.628499   -1.632904
     23          1           0       -4.204122   -2.028832   -0.847145
     24          1           0       -4.192290    1.794237    1.103565
     25          1           0       -6.537972    2.207039    0.324170
     26          7           0       -2.717401   -0.373958    0.622239
     27          8           0       -2.184598    0.506016    1.294848
     28          8           0       -2.190613   -1.437585    0.303131
 ---------------------------------------------------------------------

 SCF Done:  E(RHF) =  -868.341202425     A.U. after   16 cycles
 E2 =    -0.2598178952D+01 EUMP2 =    -0.87093938137778D+03

 The electronic state is 1-A.
 Alpha  occ. eigenvalues --  -20.62081 -20.62076 -20.59935 -20.59928 -15.87075
 Alpha  occ. eigenvalues --  -15.84981 -11.32079 -11.30107 -11.28605 -11.28593
 Alpha  occ. eigenvalues --  -11.28270 -11.27529 -11.27517 -11.26700 -11.26631
 Alpha  occ. eigenvalues --  -11.26116 -11.25601 -11.25441  -1.61137  -1.59016
 Alpha  occ. eigenvalues --   -1.40694  -1.38577  -1.20216  -1.18238  -1.09679
 Alpha  occ. eigenvalues --   -1.07628  -1.05560  -1.03616  -0.96572  -0.94511
 Alpha  occ. eigenvalues --   -0.86974  -0.84991  -0.83415  -0.81369  -0.78503
 Alpha  occ. eigenvalues --   -0.76490  -0.73299  -0.72430  -0.71313  -0.71202
 Alpha  occ. eigenvalues --   -0.70339  -0.69214  -0.65868  -0.65555  -0.63863
 Alpha  occ. eigenvalues --   -0.63579  -0.62909  -0.60975  -0.56072  -0.53975
 Alpha  occ. eigenvalues --   -0.53880  -0.53642  -0.51954  -0.51677  -0.50074
 Alpha  occ. eigenvalues --   -0.50038  -0.47973  -0.47934  -0.46171  -0.44037
 Alpha  occ. eigenvalues --   -0.38171  -0.37145  -0.36138  -0.35246
 Alpha virt. eigenvalues --    0.03969   0.06047   0.10516   0.12430   0.15544
 Alpha virt. eigenvalues --    0.17628   0.20702   0.22807   0.26643   0.27562
 Alpha virt. eigenvalues --    0.28517   0.29689   0.30389   0.31742   0.32486

 Mulliken charges:
               1
     1  C   -0.175744
     2  C   -0.220692
     3  C   -0.172446
     4  C    0.156898
     5  C   -0.172812
     6  C   -0.221669
     7  H    0.244710
     8  H    0.219464
     9  H    0.271273
    10  H    0.272325
    11  H    0.232707
    12  N    0.488329
    13  O   -0.463031
    14  O   -0.463942
    15  C   -0.169347
    16  C   -0.218559
    17  C   -0.170222
    18  C    0.157609
    19  C   -0.170626
    20  C   -0.218560
    21  H    0.228719
    22  H    0.226301
    23  H    0.276478
    24  H    0.275754
    25  H    0.226018
    26  N    0.488428
    27  O   -0.465224
    28  O   -0.462139
 Sum of Mulliken charges =  -0.00000

 Dipole moment (field-independent basis, Debye):
    X=            -10.7950    Y=              1.4945    Z=             -1.3019  Tot=             10.9754
 Quadrupole moment (field-independent basis, Debye-Ang):
   XX=           -113.2584   YY=            -96.7126   ZZ=           -105.4521
   XY=              0.5233   XZ=              8.2292   YZ=              1.1785

 Normal termination of Gaussian 16 at Fri May  7 12:32:06 2021.
