 Gaussian 16, Revision A.03,
 Gaussian 16:  EM64L-G16RevA.03 25-Dec-2016

 -------------
 #p 6-31g* mp2
 -------------

 ------------------------------------------------------
 Input file generated by CHIRIPA (05-May-2021 14:51:09)
 ------------------------------------------------------
 Symbolic Z-matrix:
 Charge =  0 Multiplicity = 1

                         Standard orientation:
 ---------------------------------------------------------------------
 Center     Atomic      Atomic             Coordinates (Angstroms)
 Number     Number       Type             X           Y           Z
 ---------------------------------------------------------------------
      1          6           0        2.524237    0.735676   -0.095527
      2          6           0        3.688745    1.279779    0.732638
      3          6           0        3.445883    2.705440    1.228926
      4          1           0        2.351067    1.399617   -0.953513
      5          1           0        1.608137    0.762842    0.510623
      6          1           0        4.602647    1.250305    0.125571
      7          1           0        3.859287    0.614361    1.588646
      8          1           0        2.549806    2.747475    1.856524
      9          1           0        3.297390    3.387032    0.385136
     10          1           0        4.290738    3.074632    1.818654
     11          6           0        2.752156   -0.688578   -0.598796
     12          6           0        1.587647   -1.232681   -1.426961
     13          6           0        1.830509   -2.658342   -1.923249
     14          1           0        3.668256   -0.715744   -1.204946
     15          1           0        2.925326   -1.352519    0.259190
     16          1           0        1.417106   -0.567263   -2.282969
     17          1           0        0.673746   -1.203207   -0.819893
     18          1           0        1.979003   -3.339934   -1.079458
     19          1           0        2.726587   -2.700376   -2.550847
     20          1           0        0.985655   -3.027533   -2.512977
     21          6           0       -3.154362    0.274869   -0.130282
     22          6           0       -2.892670    1.743645   -0.465243
     23          6           0       -3.933735    2.326480   -1.421423
     24          1           0       -3.168186   -0.309866   -1.060249
     25          1           0       -4.155052    0.179898    0.313559
     26          1           0       -1.892223    1.836010   -0.907048
     27          1           0       -2.879277    2.324922    0.465646
     28          1           0       -4.935744    2.263570   -0.984821
     29          1           0       -3.943082    1.771880   -2.365315
     30          1           0       -3.727497    3.377318   -1.647401
     31          6           0       -2.122031   -0.321967    0.824605
     32          6           0       -2.383723   -1.790743    1.159566
     33          6           0       -1.342658   -2.373578    2.115745
     34          1           0       -1.121341   -0.226996    0.380764
     35          1           0       -2.108207    0.262768    1.754572
     36          1           0       -2.397115   -2.372020    0.228676
     37          1           0       -3.384169   -1.883108    1.601370
     38          1           0       -1.333311   -1.818978    3.059637
     39          1           0       -0.340648   -2.310668    1.679143
     40          1           0       -1.548896   -3.424416    2.341724
 ---------------------------------------------------------------------

 SCF Done:  E(RHF) =  -470.733279067     A.U. after   11 cycles
 E2 =    -0.1583723072D+01 EUMP2 =    -0.47231700213973D+03

 The electronic state is 1-A.
 Alpha  occ. eigenvalues --  -11.21659 -11.21636 -11.21613 -11.21587 -11.21441
 Alpha  occ. eigenvalues --  -11.21410 -11.21379 -11.21351 -11.21128 -11.21124
 Alpha  occ. eigenvalues --  -11.21070 -11.21061  -1.08487  -1.08428  -1.03576
 Alpha  occ. eigenvalues --   -1.03535  -0.96010  -0.95996  -0.87029  -0.87011
 Alpha  occ. eigenvalues --   -0.79655  -0.79588  -0.78388  -0.78161  -0.65292
 Alpha  occ. eigenvalues --   -0.64912  -0.61098  -0.60809  -0.59392  -0.59348
 Alpha  occ. eigenvalues --   -0.57625  -0.57603  -0.55314  -0.55271  -0.52711
 Alpha  occ. eigenvalues --   -0.52687  -0.52437  -0.52420  -0.49980  -0.49926
 Alpha  occ. eigenvalues --   -0.48026  -0.47886  -0.46842  -0.46561  -0.46212
 Alpha  occ. eigenvalues --   -0.45790  -0.45766  -0.45139  -0.43817  -0.43797
 Alpha virt. eigenvalues --    0.19586   0.23211   0.23715   0.24628   0.25146
 Alpha virt. eigenvalues --    0.26656   0.26966   0.27987   0.28157   0.30179
 Alpha virt. eigenvalues --    0.30659   0.31597   0.31687   0.31790   0.32050

 Mulliken charges:
               1
     1  C   -0.301768
     2  C   -0.299613
     3  C   -0.475800
     4  H    0.149397
     5  H    0.152666
     6  H    0.151999
     7  H    0.152194
     8  H    0.155600
     9  H    0.155133
    10  H    0.160264
    11  C   -0.297898
    12  C   -0.309319
    13  C   -0.475229
    14  H    0.149920
    15  H    0.149683
    16  H    0.151787
    17  H    0.160148
    18  H    0.155505
    19  H    0.155572
    20  H    0.160064
    21  C   -0.297662
    22  C   -0.300099
    23  C   -0.475734
    24  H    0.149740
    25  H    0.149558
    26  H    0.152893
    27  H    0.151780
    28  H    0.155089
    29  H    0.155177
    30  H    0.160274
    31  C   -0.308650
    32  C   -0.299357
    33  C   -0.477502
    34  H    0.158591
    35  H    0.149535
    36  H    0.152214
    37  H    0.152375
    38  H    0.155281
    39  H    0.155441
    40  H    0.160750
 Sum of Mulliken charges =  -0.00000

 Dipole moment (field-independent basis, Debye):
    X=              0.0055    Y=              0.0030    Z=             -0.0014  Tot=              0.0064
 Quadrupole moment (field-independent basis, Debye-Ang):
   XX=            -84.7083   YY=            -85.9322   ZZ=            -84.0627
   XY=              0.4224   XZ=             -1.2749   YZ=             -0.1412

 Normal termination of Gaussian 16 at Wed May  5 16:40:07 2021.
