 Gaussian 16, Revision A.03,
 Gaussian 16:  EM64L-G16RevA.03 25-Dec-2016

 -------------
 #p 6-31g* mp2
 -------------

 ------------------------------------------------------
 Input file generated by CHIRIPA (05-May-2021 14:55:19)
 ------------------------------------------------------
 Symbolic Z-matrix:
 Charge =  0 Multiplicity = 1

                         Standard orientation:
 ---------------------------------------------------------------------
 Center     Atomic      Atomic             Coordinates (Angstroms)
 Number     Number       Type             X           Y           Z
 ---------------------------------------------------------------------
      1          6           0        0.422864   -0.650267    0.756419
      2          6           0        1.269640   -0.002157    1.661651
      3          6           0        2.593883    0.283043    1.315832
      4          6           0        3.040258   -0.095743    0.050699
      5          6           0        2.220976   -0.742673   -0.873178
      6          6           0        0.900393   -1.017809   -0.505880
      7          1           0       -0.604418   -0.867908    1.033402
      8          1           0        0.901504    0.284446    2.642660
      9          1           0        3.270943    0.783729    1.997243
     10          1           0        2.616603   -1.016098   -1.843815
     11          1           0        0.245030   -1.521251   -1.210927
     12          7           0        4.440237    0.200858   -0.326773
     13          8           0        4.809306   -0.143217   -1.447504
     14          8           0        5.141964    0.771793    0.505243
     15          6           0       -3.326859    0.817177   -0.478290
     16          6           0       -3.819530    2.106912    0.178858
     17          6           0       -3.272119    3.362782   -0.500054
     18          1           0       -2.228624    0.798400   -0.456489
     19          1           0       -3.618471    0.819107   -1.537702
     20          1           0       -3.528279    2.101920    1.237048
     21          1           0       -4.916724    2.122531    0.155663
     22          1           0       -3.574290    3.394918   -1.551843
     23          1           0       -2.177955    3.374191   -0.464313
     24          1           0       -3.636938    4.273170   -0.014294
     25          6           0       -3.865524   -0.446933    0.189237
     26          6           0       -3.372852   -1.736667   -0.467912
     27          6           0       -3.920263   -2.992539    0.211001
     28          1           0       -3.573911   -0.448863    1.248649
     29          1           0       -4.963757   -0.428156    0.167436
     30          1           0       -2.275659   -1.752287   -0.444715
     31          1           0       -3.664104   -1.731676   -1.526100
     32          1           0       -5.014427   -3.003946    0.175261
     33          1           0       -3.618092   -3.024675    1.262790
     34          1           0       -3.555445   -3.902925   -0.274760
 ---------------------------------------------------------------------

 SCF Done:  E(RHF) =  -669.535106294     A.U. after   15 cycles
 E2 =    -0.2092734829D+01 EUMP2 =    -0.67162784112296D+03

 The electronic state is 1-A.
 Alpha  occ. eigenvalues --  -20.60771 -20.60765 -15.85824 -11.31203 -11.27767
 Alpha  occ. eigenvalues --  -11.27762 -11.27485 -11.26788 -11.26772 -11.22886
 Alpha  occ. eigenvalues --  -11.22492 -11.22354 -11.22269 -11.22112 -11.21631
 Alpha  occ. eigenvalues --   -1.59846  -1.39399  -1.19374  -1.09454  -1.08765
 Alpha  occ. eigenvalues --   -1.04777  -1.04464  -0.96878  -0.95604  -0.87892
 Alpha  occ. eigenvalues --   -0.86178  -0.82434  -0.80565  -0.79234  -0.77475
 Alpha  occ. eigenvalues --   -0.72042  -0.71169  -0.70546  -0.66117  -0.65022
 Alpha  occ. eigenvalues --   -0.64758  -0.62151  -0.61842  -0.60258  -0.58489
 Alpha  occ. eigenvalues --   -0.56183  -0.55258  -0.53558  -0.53295  -0.53093
 Alpha  occ. eigenvalues --   -0.52868  -0.50826  -0.48858  -0.48799  -0.48790
 Alpha  occ. eigenvalues --   -0.47631  -0.46743  -0.46683  -0.44801  -0.44721
 Alpha  occ. eigenvalues --   -0.37337  -0.36378
 Alpha virt. eigenvalues --    0.05026   0.11235   0.16428   0.18748   0.22610
 Alpha virt. eigenvalues --    0.23614   0.24967   0.25537   0.26999   0.27941
 Alpha virt. eigenvalues --    0.29497   0.30106   0.30929   0.31251   0.31993

 Mulliken charges:
               1
     1  C   -0.174468
     2  C   -0.219988
     3  C   -0.170813
     4  C    0.158508
     5  C   -0.170611
     6  C   -0.222377
     7  H    0.232215
     8  H    0.223565
     9  H    0.275655
    10  H    0.275814
    11  H    0.226306
    12  N    0.487989
    13  O   -0.460273
    14  O   -0.460317
    15  C   -0.303151
    16  C   -0.299406
    17  C   -0.476711
    18  H    0.148719
    19  H    0.152778
    20  H    0.149983
    21  H    0.154143
    22  H    0.156863
    23  H    0.157220
    24  H    0.162506
    25  C   -0.300452
    26  C   -0.305740
    27  C   -0.475616
    28  H    0.144867
    29  H    0.155878
    30  H    0.141719
    31  H    0.157734
    32  H    0.160269
    33  H    0.154206
    34  H    0.162987
 Sum of Mulliken charges =  -0.00000

 Dipole moment (field-independent basis, Debye):
    X=             -5.1224    Y=             -1.0083    Z=              1.2740  Tot=              5.3739
 Quadrupole moment (field-independent basis, Debye-Ang):
   XX=           -123.7987   YY=            -94.9740   ZZ=            -90.4756
   XY=             -2.6082   XZ=              5.4270   YZ=              2.3826

 Normal termination of Gaussian 16 at Thu May  6 14:04:19 2021.
