 Gaussian 16, Revision A.03,
 Gaussian 16:  EM64L-G16RevA.03 25-Dec-2016

 -------------
 #p 6-31g* mp2
 -------------

 ------------------------------------------------------
 Input file generated by CHIRIPA (05-May-2021 14:57:26)
 ------------------------------------------------------
 Symbolic Z-matrix:
 Charge =  0 Multiplicity = 1

                         Standard orientation:
 ---------------------------------------------------------------------
 Center     Atomic      Atomic             Coordinates (Angstroms)
 Number     Number       Type             X           Y           Z
 ---------------------------------------------------------------------
      1          6           0       -1.656703    0.973357    1.885122
      2          6           0       -1.966137   -0.390676    1.871480
      3          6           0       -2.888892   -0.900247    0.953108
      4          6           0       -3.486080   -0.013359    0.058633
      5          6           0       -3.198661    1.350662    0.047368
      6          6           0       -2.272866    1.838148    0.974627
      7          1           0       -0.938704    1.360626    2.601988
      8          1           0       -1.489162   -1.064622    2.577410
      9          1           0       -3.146868   -1.951823    0.920615
     10          1           0       -3.690419    1.997852   -0.668689
     11          1           0       -2.034487    2.897936    0.982923
     12          7           0       -4.464568   -0.541129   -0.918311
     13          8           0       -4.976941    0.261018   -1.695917
     14          8           0       -4.700607   -1.746948   -0.887935
     15          6           0        5.842546   -0.237726   -0.215525
     16          6           0        5.070898   -1.302175    0.261999
     17          6           0        3.675137   -1.222248    0.264459
     18          6           0        3.081408   -0.057760   -0.220043
     19          6           0        3.822845    1.019705   -0.702361
     20          6           0        5.217158    0.917780   -0.695334
     21          1           0        6.926245   -0.308359   -0.213751
     22          1           0        5.553867   -2.200780    0.635224
     23          1           0        3.053600   -2.031373    0.628364
     24          1           0        3.312785    1.902586   -1.068118
     25          1           0        5.813898    1.746012   -1.066792
     26          7           0        1.604543    0.038500   -0.222461
     27          8           0        1.105626    1.075301   -0.654620
     28          8           0        0.973860   -0.924675    0.207851
 ---------------------------------------------------------------------

 SCF Done:  E(RHF) =  -868.337875066     A.U. after   16 cycles
 E2 =    -0.2600721369D+01 EUMP2 =    -0.87093859643431D+03

 The electronic state is 1-A.
 Alpha  occ. eigenvalues --  -20.61372 -20.61360 -20.59523 -20.59518 -15.86404
 Alpha  occ. eigenvalues --  -15.84564 -11.31697 -11.29613 -11.28257 -11.28249
 Alpha  occ. eigenvalues --  -11.27962 -11.27242 -11.27231 -11.26144 -11.26113
 Alpha  occ. eigenvalues --  -11.25855 -11.25161 -11.25122  -1.60434  -1.58602
 Alpha  occ. eigenvalues --   -1.39994  -1.38166  -1.19858  -1.17729  -1.09264
 Alpha  occ. eigenvalues --   -1.07208  -1.05247  -1.03111  -0.96112  -0.94110
 Alpha  occ. eigenvalues --   -0.86648  -0.84557  -0.82950  -0.80973  -0.78011
 Alpha  occ. eigenvalues --   -0.76047  -0.72629  -0.71771  -0.70958  -0.70805
 Alpha  occ. eigenvalues --   -0.69911  -0.68939  -0.65510  -0.65243  -0.63431
 Alpha  occ. eigenvalues --   -0.63187  -0.62596  -0.60522  -0.55743  -0.53712
 Alpha  occ. eigenvalues --   -0.53585  -0.53334  -0.51533  -0.51275  -0.49384
 Alpha  occ. eigenvalues --   -0.49210  -0.47567  -0.47530  -0.45422  -0.43644
 Alpha  occ. eigenvalues --   -0.37837  -0.36849  -0.35615  -0.34593
 Alpha virt. eigenvalues --    0.04499   0.06494   0.10807   0.13032   0.16028
 Alpha virt. eigenvalues --    0.18071   0.20979   0.22812   0.26887   0.27858
 Alpha virt. eigenvalues --    0.28716   0.29631   0.30556   0.32036   0.32304

 Mulliken charges:
               1
     1  C   -0.164434
     2  C   -0.197468
     3  C   -0.169515
     4  C    0.158836
     5  C   -0.171075
     6  C   -0.207113
     7  H    0.216589
     8  H    0.216986
     9  H    0.269811
    10  H    0.269883
    11  H    0.217242
    12  N    0.488164
    13  O   -0.464877
    14  O   -0.464685
    15  C   -0.170438
    16  C   -0.218341
    17  C   -0.171435
    18  C    0.157900
    19  C   -0.171259
    20  C   -0.218374
    21  H    0.227239
    22  H    0.224748
    23  H    0.274651
    24  H    0.275404
    25  H    0.224813
    26  N    0.487283
    27  O   -0.459576
    28  O   -0.460960
 Sum of Mulliken charges =  -0.00000

 Dipole moment (field-independent basis, Debye):
    X=              9.0845    Y=              1.5054    Z=              3.4419  Tot=              9.8306
 Quadrupole moment (field-independent basis, Debye-Ang):
   XX=            -98.9397   YY=            -96.7994   ZZ=           -104.6229
   XY=             -8.2914   XZ=            -12.9891   YZ=             -4.0769

 Normal termination of Gaussian 16 at Thu May  6 00:26:39 2021.
