 Gaussian 16, Revision A.03,
 Gaussian 16:  EM64L-G16RevA.03 25-Dec-2016

 -------------
 #p 6-31g* mp2
 -------------

 ------------------------------------------------------
 Input file generated by CHIRIPA (05-May-2021 14:55:24)
 ------------------------------------------------------
 Symbolic Z-matrix:
 Charge =  0 Multiplicity = 1

                         Standard orientation:
 ---------------------------------------------------------------------
 Center     Atomic      Atomic             Coordinates (Angstroms)
 Number     Number       Type             X           Y           Z
 ---------------------------------------------------------------------
      1          6           0        4.437111    1.262534    0.749601
      2          6           0        4.849818    0.025915    0.242684
      3          6           0        3.908820   -0.921313   -0.171838
      4          6           0        2.557212   -0.597246   -0.064945
      5          6           0        2.114641    0.626130    0.435828
      6          6           0        3.073244    1.558174    0.844388
      7          1           0        5.174939    1.992466    1.069297
      8          1           0        5.908345   -0.206413    0.167920
      9          1           0        4.200635   -1.886339   -0.568054
     10          1           0        1.052386    0.828961    0.498218
     11          1           0        2.749827    2.517745    1.237670
     12          7           0        1.551700   -1.591996   -0.500625
     13          8           0        0.366894   -1.282209   -0.396204
     14          8           0        1.967425   -2.662634   -0.938284
     15          6           0       -3.353835    1.162026   -0.452850
     16          6           0       -2.078835    1.919962   -0.081510
     17          6           0       -1.829351    3.132512   -0.978880
     18          1           0       -3.287909    0.837402   -1.500331
     19          1           0       -4.210544    1.847343   -0.391330
     20          1           0       -1.224968    1.233067   -0.142372
     21          1           0       -2.147723    2.242654    0.965266
     22          1           0       -2.662319    3.839750   -0.911206
     23          1           0       -1.734322    2.824427   -2.025138
     24          1           0       -0.912892    3.659639   -0.695858
     25          6           0       -3.616871   -0.052780    0.435287
     26          6           0       -4.891871   -0.810716    0.063947
     27          6           0       -5.141356   -2.023267    0.961318
     28          1           0       -2.760162   -0.738097    0.373767
     29          1           0       -3.682797    0.271844    1.482769
     30          1           0       -4.822984   -1.133408   -0.982829
     31          1           0       -5.745738   -0.123822    0.124809
     32          1           0       -5.236384   -1.715181    2.007575
     33          1           0       -4.308387   -2.730504    0.893644
     34          1           0       -6.057814   -2.550393    0.678295
 ---------------------------------------------------------------------

 SCF Done:  E(RHF) =  -669.536136093     A.U. after   15 cycles
 E2 =    -0.2092052865D+01 EUMP2 =    -0.67162818895807D+03

 The electronic state is 1-A.
 Alpha  occ. eigenvalues --  -20.60947 -20.60938 -15.85983 -11.31260 -11.27827
 Alpha  occ. eigenvalues --  -11.27797 -11.27561 -11.26829 -11.26813 -11.21324
 Alpha  occ. eigenvalues --  -11.21001 -11.20901 -11.20855 -11.20553 -11.20381
 Alpha  occ. eigenvalues --   -1.60008  -1.39565  -1.19430  -1.08843  -1.07856
 Alpha  occ. eigenvalues --   -1.04821  -1.03062  -0.95691  -0.95498  -0.86520
 Alpha  occ. eigenvalues --   -0.86226  -0.82526  -0.79163  -0.77727  -0.77489
 Alpha  occ. eigenvalues --   -0.72209  -0.71319  -0.70546  -0.65093  -0.64852
 Alpha  occ. eigenvalues --   -0.64438  -0.62191  -0.60431  -0.58914  -0.57119
 Alpha  occ. eigenvalues --   -0.55332  -0.54759  -0.53156  -0.52924  -0.52249
 Alpha  occ. eigenvalues --   -0.51931  -0.49440  -0.48968  -0.48948  -0.47452
 Alpha  occ. eigenvalues --   -0.46141  -0.45200  -0.45012  -0.44976  -0.43274
 Alpha  occ. eigenvalues --   -0.37411  -0.36419
 Alpha virt. eigenvalues --    0.04936   0.11223   0.16447   0.20668   0.23425
 Alpha virt. eigenvalues --    0.24377   0.26114   0.27306   0.27628   0.28405
 Alpha virt. eigenvalues --    0.29426   0.30731   0.31564   0.31991   0.32171

 Mulliken charges:
               1
     1  C   -0.170085
     2  C   -0.219130
     3  C   -0.169717
     4  C    0.154285
     5  C   -0.174227
     6  C   -0.222758
     7  H    0.225949
     8  H    0.223670
     9  H    0.275674
    10  H    0.289104
    11  H    0.224550
    12  N    0.491346
    13  O   -0.467997
    14  O   -0.458912
    15  C   -0.294594
    16  C   -0.316860
    17  C   -0.474385
    18  H    0.153035
    19  H    0.146063
    20  H    0.168390
    21  H    0.146690
    22  H    0.155583
    23  H    0.158380
    24  H    0.150699
    25  C   -0.306113
    26  C   -0.299117
    27  C   -0.476360
    28  H    0.170526
    29  H    0.144099
    30  H    0.153600
    31  H    0.147850
    32  H    0.152288
    33  H    0.160626
    34  H    0.157846
 Sum of Mulliken charges =  -0.00000

 Dipole moment (field-independent basis, Debye):
    X=              3.6693    Y=              3.3171    Z=              1.4677  Tot=              5.1596
 Quadrupole moment (field-independent basis, Debye-Ang):
   XX=            -74.4409   YY=            -98.2504   ZZ=            -95.4340
   XY=              4.0288   XZ=              2.8643   YZ=              0.7240

 Normal termination of Gaussian 16 at Thu May  6 14:20:29 2021.
