 Gaussian 16, Revision A.03,
 Gaussian 16:  EM64L-G16RevA.03 25-Dec-2016

 -------------
 #p 6-31g* mp2
 -------------

 ------------------------------------------------------
 Input file generated by CHIRIPA (05-May-2021 14:51:08)
 ------------------------------------------------------
 Symbolic Z-matrix:
 Charge =  0 Multiplicity = 1

                         Standard orientation:
 ---------------------------------------------------------------------
 Center     Atomic      Atomic             Coordinates (Angstroms)
 Number     Number       Type             X           Y           Z
 ---------------------------------------------------------------------
      1          6           0       -3.228039    0.246373    0.545993
      2          6           0       -2.149088   -0.485452    1.344920
      3          6           0       -1.030149    0.443792    1.816381
      4          1           0       -2.764640    0.734556   -0.322272
      5          1           0       -3.652772    1.048252    1.165659
      6          1           0       -1.727480   -1.286600    0.724417
      7          1           0       -2.615140   -0.972109    2.211278
      8          1           0       -1.431396    1.235855    2.456880
      9          1           0       -0.538693    0.919577    0.961571
     10          1           0       -0.269683   -0.100044    2.385410
     11          6           0       -4.353498   -0.669248    0.067758
     12          6           0       -5.432448    0.062577   -0.731169
     13          6           0       -6.551387   -0.866667   -1.202630
     14          1           0       -3.928765   -1.471127   -0.551909
     15          1           0       -4.816897   -1.157431    0.936023
     16          1           0       -4.966397    0.549234   -1.597527
     17          1           0       -5.854056    0.863725   -0.110666
     18          1           0       -7.042844   -1.342452   -0.347820
     19          1           0       -6.150141   -1.658730   -1.843129
     20          1           0       -7.311853   -0.322831   -1.771659
     21          6           0        3.714878    0.960482   -0.178013
     22          6           0        2.370675    1.522449   -0.642014
     23          6           0        2.233870    3.022138   -0.377420
     24          1           0        3.836340    1.157357    0.895966
     25          1           0        4.525385    1.499197   -0.688169
     26          1           0        1.562912    0.981898   -0.132171
     27          1           0        2.252314    1.324043   -1.714974
     28          1           0        3.019209    3.578591   -0.899152
     29          1           0        2.325891    3.234501    0.692642
     30          1           0        1.265573    3.403000   -0.716841
     31          6           0        3.866659   -0.537607   -0.435738
     32          6           0        5.210861   -1.099574    0.028263
     33          6           0        5.347667   -2.599264   -0.236330
     34          1           0        3.056152   -1.076322    0.074419
     35          1           0        3.745196   -0.734482   -1.509718
     36          1           0        5.329222   -0.901169    1.101222
     37          1           0        6.018625   -0.559022   -0.481580
     38          1           0        5.255646   -2.811626   -1.306394
     39          1           0        4.562327   -3.155715    0.285401
     40          1           0        6.315963   -2.980125    0.103089
 ---------------------------------------------------------------------

 SCF Done:  E(RHF) =  -470.733287410     A.U. after   11 cycles
 E2 =    -0.1582496314D+01 EUMP2 =    -0.47231578372415D+03

 The electronic state is 1-A.
 Alpha  occ. eigenvalues --  -11.21630 -11.21610 -11.21590 -11.21551 -11.21420
 Alpha  occ. eigenvalues --  -11.21384 -11.21360 -11.21324 -11.21101 -11.21077
 Alpha  occ. eigenvalues --  -11.21065 -11.21048  -1.08449  -1.08408  -1.03560
 Alpha  occ. eigenvalues --   -1.03502  -0.96010  -0.95954  -0.87025  -0.86972
 Alpha  occ. eigenvalues --   -0.79653  -0.79540  -0.78270  -0.78213  -0.65125
 Alpha  occ. eigenvalues --   -0.65003  -0.61082  -0.60797  -0.59370  -0.59332
 Alpha  occ. eigenvalues --   -0.57645  -0.57543  -0.55362  -0.55179  -0.52701
 Alpha  occ. eigenvalues --   -0.52655  -0.52426  -0.52385  -0.50043  -0.49834
 Alpha  occ. eigenvalues --   -0.47996  -0.47838  -0.46799  -0.46454  -0.45847
 Alpha  occ. eigenvalues --   -0.45755  -0.45736  -0.45553  -0.43805  -0.43764
 Alpha virt. eigenvalues --    0.21556   0.23090   0.23636   0.24738   0.26257
 Alpha virt. eigenvalues --    0.26790   0.27182   0.27453   0.27932   0.28948
 Alpha virt. eigenvalues --    0.30673   0.31538   0.31677   0.31856   0.32008

 Mulliken charges:
               1
     1  C   -0.298512
     2  C   -0.299453
     3  C   -0.482305
     4  H    0.149911
     5  H    0.149603
     6  H    0.152025
     7  H    0.152067
     8  H    0.155714
     9  H    0.161964
    10  H    0.159406
    11  C   -0.298354
    12  C   -0.299689
    13  C   -0.475723
    14  H    0.149638
    15  H    0.149662
    16  H    0.152001
    17  H    0.151945
    18  H    0.155182
    19  H    0.155224
    20  H    0.160292
    21  C   -0.297579
    22  C   -0.307451
    23  C   -0.475489
    24  H    0.149842
    25  H    0.149341
    26  H    0.159109
    27  H    0.151288
    28  H    0.155131
    29  H    0.155833
    30  H    0.159749
    31  C   -0.298446
    32  C   -0.299646
    33  C   -0.475697
    34  H    0.149646
    35  H    0.149423
    36  H    0.151977
    37  H    0.151916
    38  H    0.155100
    39  H    0.155126
    40  H    0.160232
 Sum of Mulliken charges =  -0.00000

 Dipole moment (field-independent basis, Debye):
    X=             -0.0183    Y=              0.0037    Z=              0.0096  Tot=              0.0210
 Quadrupole moment (field-independent basis, Debye-Ang):
   XX=            -85.2271   YY=            -86.2041   ZZ=            -83.3760
   XY=             -0.2280   XZ=             -1.1270   YZ=             -0.3529

 Normal termination of Gaussian 16 at Thu May  6 06:52:31 2021.
