 Gaussian 16, Revision A.03,
 Gaussian 16:  EM64L-G16RevA.03 25-Dec-2016

 -------------
 #p 6-31g* mp2
 -------------

 ------------------------------------------------------
 Input file generated by CHIRIPA (05-May-2021 14:51:11)
 ------------------------------------------------------
 Symbolic Z-matrix:
 Charge =  0 Multiplicity = 1

                         Standard orientation:
 ---------------------------------------------------------------------
 Center     Atomic      Atomic             Coordinates (Angstroms)
 Number     Number       Type             X           Y           Z
 ---------------------------------------------------------------------
      1          6           0       -3.541651    0.507416   -0.067012
      2          6           0       -5.040911    0.653107    0.195624
      3          6           0       -5.492592    2.112875    0.249066
      4          1           0       -2.985115    1.036396    0.718731
      5          1           0       -3.292557    1.004213   -1.014926
      6          1           0       -5.287338    0.154988    1.142074
      7          1           0       -5.593940    0.123557   -0.590730
      8          1           0       -5.275213    2.618291   -0.697455
      9          1           0       -4.966869    2.649901    1.045193
     10          1           0       -6.567618    2.193832    0.437812
     11          6           0       -3.074897   -0.946100   -0.123234
     12          6           0       -1.575637   -1.091791   -0.385870
     13          6           0       -1.123956   -2.551559   -0.439312
     14          1           0       -3.323991   -1.442897    0.824679
     15          1           0       -3.631433   -1.475080   -0.908977
     16          1           0       -1.022608   -0.562241    0.400483
     17          1           0       -1.329210   -0.593672   -1.332320
     18          1           0       -1.649679   -3.088585   -1.235440
     19          1           0       -1.341335   -3.056975    0.507209
     20          1           0       -0.048930   -2.632516   -0.628058
     21          6           0        3.428394   -0.506303   -0.110894
     22          6           0        2.566482   -1.506275    0.660565
     23          6           0        2.818175   -2.953758    0.237202
     24          1           0        3.231178   -0.614906   -1.186187
     25          1           0        4.488335   -0.754150    0.039085
     26          1           0        1.508518   -1.255779    0.510296
     27          1           0        2.765632   -1.395146    1.734160
     28          1           0        3.865190   -3.227205    0.403293
     29          1           0        2.600934   -3.087046   -0.827524
     30          1           0        2.191660   -3.651744    0.801255
     31          6           0        3.188153    0.944987    0.301140
     32          6           0        4.050066    1.944959   -0.470319
     33          6           0        3.798373    3.392442   -0.046955
     34          1           0        2.128213    1.192835    0.151161
     35          1           0        3.385370    1.053590    1.376433
     36          1           0        3.850915    1.833830   -1.543913
     37          1           0        5.108030    1.694463   -0.320050
     38          1           0        4.015615    3.525730    1.017771
     39          1           0        2.751358    3.665889   -0.213046
     40          1           0        4.424887    4.090427   -0.611009
 ---------------------------------------------------------------------

 SCF Done:  E(RHF) =  -470.732610736     A.U. after   11 cycles
 E2 =    -0.1583679942D+01 EUMP2 =    -0.47231629067858D+03

 The electronic state is 1-A.
 Alpha  occ. eigenvalues --  -11.21647 -11.21618 -11.21589 -11.21542 -11.21431
 Alpha  occ. eigenvalues --  -11.21387 -11.21371 -11.21327 -11.21084 -11.21068
 Alpha  occ. eigenvalues --  -11.21061 -11.21024  -1.08470  -1.08404  -1.03608
 Alpha  occ. eigenvalues --   -1.03471  -0.96059  -0.95914  -0.87040  -0.86959
 Alpha  occ. eigenvalues --   -0.79640  -0.79562  -0.78301  -0.78200  -0.65150
 Alpha  occ. eigenvalues --   -0.65023  -0.61157  -0.60891  -0.59495  -0.59148
 Alpha  occ. eigenvalues --   -0.57715  -0.57439  -0.55317  -0.55225  -0.52733
 Alpha  occ. eigenvalues --   -0.52578  -0.52393  -0.52387  -0.49935  -0.49917
 Alpha  occ. eigenvalues --   -0.47930  -0.47894  -0.46733  -0.46545  -0.45893
 Alpha  occ. eigenvalues --   -0.45769  -0.45742  -0.45549  -0.43797  -0.43762
 Alpha virt. eigenvalues --    0.21064   0.23097   0.23618   0.24747   0.25844
 Alpha virt. eigenvalues --    0.26717   0.26909   0.27429   0.28183   0.29121
 Alpha virt. eigenvalues --    0.30757   0.31148   0.31608   0.31839   0.32319

 Mulliken charges:
               1
     1  C   -0.298398
     2  C   -0.299670
     3  C   -0.475734
     4  H    0.149736
     5  H    0.149359
     6  H    0.152028
     7  H    0.151986
     8  H    0.155154
     9  H    0.155251
    10  H    0.160334
    11  C   -0.298076
    12  C   -0.302649
    13  C   -0.483260
    14  H    0.149801
    15  H    0.149899
    16  H    0.153279
    17  H    0.151450
    18  H    0.155235
    19  H    0.154962
    20  H    0.169851
    21  C   -0.297344
    22  C   -0.310003
    23  C   -0.478055
    24  H    0.149174
    25  H    0.149448
    26  H    0.162394
    27  H    0.151784
    28  H    0.156194
    29  H    0.154345
    30  H    0.161793
    31  C   -0.298810
    32  C   -0.299594
    33  C   -0.475744
    34  H    0.150025
    35  H    0.149448
    36  H    0.151922
    37  H    0.151906
    38  H    0.155084
    39  H    0.155294
    40  H    0.160200
 Sum of Mulliken charges =  -0.00000

 Dipole moment (field-independent basis, Debye):
    X=             -0.0116    Y=             -0.0113    Z=              0.0055  Tot=              0.0171
 Quadrupole moment (field-independent basis, Debye-Ang):
   XX=            -84.5384   YY=            -86.9822   ZZ=            -83.2901
   XY=              0.4751   XZ=              0.7457   YZ=             -0.3330

 Normal termination of Gaussian 16 at Thu May  6 07:01:14 2021.
