 Gaussian 16, Revision A.03,
 Gaussian 16:  EM64L-G16RevA.03 25-Dec-2016

 -------------
 #p 6-31g* mp2
 -------------

 ------------------------------------------------------
 Input file generated by CHIRIPA (05-May-2021 14:57:24)
 ------------------------------------------------------
 Symbolic Z-matrix:
 Charge =  0 Multiplicity = 1

                         Standard orientation:
 ---------------------------------------------------------------------
 Center     Atomic      Atomic             Coordinates (Angstroms)
 Number     Number       Type             X           Y           Z
 ---------------------------------------------------------------------
      1          6           0        1.426204   -1.679200   -0.089826
      2          6           0        1.790865   -0.841714   -1.149147
      3          6           0        2.979696   -0.107866   -1.097249
      4          6           0        3.783752   -0.235991    0.034285
      5          6           0        3.447800   -1.061989    1.105804
      6          6           0        2.254375   -1.786476    1.032290
      7          1           0        0.500907   -2.245635   -0.138537
      8          1           0        1.149645   -0.756438   -2.021849
      9          1           0        3.286154    0.547909   -1.903141
     10          1           0        4.107537   -1.126293    1.962560
     11          1           0        1.973706   -2.436101    1.856461
     12          7           0        5.044746    0.535946    0.100669
     13          8           0        5.735781    0.405588    1.108693
     14          8           0        5.318201    1.256731   -0.856582
     15          6           0       -5.638546   -1.078076    0.161567
     16          6           0       -5.552745    0.117107    0.883160
     17          6           0       -4.414696    0.923586    0.788362
     18          6           0       -3.376518    0.502555   -0.041220
     19          6           0       -3.432158   -0.682801   -0.772744
     20          6           0       -4.579846   -1.473518   -0.662630
     21          1           0       -6.526354   -1.698447    0.241157
     22          1           0       -6.373407    0.426713    1.524020
     23          1           0       -4.321935    1.853652    1.335894
     24          1           0       -2.597872   -0.965077   -1.403383
     25          1           0       -4.643721   -2.401210   -1.224192
     26          7           0       -2.166615    1.347995   -0.149686
     27          8           0       -1.265662    0.954814   -0.887474
     28          8           0       -2.142155    2.387822    0.505140
 ---------------------------------------------------------------------

 SCF Done:  E(RHF) =  -868.337982022     A.U. after   16 cycles
 E2 =    -0.2599754503D+01 EUMP2 =    -0.87093773652538D+03

 The electronic state is 1-A.
 Alpha  occ. eigenvalues --  -20.61524 -20.61489 -20.60034 -20.60021 -15.86553
 Alpha  occ. eigenvalues --  -15.85077 -11.31910 -11.30330 -11.28535 -11.28416
 Alpha  occ. eigenvalues --  -11.28165 -11.27495 -11.27425 -11.26911 -11.26801
 Alpha  occ. eigenvalues --  -11.26650 -11.25975 -11.25803  -1.60568  -1.59105
 Alpha  occ. eigenvalues --   -1.40129  -1.38662  -1.20068  -1.18480  -1.09455
 Alpha  occ. eigenvalues --   -1.07914  -1.05471  -1.03861  -0.96299  -0.94774
 Alpha  occ. eigenvalues --   -0.86866  -0.85281  -0.83137  -0.81605  -0.78201
 Alpha  occ. eigenvalues --   -0.76654  -0.72783  -0.71887  -0.71304  -0.71168
 Alpha  occ. eigenvalues --   -0.70421  -0.69653  -0.65722  -0.65465  -0.64148
 Alpha  occ. eigenvalues --   -0.63875  -0.62827  -0.61219  -0.55946  -0.54446
 Alpha  occ. eigenvalues --   -0.53795  -0.53559  -0.52187  -0.51971  -0.49546
 Alpha  occ. eigenvalues --   -0.49503  -0.48062  -0.48051  -0.45534  -0.44094
 Alpha  occ. eigenvalues --   -0.38030  -0.37076  -0.36452  -0.35410
 Alpha virt. eigenvalues --    0.04332   0.05869   0.10567   0.12216   0.15865
 Alpha virt. eigenvalues --    0.17392   0.20281   0.22032   0.26153   0.27127
 Alpha virt. eigenvalues --    0.28399   0.28900   0.30708   0.31599   0.32146

 Mulliken charges:
               1
     1  C   -0.168886
     2  C   -0.201647
     3  C   -0.170792
     4  C    0.158783
     5  C   -0.172212
     6  C   -0.218708
     7  H    0.216190
     8  H    0.226148
     9  H    0.275108
    10  H    0.272489
    11  H    0.218417
    12  N    0.488239
    13  O   -0.463268
    14  O   -0.460865
    15  C   -0.170630
    16  C   -0.218039
    17  C   -0.170493
    18  C    0.159560
    19  C   -0.172885
    20  C   -0.218092
    21  H    0.227775
    22  H    0.226111
    23  H    0.277965
    24  H    0.267887
    25  H    0.223734
    26  N    0.490748
    27  O   -0.468033
    28  O   -0.454605
 Sum of Mulliken charges =  -0.00000

 Dipole moment (field-independent basis, Debye):
    X=             -9.0512    Y=             -5.5058    Z=              0.1161  Tot=             10.5949
 Quadrupole moment (field-independent basis, Debye-Ang):
   XX=           -109.6681   YY=           -104.8271   ZZ=            -99.4694
   XY=             -3.0384   XZ=             -3.2961   YZ=              0.8386

 Normal termination of Gaussian 16 at Wed May  5 21:05:15 2021.
