 Gaussian 16, Revision A.03,
 Gaussian 16:  EM64L-G16RevA.03 25-Dec-2016

 -------------
 #p 6-31g* mp2
 -------------

 ------------------------------------------------------
 Input file generated by CHIRIPA (05-May-2021 14:57:26)
 ------------------------------------------------------
 Symbolic Z-matrix:
 Charge =  0 Multiplicity = 1

                         Standard orientation:
 ---------------------------------------------------------------------
 Center     Atomic      Atomic             Coordinates (Angstroms)
 Number     Number       Type             X           Y           Z
 ---------------------------------------------------------------------
      1          6           0        2.764403    2.146623    0.498054
      2          6           0        2.277535    0.953489    1.042031
      3          6           0        2.924919   -0.259181    0.787323
      4          6           0        4.061726   -0.242011   -0.019314
      5          6           0        4.571205    0.930197   -0.575775
      6          6           0        3.907668    2.131197   -0.307693
      7          1           0        2.255226    3.084121    0.701112
      8          1           0        1.389869    0.962460    1.668141
      9          1           0        2.569532   -1.197460    1.195673
     10          1           0        5.458274    0.889543   -1.196158
     11          1           0        4.288033    3.056270   -0.731492
     12          7           0        4.755632   -1.519632   -0.296041
     13          8           0        5.755305   -1.477733   -1.009859
     14          8           0        4.286704   -2.538740    0.206118
     15          6           0       -2.058851    1.692367    0.175648
     16          6           0       -3.234210    2.046923   -0.494683
     17          6           0       -4.287060    1.134710   -0.612663
     18          6           0       -4.129936   -0.129129   -0.045817
     19          6           0       -2.971326   -0.512171    0.628120
     20          6           0       -1.931386    0.416202    0.733926
     21          1           0       -1.245986    2.407273    0.262569
     22          1           0       -3.335987    3.037305   -0.929230
     23          1           0       -5.207950    1.382909   -1.126255
     24          1           0       -2.899229   -1.506875    1.050949
     25          1           0       -1.019736    0.138093    1.255076
     26          7           0       -5.237708   -1.103401   -0.164273
     27          8           0       -5.074494   -2.210561    0.343857
     28          8           0       -6.248219   -0.741430   -0.763007
 ---------------------------------------------------------------------

 SCF Done:  E(RHF) =  -868.336148818     A.U. after   16 cycles
 E2 =    -0.2600030111D+01 EUMP2 =    -0.87093617892862D+03

 The electronic state is 1-A.
 Alpha  occ. eigenvalues --  -20.61347 -20.61341 -20.61119 -20.61114 -15.86410
 Alpha  occ. eigenvalues --  -15.86179 -11.31963 -11.31683 -11.28618 -11.28532
 Alpha  occ. eigenvalues --  -11.28420 -11.28293 -11.28261 -11.28146 -11.27763
 Alpha  occ. eigenvalues --  -11.27582 -11.27431 -11.27325  -1.60418  -1.60192
 Alpha  occ. eigenvalues --   -1.39967  -1.39741  -1.20175  -1.19889  -1.09547
 Alpha  occ. eigenvalues --   -1.09277  -1.05620  -1.05318  -0.96341  -0.96080
 Alpha  occ. eigenvalues --   -0.87028  -0.86719  -0.83181  -0.82909  -0.78192
 Alpha  occ. eigenvalues --   -0.77910  -0.72625  -0.72396  -0.71744  -0.71516
 Alpha  occ. eigenvalues --   -0.71312  -0.71037  -0.65840  -0.65802  -0.65548
 Alpha  occ. eigenvalues --   -0.65257  -0.63010  -0.62608  -0.56158  -0.55873
 Alpha  occ. eigenvalues --   -0.53927  -0.53792  -0.53628  -0.53362  -0.49400
 Alpha  occ. eigenvalues --   -0.49366  -0.49167  -0.49139  -0.45330  -0.45115
 Alpha  occ. eigenvalues --   -0.38184  -0.37895  -0.37214  -0.36903
 Alpha virt. eigenvalues --    0.04366   0.04633   0.10329   0.10761   0.15734
 Alpha virt. eigenvalues --    0.16082   0.17718   0.22175   0.24271   0.25665
 Alpha virt. eigenvalues --    0.27994   0.29077   0.29760   0.31287   0.32200

 Mulliken charges:
               1
     1  C   -0.171941
     2  C   -0.221727
     3  C   -0.169455
     4  C    0.159415
     5  C   -0.169073
     6  C   -0.217868
     7  H    0.222946
     8  H    0.216721
     9  H    0.276238
    10  H    0.278637
    11  H    0.225907
    12  N    0.488060
    13  O   -0.457909
    14  O   -0.458527
    15  C   -0.169176
    16  C   -0.218101
    17  C   -0.169918
    18  C    0.159377
    19  C   -0.169915
    20  C   -0.218013
    21  H    0.217664
    22  H    0.224139
    23  H    0.277506
    24  H    0.278088
    25  H    0.216521
    26  N    0.487927
    27  O   -0.458494
    28  O   -0.459027
 Sum of Mulliken charges =  -0.00000

 Dipole moment (field-independent basis, Debye):
    X=              1.5367    Y=              7.8366    Z=              1.2416  Tot=              8.0818
 Quadrupole moment (field-independent basis, Debye-Ang):
   XX=           -152.1315   YY=           -105.1738   ZZ=           -103.3864
   XY=              4.0895   XZ=              1.3992   YZ=             -4.3062

 Normal termination of Gaussian 16 at Thu May  6 06:45:28 2021.
