 Gaussian 16, Revision A.03,
 Gaussian 16:  EM64L-G16RevA.03 25-Dec-2016

 -------------
 #p 6-31g* mp2
 -------------

 ------------------------------------------------------
 Input file generated by CHIRIPA (05-May-2021 14:53:13)
 ------------------------------------------------------
 Symbolic Z-matrix:
 Charge =  0 Multiplicity = 1

                         Standard orientation:
 ---------------------------------------------------------------------
 Center     Atomic      Atomic             Coordinates (Angstroms)
 Number     Number       Type             X           Y           Z
 ---------------------------------------------------------------------
      1          6           0       -2.477275    0.978734   -0.534707
      2          6           0       -1.334294    0.911731   -1.548162
      3          6           0       -0.562985    2.227404   -1.657158
      4          1           0       -3.165287    1.786180   -0.820389
      5          1           0       -2.070008    1.248699    0.449493
      6          1           0       -1.743415    0.640619   -2.529862
      7          1           0       -0.649025    0.104225   -1.260140
      8          1           0       -0.127874    2.500119   -0.690252
      9          1           0       -1.228482    3.039560   -1.967188
     10          1           0        0.249485    2.157180   -2.387103
     11          6           0       -3.257747   -0.328985   -0.414452
     12          6           0       -4.400728   -0.261982    0.599003
     13          6           0       -5.172037   -1.577655    0.707999
     14          1           0       -3.665014   -0.598950   -1.398652
     15          1           0       -2.569735   -1.136431   -0.128770
     16          1           0       -5.085997    0.545524    0.310981
     17          1           0       -3.991608    0.009130    1.580703
     18          1           0       -4.506541   -2.389810    1.018029
     19          1           0       -5.607148   -1.850369   -0.258907
     20          1           0       -5.984507   -1.507430    1.437944
     21          6           0        1.687092    1.341722    2.245393
     22          6           0        1.562605   -0.037740    2.440609
     23          6           0        1.866343   -0.931082    1.408995
     24          6           0        2.293720   -0.408058    0.189533
     25          6           0        2.427758    0.961083   -0.035804
     26          6           0        2.118511    1.835859    1.009988
     27          1           0        1.449000    2.028481    3.052283
     28          1           0        1.227787   -0.424333    3.398987
     29          1           0        1.778800   -2.003648    1.532913
     30          1           0        2.763915    1.316535   -1.002277
     31          1           0        2.216114    2.906681    0.855527
     32          7           0        2.618190   -1.343973   -0.910096
     33          8           0        2.992688   -0.857926   -1.975059
     34          8           0        2.491867   -2.545867   -0.686199
 ---------------------------------------------------------------------

 SCF Done:  E(RHF) =  -669.534718984     A.U. after   15 cycles
 E2 =    -0.2093939769D+01 EUMP2 =    -0.67162865875285D+03

 The electronic state is 1-A.
 Alpha  occ. eigenvalues --  -20.60839 -20.60834 -15.85895 -11.31276 -11.27849
 Alpha  occ. eigenvalues --  -11.27836 -11.27600 -11.26862 -11.26837 -11.21713
 Alpha  occ. eigenvalues --  -11.21596 -11.21466 -11.21397 -11.21154 -11.21148
 Alpha  occ. eigenvalues --   -1.59915  -1.39467  -1.19464  -1.08852  -1.08489
 Alpha  occ. eigenvalues --   -1.04871  -1.03595  -0.96071  -0.95674  -0.87091
 Alpha  occ. eigenvalues --   -0.86259  -0.82509  -0.79667  -0.78299  -0.77549
 Alpha  occ. eigenvalues --   -0.72109  -0.71245  -0.70558  -0.65145  -0.65097
 Alpha  occ. eigenvalues --   -0.64861  -0.62218  -0.61031  -0.59425  -0.57667
 Alpha  occ. eigenvalues --   -0.55468  -0.55345  -0.53126  -0.52979  -0.52730
 Alpha  occ. eigenvalues --   -0.52450  -0.50010  -0.48871  -0.48862  -0.47973
 Alpha  occ. eigenvalues --   -0.46715  -0.45837  -0.45778  -0.44863  -0.43859
 Alpha  occ. eigenvalues --   -0.37422  -0.36369
 Alpha virt. eigenvalues --    0.04979   0.11085   0.16412   0.21049   0.22762
 Alpha virt. eigenvalues --    0.24107   0.26444   0.26595   0.27164   0.27933
 Alpha virt. eigenvalues --    0.28865   0.29886   0.31147   0.31507   0.31974

 Mulliken charges:
               1
     1  C   -0.298096
     2  C   -0.298330
     3  C   -0.481346
     4  H    0.148759
     5  H    0.146405
     6  H    0.155292
     7  H    0.152686
     8  H    0.153013
     9  H    0.153811
    10  H    0.160599
    11  C   -0.298575
    12  C   -0.299238
    13  C   -0.475668
    14  H    0.151612
    15  H    0.150748
    16  H    0.151828
    17  H    0.148670
    18  H    0.155299
    19  H    0.156725
    20  H    0.159522
    21  C   -0.171859
    22  C   -0.218589
    23  C   -0.172295
    24  C    0.158589
    25  C   -0.165146
    26  C   -0.219972
    27  H    0.226233
    28  H    0.223791
    29  H    0.275926
    30  H    0.276936
    31  H    0.224999
    32  N    0.488070
    33  O   -0.460082
    34  O   -0.460315
 Sum of Mulliken charges =  -0.00000

 Dipole moment (field-independent basis, Debye):
    X=             -1.0776    Y=              3.2474    Z=              3.8560  Tot=              5.1551
 Quadrupole moment (field-independent basis, Debye-Ang):
   XX=           -100.5153   YY=            -95.5798   ZZ=            -91.4131
   XY=              8.5624   XZ=              8.6904   YZ=             -3.4964

 Normal termination of Gaussian 16 at Thu May  6 04:12:02 2021.
