 Gaussian 16, Revision A.03,
 Gaussian 16:  EM64L-G16RevA.03 25-Dec-2016

 -------------
 #p 6-31g* mp2
 -------------

 ------------------------------------------------------
 Input file generated by CHIRIPA (05-May-2021 14:57:25)
 ------------------------------------------------------
 Symbolic Z-matrix:
 Charge =  0 Multiplicity = 1

                         Standard orientation:
 ---------------------------------------------------------------------
 Center     Atomic      Atomic             Coordinates (Angstroms)
 Number     Number       Type             X           Y           Z
 ---------------------------------------------------------------------
      1          6           0        3.827560    2.544377    0.321750
      2          6           0        5.070575    1.909355    0.412193
      3          6           0        5.180798    0.531412    0.203215
      4          6           0        4.022306   -0.184008   -0.095716
      5          6           0        2.769643    0.419900   -0.192779
      6          6           0        2.683078    1.798937    0.020084
      7          1           0        3.751125    3.615222    0.485598
      8          1           0        5.961080    2.485751    0.646320
      9          1           0        6.130556    0.014404    0.267099
     10          1           0        1.899698   -0.181267   -0.427753
     11          1           0        1.716421    2.289441   -0.050798
     12          7           0        4.126471   -1.643354   -0.319009
     13          8           0        3.090849   -2.251193   -0.581030
     14          8           0        5.241765   -2.151716   -0.227776
     15          6           0       -1.530056   -0.422424    0.384490
     16          6           0       -2.442808   -1.395167    0.805413
     17          6           0       -3.816455   -1.203064    0.630082
     18          6           0       -4.244419   -0.021135    0.027440
     19          6           0       -3.359838    0.966749   -0.402549
     20          6           0       -1.990672    0.753357   -0.217087
     21          1           0       -0.464715   -0.579923    0.524626
     22          1           0       -2.087951   -2.309262    1.272908
     23          1           0       -4.544973   -1.939615    0.946582
     24          1           0       -3.743747    1.867760   -0.865378
     25          1           0       -1.284111    1.510532   -0.544963
     26          7           0       -5.696266    0.193505   -0.163537
     27          8           0       -6.047833    1.243401   -0.697163
     28          8           0       -6.455166   -0.692221    0.224016
 ---------------------------------------------------------------------

 SCF Done:  E(RHF) =  -868.336933178     A.U. after   16 cycles
 E2 =    -0.2599818628D+01 EUMP2 =    -0.87093675180678D+03

 The electronic state is 1-A.
 Alpha  occ. eigenvalues --  -20.61608 -20.61579 -20.60949 -20.60939 -15.86653
 Alpha  occ. eigenvalues --  -15.86004 -11.32095 -11.31435 -11.28784 -11.28595
 Alpha  occ. eigenvalues --  -11.28366 -11.28062 -11.27969 -11.27830 -11.27774
 Alpha  occ. eigenvalues --  -11.27607 -11.27180 -11.26976  -1.60668  -1.60021
 Alpha  occ. eigenvalues --   -1.40222  -1.39572  -1.20262  -1.19624  -1.09627
 Alpha  occ. eigenvalues --   -1.09019  -1.05695  -1.05040  -0.96460  -0.95839
 Alpha  occ. eigenvalues --   -0.87079  -0.86446  -0.83304  -0.82670  -0.78359
 Alpha  occ. eigenvalues --   -0.77694  -0.72870  -0.72222  -0.71991  -0.71399
 Alpha  occ. eigenvalues --   -0.71344  -0.70736  -0.65918  -0.65702  -0.65288
 Alpha  occ. eigenvalues --   -0.65074  -0.63060  -0.62383  -0.56163  -0.55578
 Alpha  occ. eigenvalues --   -0.53984  -0.53778  -0.53355  -0.53142  -0.49637
 Alpha  occ. eigenvalues --   -0.49617  -0.48987  -0.48971  -0.45612  -0.44963
 Alpha  occ. eigenvalues --   -0.38205  -0.37617  -0.37291  -0.36632
 Alpha virt. eigenvalues --    0.04189   0.04843   0.10341   0.11008   0.15685
 Alpha virt. eigenvalues --    0.16264   0.17270   0.22210   0.24472   0.24996
 Alpha virt. eigenvalues --    0.27773   0.28944   0.30551   0.31309   0.33268

 Mulliken charges:
               1
     1  C   -0.170122
     2  C   -0.217700
     3  C   -0.169481
     4  C    0.160960
     5  C   -0.178490
     6  C   -0.218733
     7  H    0.228871
     8  H    0.227084
     9  H    0.278451
    10  H    0.272377
    11  H    0.218925
    12  N    0.487851
    13  O   -0.463244
    14  O   -0.456258
    15  C   -0.173472
    16  C   -0.218325
    17  C   -0.170057
    18  C    0.158898
    19  C   -0.170249
    20  C   -0.219718
    21  H    0.227136
    22  H    0.229428
    23  H    0.277504
    24  H    0.275548
    25  H    0.214195
    26  N    0.488015
    27  O   -0.460560
    28  O   -0.458834
 Sum of Mulliken charges =  -0.00000

 Dipole moment (field-independent basis, Debye):
    X=              4.9201    Y=              4.3202    Z=              1.5346  Tot=              6.7251
 Quadrupole moment (field-independent basis, Debye-Ang):
   XX=           -144.5971   YY=           -103.1149   ZZ=           -105.4813
   XY=             25.8651   XZ=              0.9746   YZ=             -2.8358

 Normal termination of Gaussian 16 at Thu May  6 13:04:19 2021.
