 Gaussian 16, Revision A.03,
 Gaussian 16:  EM64L-G16RevA.03 25-Dec-2016

 -------------
 #p 6-31g* mp2
 -------------

 ------------------------------------------------------
 Input file generated by CHIRIPA (05-May-2021 14:53:17)
 ------------------------------------------------------
 Symbolic Z-matrix:
 Charge =  0 Multiplicity = 1

                         Standard orientation:
 ---------------------------------------------------------------------
 Center     Atomic      Atomic             Coordinates (Angstroms)
 Number     Number       Type             X           Y           Z
 ---------------------------------------------------------------------
      1          6           0       -3.999144   -0.759923    0.148168
      2          6           0       -2.537183   -0.326371    0.035519
      3          6           0       -1.558972   -1.455557    0.360843
      4          1           0       -4.188170   -1.128986    1.165521
      5          1           0       -4.176516   -1.606544   -0.529450
      6          1           0       -2.362965    0.520072    0.712127
      7          1           0       -2.351665    0.041882   -0.981629
      8          1           0       -1.703917   -2.299346   -0.321514
      9          1           0       -1.715282   -1.818439    1.381864
     10          1           0       -0.519620   -1.123766    0.274104
     11          6           0       -4.989122    0.358038   -0.174066
     12          6           0       -6.451082   -0.075513   -0.061417
     13          6           0       -7.429294    1.053672   -0.386741
     14          1           0       -4.811750    1.204660    0.503552
     15          1           0       -4.800096    0.727101   -1.191419
     16          1           0       -6.636601   -0.443766    0.955731
     17          1           0       -6.625301   -0.921957   -0.738025
     18          1           0       -7.272984    1.416554   -1.407762
     19          1           0       -7.284349    1.897461    0.295616
     20          1           0       -8.468646    0.721881   -0.300002
     21          6           0        3.405394    2.673429    0.159373
     22          6           0        4.533402    2.051266   -0.385631
     23          6           0        4.602828    0.657696   -0.473322
     24          6           0        3.521255   -0.086295   -0.004314
     25          6           0        2.383657    0.504197    0.543847
     26          6           0        2.336005    1.899274    0.621558
     27          1           0        3.359919    3.756573    0.223617
     28          1           0        5.365394    2.649958   -0.745358
     29          1           0        5.463976    0.150110   -0.890693
     30          1           0        1.569992   -0.119235    0.894134
     31          1           0        1.458709    2.379735    1.045291
     32          7           0        3.583227   -1.562402   -0.091865
     33          8           0        2.617100   -2.195379    0.328345
     34          8           0        4.596754   -2.058448   -0.579039
 ---------------------------------------------------------------------

 SCF Done:  E(RHF) =  -669.535490390     A.U. after   15 cycles
 E2 =    -0.2091072242D+01 EUMP2 =    -0.67162656263144D+03

 The electronic state is 1-A.
 Alpha  occ. eigenvalues --  -20.60776 -20.60770 -15.85822 -11.31195 -11.27763
 Alpha  occ. eigenvalues --  -11.27751 -11.27508 -11.26786 -11.26775 -11.21731
 Alpha  occ. eigenvalues --  -11.21676 -11.21499 -11.21431 -11.21157 -11.21010
 Alpha  occ. eigenvalues --   -1.59847  -1.39400  -1.19369  -1.08763  -1.08517
 Alpha  occ. eigenvalues --   -1.04774  -1.03602  -0.96032  -0.95595  -0.87040
 Alpha  occ. eigenvalues --   -0.86171  -0.82426  -0.79661  -0.78335  -0.77476
 Alpha  occ. eigenvalues --   -0.72041  -0.71167  -0.70486  -0.65147  -0.65021
 Alpha  occ. eigenvalues --   -0.64788  -0.62161  -0.60994  -0.59399  -0.57658
 Alpha  occ. eigenvalues --   -0.55309  -0.55271  -0.53108  -0.53006  -0.52603
 Alpha  occ. eigenvalues --   -0.52400  -0.49955  -0.48801  -0.48797  -0.47976
 Alpha  occ. eigenvalues --   -0.46702  -0.45870  -0.45803  -0.44804  -0.43843
 Alpha  occ. eigenvalues --   -0.37350  -0.36373
 Alpha virt. eigenvalues --    0.05033   0.11235   0.16553   0.20642   0.22832
 Alpha virt. eigenvalues --    0.23930   0.26342   0.26571   0.27378   0.27820
 Alpha virt. eigenvalues --    0.29052   0.30241   0.31416   0.31546   0.31899

 Mulliken charges:
               1
     1  C   -0.298323
     2  C   -0.300331
     3  C   -0.479888
     4  H    0.150299
     5  H    0.151845
     6  H    0.144507
     7  H    0.151909
     8  H    0.162173
     9  H    0.156430
    10  H    0.161682
    11  C   -0.298007
    12  C   -0.299778
    13  C   -0.475697
    14  H    0.147573
    15  H    0.149436
    16  H    0.152285
    17  H    0.152978
    18  H    0.155085
    19  H    0.154383
    20  H    0.160787
    21  C   -0.170684
    22  C   -0.218615
    23  C   -0.170496
    24  C    0.157103
    25  C   -0.176790
    26  C   -0.220761
    27  H    0.225658
    28  H    0.223490
    29  H    0.275640
    30  H    0.285976
    31  H    0.223980
    32  N    0.487593
    33  O   -0.461291
    34  O   -0.460151
 Sum of Mulliken charges =  -0.00000

 Dipole moment (field-independent basis, Debye):
    X=             -0.2288    Y=              5.1165    Z=              0.2795  Tot=              5.1292
 Quadrupole moment (field-independent basis, Debye-Ang):
   XX=            -92.8960   YY=            -96.4850   ZZ=            -93.7366
   XY=             19.7346   XZ=             -1.2442   YZ=              0.2476

 Normal termination of Gaussian 16 at Thu May  6 13:57:11 2021.
