 Gaussian 16, Revision A.03,
 Gaussian 16:  EM64L-G16RevA.03 25-Dec-2016

 -------------
 #p 6-31g* mp2
 -------------

 ------------------------------------------------------
 Input file generated by CHIRIPA (05-May-2021 14:55:25)
 ------------------------------------------------------
 Symbolic Z-matrix:
 Charge =  0 Multiplicity = 1

                         Standard orientation:
 ---------------------------------------------------------------------
 Center     Atomic      Atomic             Coordinates (Angstroms)
 Number     Number       Type             X           Y           Z
 ---------------------------------------------------------------------
      1          6           0       -5.274658   -1.668537    0.192180
      2          6           0       -3.987442   -2.086281    0.545855
      3          6           0       -2.898205   -1.220031    0.412737
      4          6           0       -3.133400    0.062777   -0.079580
      5          6           0       -4.404014    0.508398   -0.440486
      6          6           0       -5.478476   -0.374812   -0.298996
      7          1           0       -6.115065   -2.348048    0.298841
      8          1           0       -3.826183   -3.090435    0.927581
      9          1           0       -1.891210   -1.517482    0.679013
     10          1           0       -4.533456    1.515394   -0.818138
     11          1           0       -6.477047   -0.047666   -0.574454
     12          7           0       -1.988094    0.988815   -0.224938
     13          8           0       -2.221735    2.113900   -0.661094
     14          8           0       -0.878449    0.572023    0.100039
     15          6           0        4.120040    0.864533    0.006974
     16          6           0        2.793676    1.301652    0.629605
     17          6           0        2.543172    2.803789    0.493132
     18          1           0        4.941025    1.419231    0.481568
     19          1           0        4.127732    1.143416   -1.055833
     20          1           0        2.787928    1.020789    1.690594
     21          1           0        1.975769    0.745710    0.153607
     22          1           0        2.522174    3.096584   -0.561588
     23          1           0        3.338948    3.373226    0.984133
     24          1           0        1.589643    3.094465    0.944962
     25          6           0        4.384690   -0.634530    0.135423
     26          6           0        5.711055   -1.071649   -0.487209
     27          6           0        5.961558   -2.573786   -0.350735
     28          1           0        4.376999   -0.913414    1.198230
     29          1           0        3.563706   -1.189228   -0.339171
     30          1           0        6.528961   -0.515707   -0.011210
     31          1           0        5.716803   -0.790787   -1.548198
     32          1           0        5.165783   -3.143224   -0.841737
     33          1           0        5.982556   -2.866582    0.703984
     34          1           0        6.915087   -2.864462   -0.802565
 ---------------------------------------------------------------------

 SCF Done:  E(RHF) =  -669.536109230     A.U. after   15 cycles
 E2 =    -0.2090928033D+01 EUMP2 =    -0.67162703726215D+03

 The electronic state is 1-A.
 Alpha  occ. eigenvalues --  -20.60962 -20.60956 -15.85998 -11.31310 -11.27872
 Alpha  occ. eigenvalues --  -11.27869 -11.27608 -11.26878 -11.26868 -11.20954
 Alpha  occ. eigenvalues --  -11.20587 -11.20540 -11.20256 -11.19971 -11.19495
 Alpha  occ. eigenvalues --   -1.60023  -1.39579  -1.19478  -1.08883  -1.07421
 Alpha  occ. eigenvalues --   -1.04873  -1.02444  -0.95727  -0.94935  -0.86273
 Alpha  occ. eigenvalues --   -0.85966  -0.82562  -0.78574  -0.77618  -0.77147
 Alpha  occ. eigenvalues --   -0.72219  -0.71339  -0.70586  -0.65134  -0.64876
 Alpha  occ. eigenvalues --   -0.64059  -0.62220  -0.59840  -0.58359  -0.56497
 Alpha  occ. eigenvalues --   -0.55376  -0.54249  -0.53205  -0.52964  -0.51621
 Alpha  occ. eigenvalues --   -0.51364  -0.48992  -0.48971  -0.48905  -0.46867
 Alpha  occ. eigenvalues --   -0.45620  -0.44999  -0.44714  -0.44532  -0.42712
 Alpha  occ. eigenvalues --   -0.37457  -0.36474
 Alpha virt. eigenvalues --    0.04914   0.11181   0.16413   0.21308   0.23783
 Alpha virt. eigenvalues --    0.25419   0.27237   0.27584   0.28109   0.28605
 Alpha virt. eigenvalues --    0.29016   0.30879   0.32286   0.32452   0.32759

 Mulliken charges:
               1
     1  C   -0.170577
     2  C   -0.218554
     3  C   -0.170846
     4  C    0.157346
     5  C   -0.170467
     6  C   -0.218613
     7  H    0.226053
     8  H    0.223933
     9  H    0.275862
    10  H    0.275909
    11  H    0.223861
    12  N    0.493413
    13  O   -0.458959
    14  O   -0.464809
    15  C   -0.297788
    16  C   -0.305955
    17  C   -0.473090
    18  H    0.144968
    19  H    0.147765
    20  H    0.144433
    21  H    0.175928
    22  H    0.153776
    23  H    0.145292
    24  H    0.168553
    25  C   -0.297071
    26  C   -0.298718
    27  C   -0.474965
    28  H    0.146852
    29  H    0.149191
    30  H    0.150716
    31  H    0.151202
    32  H    0.153565
    33  H    0.153669
    34  H    0.158122
 Sum of Mulliken charges =  -0.00000

 Dipole moment (field-independent basis, Debye):
    X=             -4.4320    Y=             -3.2468    Z=              0.4719  Tot=              5.5142
 Quadrupole moment (field-independent basis, Debye-Ang):
   XX=            -69.3012   YY=            -94.4142   ZZ=            -94.3782
   XY=              8.0514   XZ=              0.2198   YZ=             -1.1475

 Normal termination of Gaussian 16 at Thu May  6 12:44:54 2021.
