 Gaussian 16, Revision A.03,
 Gaussian 16:  EM64L-G16RevA.03 25-Dec-2016

 -------------
 #p 6-31g* mp2
 -------------

 ------------------------------------------------------
 Input file generated by CHIRIPA (05-May-2021 14:57:25)
 ------------------------------------------------------
 Symbolic Z-matrix:
 Charge =  0 Multiplicity = 1

                         Standard orientation:
 ---------------------------------------------------------------------
 Center     Atomic      Atomic             Coordinates (Angstroms)
 Number     Number       Type             X           Y           Z
 ---------------------------------------------------------------------
      1          6           0        2.411018    2.084961   -0.052464
      2          6           0        2.149762    1.047590    0.848717
      3          6           0        3.008268   -0.052581    0.933203
      4          6           0        4.123846   -0.082970    0.097827
      5          6           0        4.411175    0.934957   -0.810224
      6          6           0        3.538903    2.025438   -0.877603
      7          1           0        1.738763    2.935836   -0.111451
      8          1           0        1.274587    1.091141    1.490758
      9          1           0        2.829865   -0.869471    1.621884
     10          1           0        5.291547    0.863364   -1.437310
     11          1           0        3.744298    2.829629   -1.578414
     12          7           0        5.039995   -1.242543    0.178214
     13          8           0        6.016104   -1.245525   -0.568672
     14          8           0        4.764616   -2.126477    0.986585
     15          6           0       -1.498642    0.346089   -0.279188
     16          6           0       -2.326400    1.253462    0.390149
     17          6           0       -3.698725    1.012019    0.504077
     18          6           0       -4.212051   -0.152055   -0.065764
     19          6           0       -3.413292   -1.075248   -0.738807
     20          6           0       -2.043768   -0.813326   -0.840541
     21          1           0       -0.433675    0.541602   -0.362954
     22          1           0       -1.905805    2.154703    0.827078
     23          1           0       -4.362452    1.697573    1.016814
     24          1           0       -3.861601   -1.964957   -1.164077
     25          1           0       -1.403320   -1.519773   -1.360927
     26          7           0       -5.663387   -0.418499    0.048392
     27          8           0       -6.091111   -1.451390   -0.462321
     28          8           0       -6.345737    0.410596    0.646417
 ---------------------------------------------------------------------

 SCF Done:  E(RHF) =  -868.336858075     A.U. after   16 cycles
 E2 =    -0.2600757851D+01 EUMP2 =    -0.87093761592600D+03

 The electronic state is 1-A.
 Alpha  occ. eigenvalues --  -20.61566 -20.61559 -20.61130 -20.61121 -15.86626
 Alpha  occ. eigenvalues --  -15.86187 -11.32203 -11.31651 -11.28831 -11.28767
 Alpha  occ. eigenvalues --  -11.28646 -11.28274 -11.28203 -11.27958 -11.27925
 Alpha  occ. eigenvalues --  -11.27807 -11.27369 -11.27216  -1.60637  -1.60202
 Alpha  occ. eigenvalues --   -1.40184  -1.39753  -1.20420  -1.19842  -1.09789
 Alpha  occ. eigenvalues --   -1.09225  -1.05845  -1.05263  -0.96573  -0.96040
 Alpha  occ. eigenvalues --   -0.87245  -0.86664  -0.83390  -0.82869  -0.78393
 Alpha  occ. eigenvalues --   -0.77895  -0.72840  -0.72402  -0.71966  -0.71532
 Alpha  occ. eigenvalues --   -0.71527  -0.70976  -0.66067  -0.65864  -0.65491
 Alpha  occ. eigenvalues --   -0.65268  -0.63161  -0.62607  -0.56368  -0.55867
 Alpha  occ. eigenvalues --   -0.54085  -0.53907  -0.53572  -0.53360  -0.49615
 Alpha  occ. eigenvalues --   -0.49580  -0.49171  -0.49150  -0.45541  -0.45136
 Alpha  occ. eigenvalues --   -0.38429  -0.37861  -0.37423  -0.36870
 Alpha virt. eigenvalues --    0.04124   0.04645   0.10001   0.10743   0.15504
 Alpha virt. eigenvalues --    0.16129   0.19099   0.21822   0.25400   0.26820
 Alpha virt. eigenvalues --    0.27528   0.29208   0.29909   0.30813   0.31358

 Mulliken charges:
               1
     1  C   -0.174207
     2  C   -0.228877
     3  C   -0.171675
     4  C    0.158834
     5  C   -0.169283
     6  C   -0.217744
     7  H    0.225564
     8  H    0.224746
     9  H    0.279415
    10  H    0.279331
    11  H    0.227500
    12  N    0.487869
    13  O   -0.457401
    14  O   -0.458031
    15  C   -0.179616
    16  C   -0.222619
    17  C   -0.169650
    18  C    0.158572
    19  C   -0.169766
    20  C   -0.220754
    21  H    0.230645
    22  H    0.216155
    23  H    0.276341
    24  H    0.277803
    25  H    0.227309
    26  N    0.487980
    27  O   -0.458563
    28  O   -0.459879
 Sum of Mulliken charges =  -0.00000

 Dipole moment (field-independent basis, Debye):
    X=              2.1289    Y=              4.8943    Z=             -0.7644  Tot=              5.3917
 Quadrupole moment (field-independent basis, Debye-Ang):
   XX=           -172.0714   YY=           -101.9688   ZZ=           -101.9198
   XY=             13.4762   XZ=             -2.8702   YZ=              1.1885

 Normal termination of Gaussian 16 at Fri May  7 09:35:53 2021.
