 Gaussian 16, Revision A.03,
 Gaussian 16:  EM64L-G16RevA.03 25-Dec-2016

 -------------
 #p 6-31g* mp2
 -------------

 ------------------------------------------------------
 Input file generated by CHIRIPA (05-May-2021 14:55:22)
 ------------------------------------------------------
 Symbolic Z-matrix:
 Charge =  0 Multiplicity = 1

                         Standard orientation:
 ---------------------------------------------------------------------
 Center     Atomic      Atomic             Coordinates (Angstroms)
 Number     Number       Type             X           Y           Z
 ---------------------------------------------------------------------
      1          6           0        0.760312   -1.399481    1.002457
      2          6           0        1.339702   -1.764568   -0.217190
      3          6           0        2.453532   -1.076923   -0.708184
      4          6           0        2.964439   -0.024472    0.049848
      5          6           0        2.409526    0.363084    1.268520
      6          6           0        1.296129   -0.338691    1.740119
      7          1           0       -0.104770   -1.939149    1.376340
      8          1           0        0.925702   -2.587981   -0.792202
      9          1           0        2.921796   -1.338550   -1.649300
     10          1           0        2.844580    1.188232    1.819227
     11          1           0        0.848234   -0.052957    2.687638
     12          7           0        4.143372    0.710986   -0.459680
     13          8           0        4.574606    1.634542    0.227138
     14          8           0        4.613862    0.349957   -1.536218
     15          6           0       -3.780084   -0.501489   -0.406315
     16          6           0       -2.928778   -1.649969    0.136139
     17          6           0       -3.409976   -3.019935   -0.342857
     18          1           0       -4.824714   -0.652023   -0.101305
     19          1           0       -3.767638   -0.532102   -1.504633
     20          1           0       -2.941703   -1.616369    1.233098
     21          1           0       -1.886020   -1.496582   -0.170037
     22          1           0       -3.380476   -3.078141   -1.435717
     23          1           0       -4.442156   -3.198607   -0.024610
     24          1           0       -2.787310   -3.826436    0.056769
     25          6           0       -3.311465    0.874442    0.063726
     26          6           0       -4.162771    2.022922   -0.478728
     27          6           0       -3.681572    3.392888    0.000268
     28          1           0       -3.323910    0.905055    1.162044
     29          1           0       -2.266834    1.024977   -0.241284
     30          1           0       -5.205529    1.869535   -0.172552
     31          1           0       -4.149847    1.989322   -1.575687
     32          1           0       -2.649392    3.571561   -0.317978
     33          1           0       -3.711072    3.451093    1.093129
     34          1           0       -4.304239    4.199390   -0.399358
 ---------------------------------------------------------------------

 SCF Done:  E(RHF) =  -669.535016528     A.U. after   15 cycles
 E2 =    -0.2092271646D+01 EUMP2 =    -0.67162728817368D+03

 The electronic state is 1-A.
 Alpha  occ. eigenvalues --  -20.60762 -20.60757 -15.85817 -11.31179 -11.27763
 Alpha  occ. eigenvalues --  -11.27757 -11.27436 -11.26760 -11.26740 -11.22595
 Alpha  occ. eigenvalues --  -11.22117 -11.22053 -11.22037 -11.21954 -11.21426
 Alpha  occ. eigenvalues --   -1.59838  -1.39392  -1.19359  -1.09136  -1.08744
 Alpha  occ. eigenvalues --   -1.04762  -1.04235  -0.96654  -0.95584  -0.87670
 Alpha  occ. eigenvalues --   -0.86156  -0.82425  -0.80349  -0.78927  -0.77464
 Alpha  occ. eigenvalues --   -0.72034  -0.71163  -0.70460  -0.65762  -0.65004
 Alpha  occ. eigenvalues --   -0.64760  -0.62113  -0.61618  -0.60078  -0.58281
 Alpha  occ. eigenvalues --   -0.55921  -0.55245  -0.53374  -0.53132  -0.53037
 Alpha  occ. eigenvalues --   -0.52847  -0.50587  -0.48802  -0.48790  -0.48602
 Alpha  occ. eigenvalues --   -0.47367  -0.46449  -0.46353  -0.44798  -0.44468
 Alpha  occ. eigenvalues --   -0.37274  -0.36371
 Alpha virt. eigenvalues --    0.05051   0.11192   0.16500   0.20336   0.22485
 Alpha virt. eigenvalues --    0.23838   0.25584   0.26267   0.27012   0.27544
 Alpha virt. eigenvalues --    0.29090   0.30115   0.30851   0.31427   0.31888

 Mulliken charges:
               1
     1  C   -0.170583
     2  C   -0.221618
     3  C   -0.170832
     4  C    0.158007
     5  C   -0.170883
     6  C   -0.220963
     7  H    0.233160
     8  H    0.223879
     9  H    0.275552
    10  H    0.275636
    11  H    0.223732
    12  N    0.488110
    13  O   -0.460456
    14  O   -0.460574
    15  C   -0.297329
    16  C   -0.309148
    17  C   -0.476276
    18  H    0.151745
    19  H    0.152173
    20  H    0.147072
    21  H    0.153133
    22  H    0.158222
    23  H    0.159924
    24  H    0.155299
    25  C   -0.300075
    26  C   -0.300149
    27  C   -0.476313
    28  H    0.146808
    29  H    0.152915
    30  H    0.152464
    31  H    0.153614
    32  H    0.157152
    33  H    0.154332
    34  H    0.162268
 Sum of Mulliken charges =  -0.00000

 Dipole moment (field-independent basis, Debye):
    X=             -4.2711    Y=             -2.5186    Z=              1.7486  Tot=              5.2577
 Quadrupole moment (field-independent basis, Debye-Ang):
   XX=           -119.4937   YY=            -94.4673   ZZ=            -90.9482
   XY=             -7.9845   XZ=              4.7326   YZ=              2.2699

 Normal termination of Gaussian 16 at Wed May  5 23:54:40 2021.
