 Gaussian 16, Revision A.03,
 Gaussian 16:  EM64L-G16RevA.03 25-Dec-2016

 -------------
 #p 6-31g* mp2
 -------------

 ------------------------------------------------------
 Input file generated by CHIRIPA (05-May-2021 14:53:12)
 ------------------------------------------------------
 Symbolic Z-matrix:
 Charge =  0 Multiplicity = 1

                         Standard orientation:
 ---------------------------------------------------------------------
 Center     Atomic      Atomic             Coordinates (Angstroms)
 Number     Number       Type             X           Y           Z
 ---------------------------------------------------------------------
      1          6           0       -4.117654   -0.225253   -0.314795
      2          6           0       -3.066284   -0.505374    0.759513
      3          6           0       -1.640058   -0.491974    0.208611
      4          1           0       -4.024637   -0.973522   -1.113785
      5          1           0       -3.910511    0.750810   -0.774999
      6          1           0       -3.276160   -1.479997    1.218509
      7          1           0       -3.161941    0.243535    1.556132
      8          1           0       -1.406457    0.482603   -0.232106
      9          1           0       -1.521325   -1.250723   -0.571648
     10          1           0       -0.904608   -0.694455    0.993452
     11          6           0       -5.548404   -0.235303    0.220541
     12          6           0       -6.599774    0.044818   -0.853768
     13          6           0       -8.026000    0.031418   -0.302865
     14          1           0       -5.755547   -1.211366    0.680745
     15          1           0       -5.641421    0.512966    1.019531
     16          1           0       -6.504117   -0.704091   -1.650386
     17          1           0       -6.389898    1.019441   -1.312763
     18          1           0       -8.144733    0.790167    0.477394
     19          1           0       -8.259601   -0.943159    0.137852
     20          1           0       -8.761450    0.233899   -1.087706
     21          6           0        1.970811    1.834813    0.644435
     22          6           0        3.005083    2.212407   -0.218249
     23          6           0        4.010489    1.303737   -0.561798
     24          6           0        3.950304    0.019914   -0.021924
     25          6           0        2.932922   -0.386303    0.840173
     26          6           0        1.938089    0.538948    1.169966
     27          1           0        1.193894    2.547131    0.905971
     28          1           0        3.033046    3.218120   -0.627889
     29          1           0        4.822739    1.569577   -1.227381
     30          1           0        2.931929   -1.395942    1.232660
     31          1           0        1.136070    0.242929    1.840178
     32          7           0        5.009087   -0.950831   -0.378344
     33          8           0        4.933366   -2.075891    0.110678
     34          8           0        5.894630   -0.568258   -1.139977
 ---------------------------------------------------------------------

 SCF Done:  E(RHF) =  -669.535088250     A.U. after   15 cycles
 E2 =    -0.2091206841D+01 EUMP2 =    -0.67162629509115D+03

 The electronic state is 1-A.
 Alpha  occ. eigenvalues --  -20.60731 -20.60725 -15.85784 -11.31146 -11.27711
 Alpha  occ. eigenvalues --  -11.27701 -11.27453 -11.26735 -11.26704 -11.22262
 Alpha  occ. eigenvalues --  -11.21970 -11.21921 -11.21875 -11.21808 -11.21384
 Alpha  occ. eigenvalues --   -1.59806  -1.39360  -1.19316  -1.08941  -1.08712
 Alpha  occ. eigenvalues --   -1.04723  -1.04061  -0.96519  -0.95548  -0.87545
 Alpha  occ. eigenvalues --   -0.86114  -0.82383  -0.80125  -0.78731  -0.77431
 Alpha  occ. eigenvalues --   -0.72002  -0.71128  -0.70425  -0.65570  -0.64969
 Alpha  occ. eigenvalues --   -0.64762  -0.62115  -0.61451  -0.59892  -0.58122
 Alpha  occ. eigenvalues --   -0.55796  -0.55226  -0.53433  -0.53034  -0.52923
 Alpha  occ. eigenvalues --   -0.52618  -0.50445  -0.48762  -0.48757  -0.48434
 Alpha  occ. eigenvalues --   -0.47151  -0.46277  -0.46191  -0.44766  -0.44312
 Alpha  occ. eigenvalues --   -0.37284  -0.36299
 Alpha virt. eigenvalues --    0.05095   0.11285   0.16538   0.20429   0.22552
 Alpha virt. eigenvalues --    0.23902   0.26031   0.26175   0.26938   0.27776
 Alpha virt. eigenvalues --    0.28915   0.29685   0.31004   0.31561   0.32320

 Mulliken charges:
               1
     1  C   -0.298739
     2  C   -0.300249
     3  C   -0.475633
     4  H    0.151980
     5  H    0.148791
     6  H    0.154318
     7  H    0.149341
     8  H    0.153360
     9  H    0.161537
    10  H    0.151582
    11  C   -0.298551
    12  C   -0.299977
    13  C   -0.475946
    14  H    0.150710
    15  H    0.149169
    16  H    0.153079
    17  H    0.151768
    18  H    0.155086
    19  H    0.155922
    20  H    0.161348
    21  C   -0.172090
    22  C   -0.218622
    23  C   -0.171056
    24  C    0.158640
    25  C   -0.172338
    26  C   -0.214591
    27  H    0.225392
    28  H    0.223131
    29  H    0.275408
    30  H    0.275311
    31  H    0.224917
    32  N    0.488101
    33  O   -0.460503
    34  O   -0.460595
 Sum of Mulliken charges =  -0.00000

 Dipole moment (field-independent basis, Debye):
    X=             -3.8632    Y=              3.3949    Z=              1.2009  Tot=              5.2812
 Quadrupole moment (field-independent basis, Debye-Ang):
   XX=           -124.6736   YY=            -91.5309   ZZ=            -93.8372
   XY=             15.4975   XZ=              3.9969   YZ=             -2.1237

 Normal termination of Gaussian 16 at Thu May  6 10:23:28 2021.
