 Gaussian 16, Revision A.03,
 Gaussian 16:  EM64L-G16RevA.03 25-Dec-2016

 -------------
 #p 6-31g* mp2
 -------------

 ------------------------------------------------------
 Input file generated by CHIRIPA (05-May-2021 14:57:21)
 ------------------------------------------------------
 Symbolic Z-matrix:
 Charge =  0 Multiplicity = 1

                         Standard orientation:
 ---------------------------------------------------------------------
 Center     Atomic      Atomic             Coordinates (Angstroms)
 Number     Number       Type             X           Y           Z
 ---------------------------------------------------------------------
      1          6           0        1.584489    2.204401   -0.494147
      2          6           0        1.497684    1.010752   -1.218156
      3          6           0        2.421022   -0.017281   -1.005687
      4          6           0        3.422834    0.183041   -0.057250
      5          6           0        3.535703    1.360805    0.679923
      6          6           0        2.601428    2.375316    0.450915
      7          1           0        0.862970    2.997750   -0.665622
      8          1           0        0.708969    0.875239   -1.952737
      9          1           0        2.377101   -0.951510   -1.552227
     10          1           0        4.333034    1.466619    1.405516
     11          1           0        2.671282    3.301256    1.014654
     12          7           0        4.406120   -0.898134    0.176435
     13          8           0        5.279346   -0.696937    1.017644
     14          8           0        4.284974   -1.926284   -0.486036
     15          6           0       -0.894007   -1.231093    0.008197
     16          6           0       -1.519769   -1.027570    1.242507
     17          6           0       -2.830854   -0.545967    1.303017
     18          6           0       -3.489587   -0.277138    0.104230
     19          6           0       -2.893211   -0.469598   -1.140994
     20          6           0       -1.581514   -0.951949   -1.177524
     21          1           0        0.124713   -1.605504   -0.029495
     22          1           0       -0.988270   -1.243498    2.164966
     23          1           0       -3.339198   -0.379306    2.244946
     24          1           0       -3.448615   -0.245299   -2.043567
     25          1           0       -1.098044   -1.109054   -2.137534
     26          7           0       -4.877899    0.233110    0.155596
     27          8           0       -5.436648    0.462309   -0.914875
     28          8           0       -5.381021    0.394182    1.265353
 ---------------------------------------------------------------------

 SCF Done:  E(RHF) =  -868.335855469     A.U. after   16 cycles
 E2 =    -0.2602682799D+01 EUMP2 =    -0.87093853826849D+03

 The electronic state is 1-A.
 Alpha  occ. eigenvalues --  -20.61597 -20.61575 -20.61198 -20.61191 -15.86643
 Alpha  occ. eigenvalues --  -15.86258 -11.32077 -11.31662 -11.28651 -11.28527
 Alpha  occ. eigenvalues --  -11.28334 -11.28255 -11.28226 -11.27966 -11.27616
 Alpha  occ. eigenvalues --  -11.27552 -11.27347 -11.27179  -1.60666  -1.60275
 Alpha  occ. eigenvalues --   -1.40218  -1.39827  -1.20218  -1.19871  -1.09574
 Alpha  occ. eigenvalues --   -1.09244  -1.05639  -1.05291  -0.96412  -0.96062
 Alpha  occ. eigenvalues --   -0.87020  -0.86676  -0.83253  -0.82900  -0.78330
 Alpha  occ. eigenvalues --   -0.77941  -0.72850  -0.72472  -0.72004  -0.71606
 Alpha  occ. eigenvalues --   -0.71309  -0.70914  -0.65857  -0.65703  -0.65498
 Alpha  occ. eigenvalues --   -0.65259  -0.63005  -0.62589  -0.56035  -0.55846
 Alpha  occ. eigenvalues --   -0.54123  -0.53730  -0.53392  -0.53299  -0.49619
 Alpha  occ. eigenvalues --   -0.49604  -0.49234  -0.49224  -0.45609  -0.45225
 Alpha  occ. eigenvalues --   -0.38432  -0.37964  -0.36989  -0.36664
 Alpha virt. eigenvalues --    0.04106   0.04696   0.10075   0.10866   0.15569
 Alpha virt. eigenvalues --    0.16203   0.19261   0.21868   0.25184   0.26654
 Alpha virt. eigenvalues --    0.27709   0.29175   0.29534   0.31190   0.32355

 Mulliken charges:
               1
     1  C   -0.171410
     2  C   -0.210277
     3  C   -0.186136
     4  C    0.159260
     5  C   -0.172105
     6  C   -0.217532
     7  H    0.230737
     8  H    0.223376
     9  H    0.270823
    10  H    0.277784
    11  H    0.227295
    12  N    0.487823
    13  O   -0.456834
    14  O   -0.461991
    15  C   -0.163557
    16  C   -0.221455
    17  C   -0.169934
    18  C    0.157010
    19  C   -0.172032
    20  C   -0.228439
    21  H    0.231810
    22  H    0.227256
    23  H    0.277189
    24  H    0.275753
    25  H    0.217271
    26  N    0.488058
    27  O   -0.460541
    28  O   -0.459202
 Sum of Mulliken charges =  -0.00000

 Dipole moment (field-independent basis, Debye):
    X=              1.4881    Y=              2.1823    Z=             -0.7967  Tot=              2.7589
 Quadrupole moment (field-independent basis, Debye-Ang):
   XX=           -162.7357   YY=           -101.6457   ZZ=            -97.8522
   XY=             19.2487   XZ=              0.5171   YZ=              1.4131

 Normal termination of Gaussian 16 at Thu May  6 17:51:22 2021.
