 Gaussian 16, Revision A.03,
 Gaussian 16:  EM64L-G16RevA.03 25-Dec-2016

 -------------
 #p 6-31g* mp2
 -------------

 ------------------------------------------------------
 Input file generated by CHIRIPA (05-May-2021 14:55:18)
 ------------------------------------------------------
 Symbolic Z-matrix:
 Charge =  0 Multiplicity = 1

                         Standard orientation:
 ---------------------------------------------------------------------
 Center     Atomic      Atomic             Coordinates (Angstroms)
 Number     Number       Type             X           Y           Z
 ---------------------------------------------------------------------
      1          6           0        1.709476   -2.526351    0.972558
      2          6           0        0.762301   -1.521275    0.750737
      3          6           0        1.145975   -0.291415    0.207796
      4          6           0        2.491321   -0.099814   -0.103048
      5          6           0        3.458601   -1.081581    0.106224
      6          6           0        3.052236   -2.303688    0.650162
      7          1           0        1.402615   -3.478724    1.394715
      8          1           0       -0.281199   -1.691401    1.000156
      9          1           0        0.433516    0.503989    0.025716
     10          1           0        4.491484   -0.882517   -0.152512
     11          1           0        3.790005   -3.082429    0.821346
     12          7           0        2.909511    1.198080   -0.678364
     13          8           0        4.100951    1.341996   -0.943688
     14          8           0        2.037930    2.046878   -0.853078
     15          6           0       -2.927608    0.877619    0.582245
     16          6           0       -2.307148    2.192728    0.109486
     17          6           0       -1.966424    3.134588    1.264735
     18          1           0       -3.836304    1.095118    1.160098
     19          1           0       -2.231549    0.378390    1.270479
     20          1           0       -3.003583    2.688663   -0.578731
     21          1           0       -1.399929    1.972064   -0.467470
     22          1           0       -1.253267    2.663124    1.948643
     23          1           0       -2.866033    3.383795    1.836750
     24          1           0       -1.524084    4.068511    0.904201
     25          6           0       -3.273732   -0.074488   -0.561178
     26          6           0       -3.894193   -1.389597   -0.088418
     27          6           0       -4.234916   -2.331457   -1.243668
     28          1           0       -3.969791    0.424742   -1.249412
     29          1           0       -2.365037   -0.291988   -1.139030
     30          1           0       -4.801410   -1.168933    0.488537
     31          1           0       -3.197757   -1.885532    0.599798
     32          1           0       -3.335307   -2.580664   -1.815682
     33          1           0       -4.948073   -1.859994   -1.927575
     34          1           0       -4.677256   -3.265380   -0.883134
 ---------------------------------------------------------------------

 SCF Done:  E(RHF) =  -669.535507493     A.U. after   15 cycles
 E2 =    -0.2092884445D+01 EUMP2 =    -0.67162839193776D+03

 The electronic state is 1-A.
 Alpha  occ. eigenvalues --  -20.60795 -20.60789 -15.85844 -11.31198 -11.27772
 Alpha  occ. eigenvalues --  -11.27749 -11.27512 -11.26787 -11.26772 -11.22308
 Alpha  occ. eigenvalues --  -11.22010 -11.21952 -11.21845 -11.21623 -11.21107
 Alpha  occ. eigenvalues --   -1.59867  -1.39421  -1.19374  -1.08986  -1.08770
 Alpha  occ. eigenvalues --   -1.04777  -1.03962  -0.96392  -0.95607  -0.87408
 Alpha  occ. eigenvalues --   -0.86176  -0.82440  -0.80035  -0.78776  -0.77495
 Alpha  occ. eigenvalues --   -0.72065  -0.71188  -0.70501  -0.65706  -0.65017
 Alpha  occ. eigenvalues --   -0.64800  -0.62133  -0.61308  -0.59763  -0.57984
 Alpha  occ. eigenvalues --   -0.55697  -0.55276  -0.53106  -0.53058  -0.52876
 Alpha  occ. eigenvalues --   -0.52782  -0.50352  -0.48826  -0.48818  -0.48320
 Alpha  occ. eigenvalues --   -0.47098  -0.46297  -0.46243  -0.44827  -0.44236
 Alpha  occ. eigenvalues --   -0.37355  -0.36376
 Alpha virt. eigenvalues --    0.05028   0.11261   0.16494   0.17823   0.22675
 Alpha virt. eigenvalues --    0.23274   0.24978   0.25957   0.27493   0.28431
 Alpha virt. eigenvalues --    0.29678   0.30994   0.31393   0.31564   0.32470

 Mulliken charges:
               1
     1  C   -0.170817
     2  C   -0.227757
     3  C   -0.180256
     4  C    0.156780
     5  C   -0.169678
     6  C   -0.218980
     7  H    0.226033
     8  H    0.229071
     9  H    0.290893
    10  H    0.275701
    11  H    0.223557
    12  N    0.487149
    13  O   -0.460012
    14  O   -0.462193
    15  C   -0.302144
    16  C   -0.309465
    17  C   -0.474914
    18  H    0.153843
    19  H    0.139926
    20  H    0.156886
    21  H    0.159692
    22  H    0.153335
    23  H    0.154003
    24  H    0.169293
    25  C   -0.300413
    26  C   -0.299852
    27  C   -0.476154
    28  H    0.155212
    29  H    0.147799
    30  H    0.155471
    31  H    0.142950
    32  H    0.155551
    33  H    0.158674
    34  H    0.160816
 Sum of Mulliken charges =  -0.00000

 Dipole moment (field-independent basis, Debye):
    X=             -1.5816    Y=             -4.4190    Z=              1.9428  Tot=              5.0797
 Quadrupole moment (field-independent basis, Debye-Ang):
   XX=            -96.2173   YY=            -93.7726   ZZ=            -96.5690
   XY=            -14.0537   XZ=              5.1624   YZ=             -0.2840

 Normal termination of Gaussian 16 at Wed May  5 17:19:02 2021.
