 Gaussian 16, Revision A.03,
 Gaussian 16:  EM64L-G16RevA.03 25-Dec-2016

 -------------
 #p 6-31g* mp2
 -------------

 ------------------------------------------------------
 Input file generated by CHIRIPA (05-May-2021 14:53:11)
 ------------------------------------------------------
 Symbolic Z-matrix:
 Charge =  0 Multiplicity = 1

                         Standard orientation:
 ---------------------------------------------------------------------
 Center     Atomic      Atomic             Coordinates (Angstroms)
 Number     Number       Type             X           Y           Z
 ---------------------------------------------------------------------
      1          6           0        3.654479    0.565214    0.425929
      2          6           0        3.296584    1.869303   -0.287687
      3          6           0        2.404292    2.779602    0.556687
      4          1           0        2.730091    0.033128    0.689245
      5          1           0        4.160308    0.800312    1.372640
      6          1           0        2.792814    1.631794   -1.233426
      7          1           0        4.221936    2.398255   -0.549504
      8          1           0        2.902820    3.045495    1.494435
      9          1           0        1.465578    2.274679    0.806628
     10          1           0        2.160693    3.706091    0.027408
     11          6           0        4.546093   -0.355374   -0.405497
     12          6           0        4.903989   -1.659464    0.308119
     13          6           0        5.796280   -2.569762   -0.536254
     14          1           0        4.040264   -0.590472   -1.352207
     15          1           0        5.470481    0.176712   -0.668812
     16          1           0        3.978636   -2.188416    0.569937
     17          1           0        5.407758   -1.421955    1.253858
     18          1           0        6.734994   -2.064840   -0.786195
     19          1           0        5.297752   -2.835655   -1.474003
     20          1           0        6.039879   -3.496252   -0.006975
     21          6           0       -5.175662   -1.654998    0.030523
     22          6           0       -5.336401   -0.341799   -0.423563
     23          6           0       -4.250587    0.538481   -0.449291
     24          6           0       -3.012673    0.070106   -0.011704
     25          6           0       -2.820685   -1.232453    0.446303
     26          6           0       -3.920529   -2.095357    0.463243
     27          1           0       -6.024598   -2.332071    0.047096
     28          1           0       -6.309988    0.002929   -0.760218
     29          1           0       -4.346933    1.560243   -0.795899
     30          1           0       -1.837881   -1.547216    0.775603
     31          1           0       -3.792752   -3.114667    0.816409
     32          7           0       -1.855743    0.992822   -0.034290
     33          8           0       -0.775510    0.555801    0.356539
     34          8           0       -2.051081    2.135595   -0.442394
 ---------------------------------------------------------------------

 SCF Done:  E(RHF) =  -669.536630407     A.U. after   15 cycles
 E2 =    -0.2091225993D+01 EUMP2 =    -0.67162785639987D+03

 The electronic state is 1-A.
 Alpha  occ. eigenvalues --  -20.61084 -20.61068 -15.86093 -11.31373 -11.27929
 Alpha  occ. eigenvalues --  -11.27923 -11.27657 -11.26924 -11.26914 -11.20934
 Alpha  occ. eigenvalues --  -11.20558 -11.20483 -11.20175 -11.20114 -11.19156
 Alpha  occ. eigenvalues --   -1.60124  -1.39682  -1.19534  -1.08947  -1.07372
 Alpha  occ. eigenvalues --   -1.04923  -1.02401  -0.95796  -0.94840  -0.86326
 Alpha  occ. eigenvalues --   -0.85860  -0.82631  -0.78540  -0.77689  -0.77117
 Alpha  occ. eigenvalues --   -0.72312  -0.71431  -0.70642  -0.65191  -0.64926
 Alpha  occ. eigenvalues --   -0.64001  -0.62271  -0.59785  -0.58308  -0.56445
 Alpha  occ. eigenvalues --   -0.55432  -0.54116  -0.53257  -0.53014  -0.51553
 Alpha  occ. eigenvalues --   -0.51278  -0.49246  -0.49060  -0.48594  -0.46812
 Alpha  occ. eigenvalues --   -0.45567  -0.45100  -0.44664  -0.44500  -0.42669
 Alpha  occ. eigenvalues --   -0.37510  -0.36522
 Alpha virt. eigenvalues --    0.04839   0.11134   0.16348   0.21262   0.23825
 Alpha virt. eigenvalues --    0.25505   0.27194   0.27593   0.28156   0.28539
 Alpha virt. eigenvalues --    0.29237   0.30848   0.32303   0.32565   0.32682

 Mulliken charges:
               1
     1  C   -0.300209
     2  C   -0.295944
     3  C   -0.486846
     4  H    0.158379
     5  H    0.144902
     6  H    0.152920
     7  H    0.144107
     8  H    0.144316
     9  H    0.185355
    10  H    0.156171
    11  C   -0.297444
    12  C   -0.298464
    13  C   -0.474983
    14  H    0.148429
    15  H    0.146999
    16  H    0.150067
    17  H    0.150554
    18  H    0.154468
    19  H    0.153845
    20  H    0.157225
    21  C   -0.170425
    22  C   -0.218594
    23  C   -0.170530
    24  C    0.157751
    25  C   -0.170665
    26  C   -0.218535
    27  H    0.226300
    28  H    0.224118
    29  H    0.276103
    30  H    0.275636
    31  H    0.224115
    32  N    0.489840
    33  O   -0.461436
    34  O   -0.457523
 Sum of Mulliken charges =  -0.00000

 Dipole moment (field-independent basis, Debye):
    X=             -4.5490    Y=             -3.2650    Z=              0.0771  Tot=              5.6000
 Quadrupole moment (field-independent basis, Debye-Ang):
   XX=            -69.9610   YY=            -93.7915   ZZ=            -95.1060
   XY=              7.9645   XZ=              1.7109   YZ=             -1.8320

 Normal termination of Gaussian 16 at Wed May  5 16:56:21 2021.
