 Gaussian 16, Revision A.03,
 Gaussian 16:  EM64L-G16RevA.03 25-Dec-2016

 -------------
 #p 6-31g* mp2
 -------------

 ------------------------------------------------------
 Input file generated by CHIRIPA (05-May-2021 14:57:26)
 ------------------------------------------------------
 Symbolic Z-matrix:
 Charge =  0 Multiplicity = 1

                         Standard orientation:
 ---------------------------------------------------------------------
 Center     Atomic      Atomic             Coordinates (Angstroms)
 Number     Number       Type             X           Y           Z
 ---------------------------------------------------------------------
      1          6           0        1.406216    0.774970   -0.938119
      2          6           0        2.297307    1.806995   -0.626025
      3          6           0        3.567362    1.518932   -0.117570
      4          6           0        3.914952    0.181634    0.067111
      5          6           0        3.049426   -0.868752   -0.234293
      6          6           0        1.784453   -0.557261   -0.741603
      7          1           0        0.421580    1.007844   -1.332654
      8          1           0        2.006269    2.842544   -0.777614
      9          1           0        4.276884    2.298342    0.132463
     10          1           0        3.368061   -1.891330   -0.072352
     11          1           0        1.094482   -1.360794   -0.983096
     12          7           0        5.256812   -0.135727    0.604784
     13          8           0        5.538966   -1.322085    0.758345
     14          8           0        6.001001    0.807893    0.862470
     15          6           0       -5.419391    1.364012    0.935178
     16          6           0       -4.779558    1.642798   -0.277015
     17          6           0       -3.821835    0.764554   -0.792768
     18          6           0       -3.526973   -0.388423   -0.066827
     19          6           0       -4.147200   -0.693999    1.143640
     20          6           0       -5.101731    0.198557    1.640394
     21          1           0       -6.162133    2.051812    1.328448
     22          1           0       -5.024256    2.547148   -0.826851
     23          1           0       -3.311274    0.955839   -1.728800
     24          1           0       -3.882192   -1.603485    1.669020
     25          1           0       -5.597038   -0.020525    2.582051
     26          7           0       -2.514764   -1.325757   -0.602775
     27          8           0       -2.272788   -2.334788    0.055966
     28          8           0       -1.982540   -1.033659   -1.671443
 ---------------------------------------------------------------------

 SCF Done:  E(RHF) =  -868.340775803     A.U. after   16 cycles
 E2 =    -0.2599022162D+01 EUMP2 =    -0.87093979796415D+03

 The electronic state is 1-A.
 Alpha  occ. eigenvalues --  -20.62125 -20.62066 -20.60130 -20.60118 -15.87087
 Alpha  occ. eigenvalues --  -15.85170 -11.32138 -11.30374 -11.28698 -11.28628
 Alpha  occ. eigenvalues --  -11.28324 -11.27613 -11.27568 -11.26965 -11.26821
 Alpha  occ. eigenvalues --  -11.26515 -11.25969 -11.25634  -1.61144  -1.59205
 Alpha  occ. eigenvalues --   -1.40705  -1.38763  -1.20274  -1.18504  -1.09725
 Alpha  occ. eigenvalues --   -1.07914  -1.05627  -1.03866  -0.96613  -0.94785
 Alpha  occ. eigenvalues --   -0.87039  -0.85254  -0.83455  -0.81617  -0.78546
 Alpha  occ. eigenvalues --   -0.76700  -0.73311  -0.72444  -0.71391  -0.71371
 Alpha  occ. eigenvalues --   -0.70527  -0.69569  -0.65926  -0.65620  -0.64136
 Alpha  occ. eigenvalues --   -0.63813  -0.62979  -0.61196  -0.56126  -0.54326
 Alpha  occ. eigenvalues --   -0.53971  -0.53710  -0.52233  -0.51922  -0.50088
 Alpha  occ. eigenvalues --   -0.50040  -0.48158  -0.48129  -0.46163  -0.44205
 Alpha  occ. eigenvalues --   -0.38225  -0.37215  -0.36475  -0.35479
 Alpha virt. eigenvalues --    0.03914   0.05799   0.10431   0.12173   0.15458
 Alpha virt. eigenvalues --    0.17351   0.20524   0.22452   0.26407   0.27209
 Alpha virt. eigenvalues --    0.28437   0.28891   0.30568   0.31323   0.32966

 Mulliken charges:
               1
     1  C   -0.175664
     2  C   -0.218966
     3  C   -0.173094
     4  C    0.158045
     5  C   -0.172827
     6  C   -0.225158
     7  H    0.228970
     8  H    0.217657
     9  H    0.271832
    10  H    0.275150
    11  H    0.245147
    12  N    0.488096
    13  O   -0.461258
    14  O   -0.463640
    15  C   -0.169460
    16  C   -0.218236
    17  C   -0.172983
    18  C    0.158292
    19  C   -0.169693
    20  C   -0.218234
    21  H    0.228987
    22  H    0.225514
    23  H    0.272797
    24  H    0.277868
    25  H    0.227049
    26  N    0.488808
    27  O   -0.454820
    28  O   -0.470180
 Sum of Mulliken charges =  -0.00000

 Dipole moment (field-independent basis, Debye):
    X=             -8.8868    Y=              4.2373    Z=              0.0825  Tot=              9.8457
 Quadrupole moment (field-independent basis, Debye-Ang):
   XX=           -117.4757   YY=           -100.8249   ZZ=           -103.2274
   XY=             -5.8447   XZ=            -15.5554   YZ=             -3.6499

 Normal termination of Gaussian 16 at Thu May  6 13:10:10 2021.
