 Gaussian 16, Revision A.03,
 Gaussian 16:  EM64L-G16RevA.03 25-Dec-2016

 -------------
 #p 6-31g* mp2
 -------------

 ------------------------------------------------------
 Input file generated by CHIRIPA (05-May-2021 14:57:22)
 ------------------------------------------------------
 Symbolic Z-matrix:
 Charge =  0 Multiplicity = 1

                         Standard orientation:
 ---------------------------------------------------------------------
 Center     Atomic      Atomic             Coordinates (Angstroms)
 Number     Number       Type             X           Y           Z
 ---------------------------------------------------------------------
      1          6           0       -3.959482    2.576537   -0.012645
      2          6           0       -5.054632    1.799459   -0.404202
      3          6           0       -4.959645    0.405071   -0.438960
      4          6           0       -3.748954   -0.181759   -0.074064
      5          6           0       -2.640066    0.565202    0.320532
      6          6           0       -2.757813    1.958018    0.347837
      7          1           0       -4.042111    3.659120    0.011461
      8          1           0       -5.989107    2.277087   -0.684688
      9          1           0       -5.791799   -0.220571   -0.738140
     10          1           0       -1.721631    0.060411    0.594541
     11          1           0       -1.905662    2.558986    0.652340
     12          7           0       -3.636348   -1.657103   -0.106915
     13          8           0       -2.558672   -2.149899    0.219280
     14          8           0       -4.627896   -2.292747   -0.458238
     15          6           0        5.980232    0.424695   -1.041988
     16          6           0        5.860020    0.515815    0.348611
     17          6           0        4.638878    0.248718    0.974726
     18          6           0        3.553596   -0.108389    0.176022
     19          6           0        3.641729   -0.207720   -1.211658
     20          6           0        4.872655    0.063855   -1.816320
     21          1           0        6.932645    0.633922   -1.520036
     22          1           0        6.718493    0.795826    0.952485
     23          1           0        4.517898    0.311719    2.049348
     24          1           0        2.768200   -0.489195   -1.787103
     25          1           0        4.963087   -0.007700   -2.896480
     26          7           0        2.255649   -0.393523    0.827505
     27          8           0        1.314508   -0.706154    0.101451
     28          8           0        2.204033   -0.298980    2.051856
 ---------------------------------------------------------------------

 SCF Done:  E(RHF) =  -868.338675990     A.U. after   16 cycles
 E2 =    -0.2598997515D+01 EUMP2 =    -0.87093767350443D+03

 The electronic state is 1-A.
 Alpha  occ. eigenvalues --  -20.61080 -20.61047 -20.59721 -20.59656 -15.86084
 Alpha  occ. eigenvalues --  -15.84743 -11.31372 -11.30148 -11.27935 -11.27916
 Alpha  occ. eigenvalues --  -11.27662 -11.26930 -11.26915 -11.26841 -11.26610
 Alpha  occ. eigenvalues --  -11.26562 -11.25878 -11.25750  -1.60126  -1.58776
 Alpha  occ. eigenvalues --   -1.39677  -1.38319  -1.19537  -1.18364  -1.08949
 Alpha  occ. eigenvalues --   -1.07775  -1.04925  -1.03761  -0.95793  -0.94581
 Alpha  occ. eigenvalues --   -0.86327  -0.85166  -0.82622  -0.81400  -0.77682
 Alpha  occ. eigenvalues --   -0.76411  -0.72292  -0.71442  -0.70958  -0.70642
 Alpha  occ. eigenvalues --   -0.70108  -0.69476  -0.65189  -0.64926  -0.64016
 Alpha  occ. eigenvalues --   -0.63777  -0.62269  -0.61068  -0.55432  -0.54321
 Alpha  occ. eigenvalues --   -0.53263  -0.53014  -0.52124  -0.51848  -0.49062
 Alpha  occ. eigenvalues --   -0.49048  -0.47752  -0.47690  -0.45096  -0.43716
 Alpha  occ. eigenvalues --   -0.37518  -0.36526  -0.36406  -0.35375
 Alpha virt. eigenvalues --    0.04830   0.06095   0.11130   0.12268   0.16333
 Alpha virt. eigenvalues --    0.17541   0.21278   0.22386   0.27203   0.28113
 Alpha virt. eigenvalues --    0.28328   0.29377   0.30855   0.31875   0.32405

 Mulliken charges:
               1
     1  C   -0.171405
     2  C   -0.220002
     3  C   -0.171731
     4  C    0.155263
     5  C   -0.176598
     6  C   -0.221668
     7  H    0.221277
     8  H    0.219206
     9  H    0.272503
    10  H    0.298916
    11  H    0.222705
    12  N    0.486517
    13  O   -0.451274
    14  O   -0.467323
    15  C   -0.170497
    16  C   -0.218690
    17  C   -0.170967
    18  C    0.157387
    19  C   -0.171077
    20  C   -0.218693
    21  H    0.226250
    22  H    0.223901
    23  H    0.275683
    24  H    0.277443
    25  H    0.224451
    26  N    0.488048
    27  O   -0.459595
    28  O   -0.460031
 Sum of Mulliken charges =  -0.00000

 Dipole moment (field-independent basis, Debye):
    X=              4.6266    Y=              6.0656    Z=             -2.1318  Tot=              7.9210
 Quadrupole moment (field-independent basis, Debye-Ang):
   XX=            -66.0188   YY=           -108.6169   ZZ=           -102.0176
   XY=            -15.3553   XZ=             -4.4418   YZ=              1.0834

 Normal termination of Gaussian 16 at Thu May  6 06:33:15 2021.
