 Gaussian 16, Revision A.03,
 Gaussian 16:  EM64L-G16RevA.03 25-Dec-2016

 -------------
 #p 6-31g* mp2
 -------------

 ------------------------------------------------------
 Input file generated by CHIRIPA (05-May-2021 14:57:21)
 ------------------------------------------------------
 Symbolic Z-matrix:
 Charge =  0 Multiplicity = 1

                         Standard orientation:
 ---------------------------------------------------------------------
 Center     Atomic      Atomic             Coordinates (Angstroms)
 Number     Number       Type             X           Y           Z
 ---------------------------------------------------------------------
      1          6           0       -5.651582    1.383062   -0.151052
      2          6           0       -5.898332    0.010988   -0.036816
      3          6           0       -4.838173   -0.898040    0.028591
      4          6           0       -3.537930   -0.398066   -0.023202
      5          6           0       -3.259756    0.963184   -0.136817
      6          6           0       -4.335402    1.853950   -0.200601
      7          1           0       -6.481155    2.082124   -0.201231
      8          1           0       -6.919468   -0.357560    0.001889
      9          1           0       -5.000671   -1.965355    0.117207
     10          1           0       -2.231020    1.300538   -0.173036
     11          1           0       -4.140783    2.918986   -0.289300
     12          7           0       -2.407389   -1.350747    0.045183
     13          8           0       -1.271006   -0.884913   -0.002443
     14          8           0       -2.679062   -2.545253    0.145113
     15          6           0        2.771993    2.569161    0.232036
     16          6           0        4.121305    2.389773   -0.089984
     17          6           0        4.659693    1.104426   -0.202099
     18          6           0        3.816318    0.015980    0.015372
     19          6           0        2.467952    0.162140    0.337612
     20          6           0        1.951070    1.456732    0.444431
     21          1           0        2.362113    3.571240    0.317073
     22          1           0        4.761200    3.251858   -0.255474
     23          1           0        5.700746    0.936813   -0.450156
     24          1           0        1.854896   -0.716617    0.496874
     25          1           0        0.902805    1.593035    0.694646
     26          7           0        4.374901   -1.349654   -0.100516
     27          8           0        3.610931   -2.292208    0.095894
     28          8           0        5.566114   -1.451624   -0.385564
 ---------------------------------------------------------------------

 SCF Done:  E(RHF) =  -868.338639375     A.U. after   16 cycles
 E2 =    -0.2599292734D+01 EUMP2 =    -0.87093793210809D+03

 The electronic state is 1-A.
 Alpha  occ. eigenvalues --  -20.61475 -20.61417 -20.59951 -20.59912 -15.86494
 Alpha  occ. eigenvalues --  -15.84985 -11.31774 -11.30347 -11.28397 -11.28280
 Alpha  occ. eigenvalues --  -11.28028 -11.27346 -11.27277 -11.27028 -11.26821
 Alpha  occ. eigenvalues --  -11.26771 -11.26073 -11.25946  -1.60497  -1.59013
 Alpha  occ. eigenvalues --   -1.40062  -1.38561  -1.19928  -1.18562  -1.09330
 Alpha  occ. eigenvalues --   -1.07989  -1.05325  -1.03943  -0.96186  -0.94799
 Alpha  occ. eigenvalues --   -0.86725  -0.85368  -0.83033  -0.81611  -0.78097
 Alpha  occ. eigenvalues --   -0.76627  -0.72723  -0.71806  -0.71205  -0.71038
 Alpha  occ. eigenvalues --   -0.70339  -0.69695  -0.65588  -0.65327  -0.64215
 Alpha  occ. eigenvalues --   -0.63973  -0.62684  -0.61249  -0.55812  -0.54540
 Alpha  occ. eigenvalues --   -0.53646  -0.53421  -0.52316  -0.52039  -0.49473
 Alpha  occ. eigenvalues --   -0.49428  -0.47981  -0.47944  -0.45483  -0.43965
 Alpha  occ. eigenvalues --   -0.37887  -0.36921  -0.36617  -0.35548
 Alpha virt. eigenvalues --    0.04448   0.05876   0.10734   0.12074   0.15961
 Alpha virt. eigenvalues --    0.17315   0.19930   0.22068   0.25158   0.27136
 Alpha virt. eigenvalues --    0.28788   0.29091   0.30382   0.31196   0.32861

 Mulliken charges:
               1
     1  C   -0.170127
     2  C   -0.218231
     3  C   -0.169742
     4  C    0.159011
     5  C   -0.170878
     6  C   -0.218303
     7  H    0.227411
     8  H    0.225850
     9  H    0.277966
    10  H    0.269229
    11  H    0.223070
    12  N    0.492303
    13  O   -0.473010
    14  O   -0.452163
    15  C   -0.171711
    16  C   -0.219594
    17  C   -0.171466
    18  C    0.157083
    19  C   -0.172550
    20  C   -0.222159
    21  H    0.219296
    22  H    0.219523
    23  H    0.273154
    24  H    0.295288
    25  H    0.223366
    26  N    0.487523
    27  O   -0.455116
    28  O   -0.465022
 Sum of Mulliken charges =  -0.00000

 Dipole moment (field-independent basis, Debye):
    X=             -6.4373    Y=              7.8503    Z=              0.1852  Tot=             10.1539
 Quadrupole moment (field-independent basis, Debye-Ang):
   XX=            -85.8574   YY=           -104.6562   ZZ=           -106.3105
   XY=             12.4781   XZ=              1.2000   YZ=             -0.7688

 Normal termination of Gaussian 16 at Thu May  6 01:42:45 2021.
