 Gaussian 16, Revision A.03,
 Gaussian 16:  EM64L-G16RevA.03 25-Dec-2016

 -------------
 #p 6-31g* mp2
 -------------

 ------------------------------------------------------
 Input file generated by CHIRIPA (05-May-2021 14:53:13)
 ------------------------------------------------------
 Symbolic Z-matrix:
 Charge =  0 Multiplicity = 1

                         Standard orientation:
 ---------------------------------------------------------------------
 Center     Atomic      Atomic             Coordinates (Angstroms)
 Number     Number       Type             X           Y           Z
 ---------------------------------------------------------------------
      1          6           0        3.544505    0.915904   -0.430997
      2          6           0        2.762856    1.624760    0.675588
      3          6           0        1.979319    2.834077    0.164299
      4          1           0        4.235009    1.630781   -0.899080
      5          1           0        2.845955    0.595946   -1.216522
      6          1           0        3.462496    1.942065    1.459448
      7          1           0        2.074270    0.908064    1.141218
      8          1           0        1.259245    2.530427   -0.602442
      9          1           0        2.655359    3.570302   -0.282403
     10          1           0        1.427946    3.325820    0.971788
     11          6           0        4.332914   -0.295112    0.064563
     12          6           0        5.114563   -1.003969   -1.042023
     13          6           0        5.898100   -2.213286   -0.530734
     14          1           0        5.031464    0.024845    0.850088
     15          1           0        3.642410   -1.009989    0.532645
     16          1           0        5.803149   -0.287273   -1.507653
     17          1           0        4.414923   -1.321273   -1.825883
     18          1           0        5.222060   -2.949511   -0.084031
     19          1           0        6.618174   -1.909635    0.236007
     20          1           0        6.449472   -2.705029   -1.338222
     21          6           0       -0.998953   -0.340817    1.570545
     22          6           0       -1.897144   -1.413086    1.567047
     23          6           0       -3.051811   -1.369504    0.780033
     24          6           0       -3.278026   -0.232992    0.005142
     25          6           0       -2.402181    0.851381   -0.012788
     26          6           0       -1.253888    0.786008    0.782005
     27          1           0       -0.104455   -0.383137    2.184938
     28          1           0       -1.701727   -2.289472    2.178444
     29          1           0       -3.763966   -2.185461    0.758430
     30          1           0       -2.624059    1.711529   -0.632735
     31          1           0       -0.558102    1.620229    0.782740
     32          7           0       -4.497047   -0.175318   -0.832153
     33          8           0       -4.673482    0.837330   -1.505987
     34          8           0       -5.252996   -1.143853   -0.798736
 ---------------------------------------------------------------------

 SCF Done:  E(RHF) =  -669.535125635     A.U. after   15 cycles
 E2 =    -0.2092196758D+01 EUMP2 =    -0.67162732239292D+03

 The electronic state is 1-A.
 Alpha  occ. eigenvalues --  -20.60737 -20.60732 -15.85788 -11.31150 -11.27717
 Alpha  occ. eigenvalues --  -11.27695 -11.27443 -11.26736 -11.26635 -11.22769
 Alpha  occ. eigenvalues --  -11.22293 -11.22227 -11.22174 -11.22095 -11.21565
 Alpha  occ. eigenvalues --   -1.59812  -1.39366  -1.19315  -1.09269  -1.08711
 Alpha  occ. eigenvalues --   -1.04724  -1.04383  -0.96837  -0.95550  -0.87858
 Alpha  occ. eigenvalues --   -0.86110  -0.82382  -0.80470  -0.79034  -0.77432
 Alpha  occ. eigenvalues --   -0.72008  -0.71135  -0.70438  -0.65975  -0.64963
 Alpha  occ. eigenvalues --   -0.64726  -0.62261  -0.61564  -0.60215  -0.58422
 Alpha  occ. eigenvalues --   -0.56130  -0.55220  -0.53565  -0.53255  -0.53038
 Alpha  occ. eigenvalues --   -0.52747  -0.50740  -0.48778  -0.48760  -0.48757
 Alpha  occ. eigenvalues --   -0.47504  -0.46586  -0.46473  -0.44772  -0.44622
 Alpha  occ. eigenvalues --   -0.37295  -0.36313
 Alpha virt. eigenvalues --    0.05086   0.11260   0.16535   0.19384   0.22667
 Alpha virt. eigenvalues --    0.23797   0.24806   0.26024   0.26563   0.28603
 Alpha virt. eigenvalues --    0.28934   0.30498   0.30807   0.31107   0.31980

 Mulliken charges:
               1
     1  C   -0.298965
     2  C   -0.302005
     3  C   -0.486562
     4  H    0.153178
     5  H    0.152961
     6  H    0.156469
     7  H    0.143246
     8  H    0.155464
     9  H    0.165524
    10  H    0.157754
    11  C   -0.298309
    12  C   -0.300498
    13  C   -0.476076
    14  H    0.150485
    15  H    0.146865
    16  H    0.153592
    17  H    0.153855
    18  H    0.154771
    19  H    0.155640
    20  H    0.162581
    21  C   -0.175853
    22  C   -0.218452
    23  C   -0.171337
    24  C    0.158924
    25  C   -0.174132
    26  C   -0.226203
    27  H    0.226846
    28  H    0.223168
    29  H    0.275377
    30  H    0.275765
    31  H    0.238955
    32  N    0.488032
    33  O   -0.460443
    34  O   -0.460619
 Sum of Mulliken charges =  -0.00000

 Dipole moment (field-independent basis, Debye):
    X=              4.5361    Y=             -0.1640    Z=              2.8611  Tot=              5.3656
 Quadrupole moment (field-independent basis, Debye-Ang):
   XX=           -122.1855   YY=            -90.8646   ZZ=            -94.9498
   XY=              2.2712   XZ=            -10.4238   YZ=             -2.1891

 Normal termination of Gaussian 16 at Thu May  6 10:30:14 2021.
