 Gaussian 16, Revision A.03,
 Gaussian 16:  EM64L-G16RevA.03 25-Dec-2016

 -------------
 #p 6-31g* mp2
 -------------

 ------------------------------------------------------
 Input file generated by CHIRIPA (05-May-2021 14:51:10)
 ------------------------------------------------------
 Symbolic Z-matrix:
 Charge =  0 Multiplicity = 1

                         Standard orientation:
 ---------------------------------------------------------------------
 Center     Atomic      Atomic             Coordinates (Angstroms)
 Number     Number       Type             X           Y           Z
 ---------------------------------------------------------------------
      1          6           0       -2.681762    0.283793   -0.046153
      2          6           0       -4.046171    0.798170    0.414055
      3          6           0       -4.111938    2.324430    0.477274
      4          1           0       -1.906662    0.657652    0.636777
      5          1           0       -2.454594    0.702837   -1.036199
      6          1           0       -4.271316    0.377182    1.402334
      7          1           0       -4.818136    0.422886   -0.269939
      8          1           0       -3.912855    2.759716   -0.507354
      9          1           0       -3.362928    2.713753    1.174421
     10          1           0       -5.096003    2.670488    0.808513
     11          6           0       -2.600397   -1.240165   -0.114409
     12          6           0       -1.235988   -1.754541   -0.574618
     13          6           0       -1.170221   -3.280802   -0.637836
     14          1           0       -2.827566   -1.659208    0.875637
     15          1           0       -3.375498   -1.614023   -0.797339
     16          1           0       -0.464024   -1.379257    0.109377
     17          1           0       -1.010843   -1.333554   -1.562897
     18          1           0       -1.919231   -3.670124   -1.334983
     19          1           0       -1.369304   -3.716088    0.346792
     20          1           0       -0.186156   -3.626860   -0.969075
     21          6           0        2.750847   -0.102728    0.563936
     22          6           0        2.736015   -1.470973   -0.118462
     23          6           0        2.956927   -2.623078    0.862174
     24          1           0        3.711291    0.032169    1.079974
     25          1           0        1.973138   -0.079269    1.339832
     26          1           0        3.512602   -1.491365   -0.893778
     27          1           0        1.775569   -1.602550   -0.633096
     28          1           0        2.175867   -2.631145    1.629300
     29          1           0        3.922769   -2.519328    1.367136
     30          1           0        2.942550   -3.591875    0.353172
     31          6           0        2.531313    1.059099   -0.403375
     32          6           0        2.546144    2.427345    0.279025
     33          6           0        2.325233    3.579448   -0.701612
     34          1           0        3.309022    1.035641   -1.179270
     35          1           0        1.570868    0.924203   -0.919412
     36          1           0        3.506590    2.558921    0.793657
     37          1           0        1.769557    2.447737    1.054340
     38          1           0        1.359391    3.475700   -1.206573
     39          1           0        3.106292    3.587516   -1.468737
     40          1           0        2.339609    4.548248   -0.192610
 ---------------------------------------------------------------------

 SCF Done:  E(RHF) =  -470.733001255     A.U. after   11 cycles
 E2 =    -0.1583977625D+01 EUMP2 =    -0.47231697888039D+03

 The electronic state is 1-A.
 Alpha  occ. eigenvalues --  -11.21679 -11.21656 -11.21579 -11.21502 -11.21479
 Alpha  occ. eigenvalues --  -11.21419 -11.21377 -11.21315 -11.21128 -11.21114
 Alpha  occ. eigenvalues --  -11.21049 -11.21046  -1.08516  -1.08388  -1.03625
 Alpha  occ. eigenvalues --   -1.03472  -0.96049  -0.95943  -0.87060  -0.86962
 Alpha  occ. eigenvalues --   -0.79723  -0.79518  -0.78371  -0.78163  -0.65257
 Alpha  occ. eigenvalues --   -0.64941  -0.61168  -0.60782  -0.59458  -0.59242
 Alpha  occ. eigenvalues --   -0.57701  -0.57496  -0.55352  -0.55201  -0.52745
 Alpha  occ. eigenvalues --   -0.52627  -0.52463  -0.52373  -0.50027  -0.49859
 Alpha  occ. eigenvalues --   -0.48073  -0.47817  -0.46778  -0.46519  -0.46046
 Alpha  occ. eigenvalues --   -0.45804  -0.45690  -0.45425  -0.43849  -0.43748
 Alpha virt. eigenvalues --    0.20068   0.22779   0.23499   0.25040   0.25704
 Alpha virt. eigenvalues --    0.25929   0.26851   0.27751   0.28756   0.29705
 Alpha virt. eigenvalues --    0.29898   0.31197   0.31486   0.31825   0.32634

 Mulliken charges:
               1
     1  C   -0.298546
     2  C   -0.299680
     3  C   -0.475771
     4  H    0.149084
     5  H    0.149409
     6  H    0.152105
     7  H    0.152224
     8  H    0.155271
     9  H    0.155192
    10  H    0.160525
    11  C   -0.297811
    12  C   -0.305240
    13  C   -0.477859
    14  H    0.149729
    15  H    0.150013
    16  H    0.156417
    17  H    0.151943
    18  H    0.155635
    19  H    0.155619
    20  H    0.162511
    21  C   -0.298464
    22  C   -0.308770
    23  C   -0.475548
    24  H    0.149732
    25  H    0.148318
    26  H    0.151711
    27  H    0.162431
    28  H    0.154759
    29  H    0.155097
    30  H    0.159975
    31  C   -0.299550
    32  C   -0.299376
    33  C   -0.475757
    34  H    0.149387
    35  H    0.151378
    36  H    0.151788
    37  H    0.151431
    38  H    0.155510
    39  H    0.155040
    40  H    0.160138
 Sum of Mulliken charges =  -0.00000

 Dipole moment (field-independent basis, Debye):
    X=             -0.0423    Y=             -0.0155    Z=             -0.0187  Tot=              0.0488
 Quadrupole moment (field-independent basis, Debye-Ang):
   XX=            -83.7688   YY=            -86.8343   ZZ=            -84.1681
   XY=              0.4483   XZ=              0.0700   YZ=              0.4257

 Normal termination of Gaussian 16 at Wed May  5 19:49:16 2021.
