 Gaussian 16, Revision A.03,
 Gaussian 16:  EM64L-G16RevA.03 25-Dec-2016

 -------------
 #p 6-31g* mp2
 -------------

 ------------------------------------------------------
 Input file generated by CHIRIPA (05-May-2021 14:53:18)
 ------------------------------------------------------
 Symbolic Z-matrix:
 Charge =  0 Multiplicity = 1

                         Standard orientation:
 ---------------------------------------------------------------------
 Center     Atomic      Atomic             Coordinates (Angstroms)
 Number     Number       Type             X           Y           Z
 ---------------------------------------------------------------------
      1          6           0        4.390524   -0.007958    0.045206
      2          6           0        4.061447   -1.451983   -0.334905
      3          6           0        5.272453   -2.380086   -0.235486
      4          1           0        5.192809    0.362562   -0.607480
      5          1           0        4.786530    0.012951    1.069968
      6          1           0        3.664884   -1.469996   -1.358149
      7          1           0        3.259720   -1.819044    0.318636
      8          1           0        5.665982   -2.391821    0.786081
      9          1           0        6.073448   -2.040790   -0.900232
     10          1           0        5.014738   -3.407319   -0.511592
     11          6           0        3.189967    0.931975   -0.049225
     12          6           0        3.519044    2.376000    0.330886
     13          6           0        2.308038    3.304103    0.231467
     14          1           0        2.793961    0.911066   -1.073987
     15          1           0        2.387682    0.561455    0.603461
     16          1           0        4.320772    2.743061   -0.322655
     17          1           0        3.915608    2.394013    1.354130
     18          1           0        1.507043    2.964807    0.896213
     19          1           0        1.914509    3.315838   -0.790100
     20          1           0        2.565753    4.331336    0.507573
     21          6           0       -0.970575   -1.892900    0.239749
     22          6           0       -0.780045   -0.536657   -0.044546
     23          6           0       -1.875620    0.321405   -0.178680
     24          6           0       -3.153569   -0.212841   -0.021456
     25          6           0       -3.375918   -1.559489    0.262074
     26          6           0       -2.265621   -2.399095    0.391882
     27          1           0       -0.113788   -2.552295    0.342267
     28          1           0        0.224564   -0.140774   -0.163218
     29          1           0       -1.756809    1.375431   -0.398523
     30          1           0       -4.389385   -1.924975    0.374868
     31          1           0       -2.416597   -3.451945    0.612695
     32          7           0       -4.321198    0.685782   -0.161168
     33          8           0       -5.436922    0.190502   -0.018008
     34          8           0       -4.098553    1.868388   -0.411190
 ---------------------------------------------------------------------

 SCF Done:  E(RHF) =  -669.535759502     A.U. after   15 cycles
 E2 =    -0.2091577685D+01 EUMP2 =    -0.67162733718739D+03

 The electronic state is 1-A.
 Alpha  occ. eigenvalues --  -20.60690 -20.60685 -15.85742 -11.31090 -11.27662
 Alpha  occ. eigenvalues --  -11.27634 -11.27386 -11.26678 -11.26582 -11.22625
 Alpha  occ. eigenvalues --  -11.22507 -11.22394 -11.22303 -11.21884 -11.21792
 Alpha  occ. eigenvalues --   -1.59766  -1.39320  -1.19256  -1.09395  -1.08654
 Alpha  occ. eigenvalues --   -1.04652  -1.04401  -0.96843  -0.95494  -0.87856
 Alpha  occ. eigenvalues --   -0.86054  -0.82327  -0.80475  -0.79273  -0.77366
 Alpha  occ. eigenvalues --   -0.71960  -0.71089  -0.70367  -0.66026  -0.64904
 Alpha  occ. eigenvalues --   -0.64650  -0.62017  -0.61776  -0.60213  -0.58468
 Alpha  occ. eigenvalues --   -0.56122  -0.55157  -0.53500  -0.53323  -0.52990
 Alpha  occ. eigenvalues --   -0.52701  -0.50775  -0.48799  -0.48717  -0.48706
 Alpha  occ. eigenvalues --   -0.47505  -0.46735  -0.46686  -0.44729  -0.44682
 Alpha  occ. eigenvalues --   -0.37240  -0.36257
 Alpha virt. eigenvalues --    0.05151   0.11357   0.16630   0.19585   0.22605
 Alpha virt. eigenvalues --    0.22968   0.25114   0.25784   0.26749   0.27775
 Alpha virt. eigenvalues --    0.29669   0.30324   0.30845   0.31288   0.31487

 Mulliken charges:
               1
     1  C   -0.297492
     2  C   -0.300928
     3  C   -0.475945
     4  H    0.154061
     5  H    0.152722
     6  H    0.152688
     7  H    0.144021
     8  H    0.157342
     9  H    0.158516
    10  H    0.160956
    11  C   -0.306860
    12  C   -0.299149
    13  C   -0.478494
    14  H    0.149565
    15  H    0.145836
    16  H    0.155658
    17  H    0.155004
    18  H    0.153778
    19  H    0.155460
    20  H    0.166173
    21  C   -0.174017
    22  C   -0.227840
    23  C   -0.173906
    24  C    0.158935
    25  C   -0.171434
    26  C   -0.218449
    27  H    0.226051
    28  H    0.236882
    29  H    0.276151
    30  H    0.275164
    31  H    0.222896
    32  N    0.488034
    33  O   -0.460859
    34  O   -0.460520
 Sum of Mulliken charges =  -0.00000

 Dipole moment (field-independent basis, Debye):
    X=              4.4193    Y=             -3.0615    Z=              0.4873  Tot=              5.3982
 Quadrupole moment (field-independent basis, Debye-Ang):
   XX=           -118.6400   YY=            -90.8328   ZZ=            -94.5240
   XY=             12.7760   XZ=             -2.5497   YZ=             -0.9734

 Normal termination of Gaussian 16 at Wed May  5 23:41:36 2021.
