 Gaussian 16, Revision A.03,
 Gaussian 16:  EM64L-G16RevA.03 25-Dec-2016

 -------------
 #p 6-31g* mp2
 -------------

 ------------------------------------------------------
 Input file generated by CHIRIPA (05-May-2021 14:53:18)
 ------------------------------------------------------
 Symbolic Z-matrix:
 Charge =  0 Multiplicity = 1

                         Standard orientation:
 ---------------------------------------------------------------------
 Center     Atomic      Atomic             Coordinates (Angstroms)
 Number     Number       Type             X           Y           Z
 ---------------------------------------------------------------------
      1          6           0       -2.873461   -0.675681   -0.514533
      2          6           0       -3.687745   -1.521730    0.464818
      3          6           0       -3.648111   -3.013523    0.131988
      4          1           0       -3.254501   -0.835976   -1.532403
      5          1           0       -1.831756   -1.025308   -0.512073
      6          1           0       -4.727306   -1.169709    0.461537
      7          1           0       -3.304847   -1.359255    1.480498
      8          1           0       -2.618876   -3.386043    0.154507
      9          1           0       -4.049418   -3.195420   -0.870243
     10          1           0       -4.236714   -3.599634    0.844644
     11          6           0       -2.903356    0.817877   -0.194971
     12          6           0       -2.089072    1.663926   -1.174322
     13          6           0       -2.128707    3.155719   -0.841492
     14          1           0       -3.945061    1.167504   -0.197431
     15          1           0       -2.522317    0.978172    0.822899
     16          1           0       -2.471971    1.501451   -2.190002
     17          1           0       -1.049511    1.311905   -1.171041
     18          1           0       -1.727399    3.337616    0.160739
     19          1           0       -3.157941    3.528239   -0.864012
     20          1           0       -1.540103    3.741830   -1.554149
     21          6           0        0.511201    1.314290    1.478468
     22          6           0        1.687027    1.921019    1.024781
     23          6           0        2.660963    1.171792    0.357955
     24          6           0        2.425305   -0.187976    0.161012
     25          6           0        1.264070   -0.821314    0.601131
     26          6           0        0.303840   -0.052531    1.265571
     27          1           0       -0.240053    1.903903    1.995547
     28          1           0        1.850753    2.982322    1.188716
     29          1           0        3.580311    1.616055   -0.003775
     30          1           0        1.129180   -1.881251    0.422928
     31          1           0       -0.608372   -0.526392    1.616809
     32          7           0        3.449112   -0.991500   -0.543664
     33          8           0        3.217587   -2.187788   -0.704689
     34          8           0        4.463712   -0.409801   -0.921620
 ---------------------------------------------------------------------

 SCF Done:  E(RHF) =  -669.533434477     A.U. after   15 cycles
 E2 =    -0.2096250641D+01 EUMP2 =    -0.67162968511762D+03

 The electronic state is 1-A.
 Alpha  occ. eigenvalues --  -20.60832 -20.60826 -15.85886 -11.31290 -11.27850
 Alpha  occ. eigenvalues --  -11.27847 -11.27576 -11.26875 -11.26832 -11.22422
 Alpha  occ. eigenvalues --  -11.22210 -11.22087 -11.22071 -11.21782 -11.21714
 Alpha  occ. eigenvalues --   -1.59906  -1.39459  -1.19473  -1.09238  -1.08811
 Alpha  occ. eigenvalues --   -1.04874  -1.04227  -0.96693  -0.95684  -0.87704
 Alpha  occ. eigenvalues --   -0.86270  -0.82518  -0.80283  -0.78995  -0.77562
 Alpha  occ. eigenvalues --   -0.72104  -0.71230  -0.70597  -0.66173  -0.65118
 Alpha  occ. eigenvalues --   -0.64627  -0.62202  -0.61644  -0.60044  -0.58288
 Alpha  occ. eigenvalues --   -0.56060  -0.55312  -0.53383  -0.53159  -0.53108
 Alpha  occ. eigenvalues --   -0.52920  -0.50648  -0.48865  -0.48856  -0.48590
 Alpha  occ. eigenvalues --   -0.47325  -0.46545  -0.46428  -0.44856  -0.44486
 Alpha  occ. eigenvalues --   -0.37383  -0.36422
 Alpha virt. eigenvalues --    0.04920   0.11102   0.16232   0.18769   0.22169
 Alpha virt. eigenvalues --    0.23792   0.25114   0.26125   0.26726   0.28501
 Alpha virt. eigenvalues --    0.29234   0.30490   0.31081   0.31713   0.32069

 Mulliken charges:
               1
     1  C   -0.304845
     2  C   -0.302112
     3  C   -0.475092
     4  H    0.155969
     5  H    0.149529
     6  H    0.156011
     7  H    0.143720
     8  H    0.153266
     9  H    0.159434
    10  H    0.162711
    11  C   -0.296519
    12  C   -0.304571
    13  C   -0.474428
    14  H    0.152980
    15  H    0.135380
    16  H    0.155115
    17  H    0.162099
    18  H    0.143995
    19  H    0.156964
    20  H    0.163208
    21  C   -0.170740
    22  C   -0.218601
    23  C   -0.171206
    24  C    0.158731
    25  C   -0.173782
    26  C   -0.218902
    27  H    0.226893
    28  H    0.224463
    29  H    0.276120
    30  H    0.275902
    31  H    0.230317
    32  N    0.488111
    33  O   -0.460047
    34  O   -0.460073
 Sum of Mulliken charges =  -0.00000

 Dipole moment (field-independent basis, Debye):
    X=             -3.6156    Y=              2.7927    Z=              2.3411  Tot=              5.1334
 Quadrupole moment (field-independent basis, Debye-Ang):
   XX=           -110.1125   YY=            -93.8783   ZZ=            -94.2901
   XY=             10.4541   XZ=              6.0513   YZ=             -0.6728

 Normal termination of Gaussian 16 at Thu May  6 14:01:03 2021.
