 Gaussian 16, Revision A.03,
 Gaussian 16:  EM64L-G16RevA.03 25-Dec-2016

 -------------
 #p 6-31g* mp2
 -------------

 ------------------------------------------------------
 Input file generated by CHIRIPA (05-May-2021 14:51:14)
 ------------------------------------------------------
 Symbolic Z-matrix:
 Charge =  0 Multiplicity = 1

                         Standard orientation:
 ---------------------------------------------------------------------
 Center     Atomic      Atomic             Coordinates (Angstroms)
 Number     Number       Type             X           Y           Z
 ---------------------------------------------------------------------
      1          6           0       -1.793291   -0.576571    0.560128
      2          6           0       -2.434353   -1.742597    1.313392
      3          6           0       -1.460443   -2.438822    2.264478
      4          1           0       -0.926932   -0.945821   -0.005577
      5          1           0       -1.405311    0.151021    1.286403
      6          1           0       -2.822236   -2.467106    0.585898
      7          1           0       -3.299401   -1.370563    1.877217
      8          1           0       -1.082132   -1.734243    3.012175
      9          1           0       -0.602256   -2.837017    1.713518
     10          1           0       -1.939487   -3.269179    2.792573
     11          6           0       -2.754396    0.129496   -0.394584
     12          6           0       -2.113334    1.295523   -1.147849
     13          6           0       -3.087243    1.991747   -2.098935
     14          1           0       -3.142375   -0.598096   -1.120860
     15          1           0       -3.620755    0.498746    0.171120
     16          1           0       -1.248285    0.923489   -1.711674
     17          1           0       -1.725450    2.020032   -0.420354
     18          1           0       -3.945431    2.389942   -1.547975
     19          1           0       -3.465554    1.287169   -2.846632
     20          1           0       -2.608200    2.822104   -2.627030
     21          6           0        1.837367    0.729025    0.287906
     22          6           0        2.633031    1.663821    1.199531
     23          6           0        1.745936    2.669344    1.934229
     24          1           0        1.277528    1.328717   -0.442775
     25          1           0        1.090772    0.190759    0.888125
     26          1           0        3.378828    2.199144    0.598007
     27          1           0        3.191189    1.061825    1.928006
     28          1           0        1.010860    2.150735    2.558175
     29          1           0        1.199565    3.294516    1.220619
     30          1           0        2.335167    3.327609    2.580259
     31          6           0        2.710321   -0.281950   -0.453449
     32          6           0        1.914656   -1.216747   -1.365074
     33          6           0        2.801751   -2.222270   -2.099772
     34          1           0        3.456914    0.256315   -1.053668
     35          1           0        3.270158   -0.881643    0.277232
     36          1           0        1.356497   -0.614750   -2.093548
     37          1           0        1.168858   -1.752070   -0.763549
     38          1           0        3.348122   -2.847442   -1.386162
     39          1           0        3.536827   -1.703660   -2.723718
     40          1           0        2.212520   -2.880534   -2.745802
 ---------------------------------------------------------------------

 SCF Done:  E(RHF) =  -470.731814636     A.U. after   11 cycles
 E2 =    -0.1585787855D+01 EUMP2 =    -0.47231760249116D+03

 The electronic state is 1-A.
 Alpha  occ. eigenvalues --  -11.21660 -11.21596 -11.21570 -11.21541 -11.21360
 Alpha  occ. eigenvalues --  -11.21357 -11.21261 -11.21192 -11.21139 -11.21113
 Alpha  occ. eigenvalues --  -11.21070 -11.21060  -1.08488  -1.08329  -1.03540
 Alpha  occ. eigenvalues --   -1.03526  -0.96002  -0.95951  -0.87004  -0.86989
 Alpha  occ. eigenvalues --   -0.79626  -0.79582  -0.78711  -0.77761  -0.65102
 Alpha  occ. eigenvalues --   -0.64998  -0.61031  -0.60837  -0.59371  -0.59326
 Alpha  occ. eigenvalues --   -0.57674  -0.57518  -0.55276  -0.55257  -0.52733
 Alpha  occ. eigenvalues --   -0.52655  -0.52448  -0.52368  -0.49957  -0.49900
 Alpha  occ. eigenvalues --   -0.48031  -0.47939  -0.46873  -0.46646  -0.46469
 Alpha  occ. eigenvalues --   -0.45629  -0.45557  -0.44695  -0.43777  -0.43733
 Alpha virt. eigenvalues --    0.20732   0.22468   0.22596   0.23650   0.25071
 Alpha virt. eigenvalues --    0.26660   0.26878   0.27861   0.28195   0.29292
 Alpha virt. eigenvalues --    0.30940   0.31574   0.31711   0.31803   0.32164

 Mulliken charges:
               1
     1  C   -0.309318
     2  C   -0.298739
     3  C   -0.477301
     4  H    0.161605
     5  H    0.150654
     6  H    0.151636
     7  H    0.151776
     8  H    0.154702
     9  H    0.154601
    10  H    0.161033
    11  C   -0.297237
    12  C   -0.303074
    13  C   -0.475635
    14  H    0.149043
    15  H    0.149237
    16  H    0.154442
    17  H    0.152973
    18  H    0.155235
    19  H    0.155052
    20  H    0.159770
    21  C   -0.307016
    22  C   -0.299263
    23  C   -0.476196
    24  H    0.152712
    25  H    0.158604
    26  H    0.151284
    27  H    0.151490
    28  H    0.154351
    29  H    0.155166
    30  H    0.160292
    31  C   -0.297670
    32  C   -0.306042
    33  C   -0.475044
    34  H    0.149111
    35  H    0.149298
    36  H    0.152471
    37  H    0.155018
    38  H    0.155472
    39  H    0.155544
    40  H    0.159961
 Sum of Mulliken charges =  -0.00000

 Dipole moment (field-independent basis, Debye):
    X=             -0.0061    Y=             -0.0133    Z=             -0.0058  Tot=              0.0157
 Quadrupole moment (field-independent basis, Debye-Ang):
   XX=            -85.4478   YY=            -85.0040   ZZ=            -84.5839
   XY=              0.6200   XZ=             -0.4386   YZ=             -0.0688

 Normal termination of Gaussian 16 at Wed May  5 20:01:33 2021.
