 Gaussian 16, Revision A.03,
 Gaussian 16:  EM64L-G16RevA.03 25-Dec-2016

 -------------
 #p 6-31g* mp2
 -------------

 ------------------------------------------------------
 Input file generated by CHIRIPA (05-May-2021 14:57:27)
 ------------------------------------------------------
 Symbolic Z-matrix:
 Charge =  0 Multiplicity = 1

                         Standard orientation:
 ---------------------------------------------------------------------
 Center     Atomic      Atomic             Coordinates (Angstroms)
 Number     Number       Type             X           Y           Z
 ---------------------------------------------------------------------
      1          6           0       -2.545104    2.623100   -0.048634
      2          6           0       -2.292285    1.932539    1.141210
      3          6           0       -2.595028    0.572052    1.250612
      4          6           0       -3.152282   -0.069468    0.145529
      5          6           0       -3.415931    0.591020   -1.053444
      6          6           0       -3.105133    1.951321   -1.140239
      7          1           0       -2.306797    3.679887   -0.124840
      8          1           0       -1.857426    2.451682    1.990582
      9          1           0       -2.409680    0.013147    2.159837
     10          1           0       -3.850119    0.046429   -1.883094
     11          1           0       -3.302563    2.485073   -2.065537
     12          7           0       -3.477046   -1.509656    0.249382
     13          8           0       -3.967397   -2.051971   -0.738590
     14          8           0       -3.235096   -2.068891    1.316787
     15          6           0        0.647051   -0.609567   -0.528395
     16          6           0        1.557892   -1.671106   -0.523657
     17          6           0        2.918631   -1.438114   -0.303086
     18          6           0        3.335778   -0.125193   -0.089743
     19          6           0        2.452775    0.953507   -0.088513
     20          6           0        1.096607    0.697049   -0.311190
     21          1           0       -0.408228   -0.799675   -0.700557
     22          1           0        1.211606   -2.686868   -0.692057
     23          1           0        3.645383   -2.241339   -0.294168
     24          1           0        2.827945    1.955242    0.082342
     25          1           0        0.391501    1.523402   -0.314319
     26          7           0        4.773913    0.133886    0.144880
     27          8           0        5.116113    1.299712    0.330314
     28          8           0        5.531690   -0.833778    0.138901
 ---------------------------------------------------------------------

 SCF Done:  E(RHF) =  -868.337416165     A.U. after   16 cycles
 E2 =    -0.2602739250D+01 EUMP2 =    -0.87094015541596D+03

 The electronic state is 1-A.
 Alpha  occ. eigenvalues --  -20.61962 -20.61952 -20.60760 -20.60748 -15.87014
 Alpha  occ. eigenvalues --  -15.85806 -11.32485 -11.31124 -11.29045 -11.29016
 Alpha  occ. eigenvalues --  -11.28777 -11.28055 -11.28037 -11.27706 -11.27643
 Alpha  occ. eigenvalues --  -11.27327 -11.26638 -11.26605  -1.61050  -1.59833
 Alpha  occ. eigenvalues --   -1.40588  -1.39388  -1.20703  -1.19276  -1.10063
 Alpha  occ. eigenvalues --   -1.08670  -1.06056  -1.04671  -0.96857  -0.95522
 Alpha  occ. eigenvalues --   -0.87439  -0.86060  -0.83647  -0.82361  -0.78687
 Alpha  occ. eigenvalues --   -0.77423  -0.73205  -0.72456  -0.72025  -0.71712
 Alpha  occ. eigenvalues --   -0.71156  -0.70364  -0.66292  -0.65994  -0.64920
 Alpha  occ. eigenvalues --   -0.64685  -0.63351  -0.62041  -0.56518  -0.55320
 Alpha  occ. eigenvalues --   -0.54306  -0.54090  -0.53003  -0.52694  -0.49985
 Alpha  occ. eigenvalues --   -0.49964  -0.48787  -0.48778  -0.45951  -0.44805
 Alpha  occ. eigenvalues --   -0.38681  -0.37867  -0.37059  -0.36252
 Alpha virt. eigenvalues --    0.03751   0.05089   0.09913   0.11366   0.15202
 Alpha virt. eigenvalues --    0.16648   0.20306   0.21544   0.26266   0.27076
 Alpha virt. eigenvalues --    0.27652   0.27726   0.30052   0.30939   0.31522

 Mulliken charges:
               1
     1  C   -0.178632
     2  C   -0.221309
     3  C   -0.170091
     4  C    0.147566
     5  C   -0.175675
     6  C   -0.216861
     7  H    0.231125
     8  H    0.230128
     9  H    0.281099
    10  H    0.279617
    11  H    0.229277
    12  N    0.487693
    13  O   -0.457879
    14  O   -0.456281
    15  C   -0.173281
    16  C   -0.219314
    17  C   -0.171340
    18  C    0.158634
    19  C   -0.173665
    20  C   -0.224517
    21  H    0.228287
    22  H    0.228768
    23  H    0.276031
    24  H    0.272096
    25  H    0.222656
    26  N    0.488048
    27  O   -0.462444
    28  O   -0.459738
 Sum of Mulliken charges =  -0.00000

 Dipole moment (field-independent basis, Debye):
    X=             -4.2818    Y=              4.1409    Z=             -1.1297  Tot=              6.0627
 Quadrupole moment (field-independent basis, Debye-Ang):
   XX=           -146.0340   YY=           -100.6247   ZZ=           -100.9138
   XY=            -20.2245   XZ=              0.6540   YZ=              1.4356

 Normal termination of Gaussian 16 at Thu May  6 11:33:01 2021.
