 Gaussian 16, Revision A.03,
 Gaussian 16:  EM64L-G16RevA.03 25-Dec-2016

 -------------
 #p 6-31g* mp2
 -------------

 ------------------------------------------------------
 Input file generated by CHIRIPA (05-May-2021 14:55:25)
 ------------------------------------------------------
 Symbolic Z-matrix:
 Charge =  0 Multiplicity = 1

                         Standard orientation:
 ---------------------------------------------------------------------
 Center     Atomic      Atomic             Coordinates (Angstroms)
 Number     Number       Type             X           Y           Z
 ---------------------------------------------------------------------
      1          6           0       -0.287553   -1.138568    0.408256
      2          6           0       -1.235237   -1.232221    1.432778
      3          6           0       -2.559018   -0.839693    1.213522
      4          6           0       -2.902041   -0.355935   -0.048066
      5          6           0       -1.980811   -0.250623   -1.088996
      6          6           0       -0.662704   -0.648931   -0.847148
      7          1           0        0.738588   -1.445738    0.587354
      8          1           0       -0.946734   -1.612102    2.408740
      9          1           0       -3.312953   -0.901605    1.988872
     10          1           0       -2.298373    0.132036   -2.051361
     11          1           0        0.071155   -0.575089   -1.644671
     12          7           0       -4.300465    0.062677   -0.292141
     13          8           0       -4.577368    0.485512   -1.412485
     14          8           0       -5.093168   -0.039978    0.641519
     15          6           0        4.108360    0.231180   -0.096007
     16          6           0        4.072093   -1.293749   -0.202121
     17          6           0        5.457587   -1.904697   -0.414116
     18          1           0        4.557488    0.645338   -1.009080
     19          1           0        4.767774    0.518385    0.734704
     20          1           0        3.411853   -1.578026   -1.031510
     21          1           0        3.622824   -1.704315    0.711230
     22          1           0        6.122328   -1.649934    0.417639
     23          1           0        5.910159   -1.522929   -1.335004
     24          1           0        5.408396   -2.995612   -0.487216
     25          6           0        2.730841    0.856633    0.116075
     26          6           0        2.767110    2.381562    0.222189
     27          6           0        1.381615    2.992509    0.434185
     28          1           0        2.071427    0.569427   -0.714636
     29          1           0        2.281713    0.442475    1.029148
     30          1           0        3.216378    2.792127   -0.691162
     31          1           0        3.427348    2.665840    1.051578
     32          1           0        0.929043    2.610741    1.355072
     33          1           0        0.716874    2.737748   -0.397570
     34          1           0        1.430806    4.083425    0.507284
 ---------------------------------------------------------------------

 SCF Done:  E(RHF) =  -669.534155052     A.U. after   15 cycles
 E2 =    -0.2093796614D+01 EUMP2 =    -0.67162795166596D+03

 The electronic state is 1-A.
 Alpha  occ. eigenvalues --  -20.60700 -20.60695 -15.85756 -11.31097 -11.27694
 Alpha  occ. eigenvalues --  -11.27690 -11.27347 -11.26675 -11.26664 -11.22791
 Alpha  occ. eigenvalues --  -11.22432 -11.22340 -11.22307 -11.21970 -11.21562
 Alpha  occ. eigenvalues --   -1.59777  -1.39331  -1.19281  -1.09424  -1.08661
 Alpha  occ. eigenvalues --   -1.04693  -1.04388  -0.96814  -0.95507  -0.87826
 Alpha  occ. eigenvalues --   -0.86093  -0.82355  -0.80487  -0.79301  -0.77398
 Alpha  occ. eigenvalues --   -0.71974  -0.71101  -0.70365  -0.66071  -0.64929
 Alpha  occ. eigenvalues --   -0.64700  -0.62065  -0.61771  -0.60197  -0.58442
 Alpha  occ. eigenvalues --   -0.56102  -0.55178  -0.53475  -0.53266  -0.52986
 Alpha  occ. eigenvalues --   -0.52787  -0.50750  -0.48787  -0.48730  -0.48728
 Alpha  occ. eigenvalues --   -0.47531  -0.46716  -0.46687  -0.44743  -0.44669
 Alpha  occ. eigenvalues --   -0.37177  -0.36286
 Alpha virt. eigenvalues --    0.05127   0.11250   0.16532   0.19432   0.22679
 Alpha virt. eigenvalues --    0.23268   0.24099   0.25391   0.27106   0.28257
 Alpha virt. eigenvalues --    0.29908   0.30582   0.30941   0.31241   0.31644

 Mulliken charges:
               1
     1  C   -0.168656
     2  C   -0.222026
     3  C   -0.170061
     4  C    0.158048
     5  C   -0.171822
     6  C   -0.220463
     7  H    0.233279
     8  H    0.222743
     9  H    0.275240
    10  H    0.275097
    11  H    0.222475
    12  N    0.488152
    13  O   -0.460830
    14  O   -0.460786
    15  C   -0.297508
    16  C   -0.303112
    17  C   -0.475666
    18  H    0.152994
    19  H    0.153192
    20  H    0.147224
    21  H    0.147145
    22  H    0.158263
    23  H    0.158390
    24  H    0.162282
    25  C   -0.302035
    26  C   -0.300389
    27  C   -0.475777
    28  H    0.144979
    29  H    0.146261
    30  H    0.153611
    31  H    0.153997
    32  H    0.156666
    33  H    0.155980
    34  H    0.163115
 Sum of Mulliken charges =  -0.00000

 Dipole moment (field-independent basis, Debye):
    X=              5.1350    Y=             -1.3796    Z=              0.8809  Tot=              5.3896
 Quadrupole moment (field-independent basis, Debye-Ang):
   XX=           -123.8448   YY=            -94.2611   ZZ=            -89.5158
   XY=              3.4474   XZ=             -3.8067   YZ=             -1.6832

 Normal termination of Gaussian 16 at Thu May  6 03:15:38 2021.
