 Gaussian 16, Revision A.03,
 Gaussian 16:  EM64L-G16RevA.03 25-Dec-2016

 -------------
 #p 6-31g* mp2
 -------------

 ------------------------------------------------------
 Input file generated by CHIRIPA (05-May-2021 14:53:14)
 ------------------------------------------------------
 Symbolic Z-matrix:
 Charge =  0 Multiplicity = 1

                         Standard orientation:
 ---------------------------------------------------------------------
 Center     Atomic      Atomic             Coordinates (Angstroms)
 Number     Number       Type             X           Y           Z
 ---------------------------------------------------------------------
      1          6           0        3.793534   -0.415615   -0.405448
      2          6           0        4.160375   -1.638289    0.436266
      3          6           0        4.451862   -2.875313   -0.413794
      4          1           0        2.916303   -0.653123   -1.022700
      5          1           0        4.615684   -0.198091   -1.101255
      6          1           0        3.338364   -1.852607    1.131234
      7          1           0        5.036719   -1.397780    1.051728
      8          1           0        5.286187   -2.685532   -1.096792
      9          1           0        3.578181   -3.142944   -1.016834
     10          1           0        4.711896   -3.737592    0.208072
     11          6           0        3.499346    0.828966    0.430135
     12          6           0        3.132505    2.051640   -0.411579
     13          6           0        2.841019    3.288664    0.438481
     14          1           0        2.677196    0.611442    1.125942
     15          1           0        4.376577    1.066474    1.047387
     16          1           0        2.256161    1.811131   -1.027041
     17          1           0        3.954516    2.265958   -1.106547
     18          1           0        3.714699    3.556295    1.041521
     19          1           0        2.006694    3.098883    1.121479
     20          1           0        2.580984    4.150943   -0.183385
     21          6           0       -0.327140   -0.246514   -0.005885
     22          6           0       -1.066898   -1.401324    0.269236
     23          6           0       -2.464499   -1.365877    0.269891
     24          6           0       -3.092564   -0.153243   -0.010006
     25          6           0       -2.383391    1.014290   -0.287911
     26          6           0       -0.986585    0.955489   -0.283091
     27          1           0        0.758242   -0.283120   -0.004267
     28          1           0       -0.557441   -2.336207    0.484861
     29          1           0       -3.061783   -2.244923    0.479532
     30          1           0       -2.919462    1.931560   -0.499241
     31          1           0       -0.414657    1.853899   -0.497105
     32          7           0       -4.571722   -0.103355   -0.012211
     33          8           0       -5.101222    0.977360   -0.261853
     34          8           0       -5.173576   -1.145913    0.235743
 ---------------------------------------------------------------------

 SCF Done:  E(RHF) =  -669.534846032     A.U. after   15 cycles
 E2 =    -0.2093157419D+01 EUMP2 =    -0.67162800345099D+03

 The electronic state is 1-A.
 Alpha  occ. eigenvalues --  -20.60738 -20.60733 -15.85792 -11.31156 -11.27725
 Alpha  occ. eigenvalues --  -11.27720 -11.27400 -11.26734 -11.26717 -11.22915
 Alpha  occ. eigenvalues --  -11.22752 -11.22711 -11.22650 -11.22186 -11.22023
 Alpha  occ. eigenvalues --   -1.59814  -1.39368  -1.19326  -1.09733  -1.08713
 Alpha  occ. eigenvalues --   -1.04746  -1.04691  -0.97148  -0.95556  -0.88145
 Alpha  occ. eigenvalues --   -0.86127  -0.82394  -0.80767  -0.79514  -0.77439
 Alpha  occ. eigenvalues --   -0.72010  -0.71137  -0.70575  -0.66388  -0.64975
 Alpha  occ. eigenvalues --   -0.64685  -0.62269  -0.61917  -0.60495  -0.58739
 Alpha  occ. eigenvalues --   -0.56633  -0.55012  -0.53788  -0.53524  -0.53059
 Alpha  occ. eigenvalues --   -0.52814  -0.51094  -0.49062  -0.48769  -0.48765
 Alpha  occ. eigenvalues --   -0.47829  -0.47035  -0.46993  -0.44981  -0.44773
 Alpha  occ. eigenvalues --   -0.37295  -0.36336
 Alpha virt. eigenvalues --    0.05071   0.11278   0.16486   0.18023   0.21841
 Alpha virt. eigenvalues --    0.23794   0.25446   0.25831   0.26256   0.27828
 Alpha virt. eigenvalues --    0.29905   0.30595   0.30792   0.30928   0.32504

 Mulliken charges:
               1
     1  C   -0.304782
     2  C   -0.300311
     3  C   -0.476285
     4  H    0.143934
     5  H    0.157315
     6  H    0.147469
     7  H    0.157159
     8  H    0.158789
     9  H    0.153962
    10  H    0.163789
    11  C   -0.306486
    12  C   -0.303246
    13  C   -0.478625
    14  H    0.145453
    15  H    0.158537
    16  H    0.144785
    17  H    0.158985
    18  H    0.160889
    19  H    0.154871
    20  H    0.163427
    21  C   -0.180326
    22  C   -0.222279
    23  C   -0.170537
    24  C    0.158409
    25  C   -0.170492
    26  C   -0.226895
    27  H    0.243294
    28  H    0.223434
    29  H    0.275467
    30  H    0.275666
    31  H    0.227665
    32  N    0.487918
    33  O   -0.460458
    34  O   -0.460491
 Sum of Mulliken charges =  -0.00000

 Dipole moment (field-independent basis, Debye):
    X=              5.5452    Y=             -0.1292    Z=              0.0239  Tot=              5.5468
 Quadrupole moment (field-independent basis, Debye-Ang):
   XX=           -125.1220   YY=            -90.3539   ZZ=            -95.5677
   XY=              0.5570   XZ=             -0.0158   YZ=             -1.7167

 Normal termination of Gaussian 16 at Thu May  6 18:48:23 2021.
