 Gaussian 16, Revision A.03,
 Gaussian 16:  EM64L-G16RevA.03 25-Dec-2016

 -------------
 #p 6-31g* mp2
 -------------

 ------------------------------------------------------
 Input file generated by CHIRIPA (05-May-2021 14:53:16)
 ------------------------------------------------------
 Symbolic Z-matrix:
 Charge =  0 Multiplicity = 1

                         Standard orientation:
 ---------------------------------------------------------------------
 Center     Atomic      Atomic             Coordinates (Angstroms)
 Number     Number       Type             X           Y           Z
 ---------------------------------------------------------------------
      1          6           0       -4.630655    0.167739   -0.615274
      2          6           0       -5.488928   -0.804070    0.195244
      3          6           0       -6.779079   -1.196013   -0.525648
      4          1           0       -5.217916    1.069746   -0.835394
      5          1           0       -4.386055   -0.290054   -1.583774
      6          1           0       -5.730681   -0.345136    1.162482
      7          1           0       -4.899492   -1.703788    0.413623
      8          1           0       -6.554481   -1.677396   -1.482950
      9          1           0       -7.390393   -0.311025   -0.729836
     10          1           0       -7.377364   -1.891190    0.071548
     11          6           0       -3.337498    0.568911    0.092209
     12          6           0       -2.479225    1.540721   -0.718308
     13          6           0       -1.189074    1.932663    0.002584
     14          1           0       -3.582099    1.026704    1.060709
     15          1           0       -2.750237   -0.333096    0.312329
     16          1           0       -3.068661    2.440438   -0.936688
     17          1           0       -2.237472    1.081786   -1.685547
     18          1           0       -0.577761    1.047675    0.206771
     19          1           0       -1.413673    2.414046    0.959885
     20          1           0       -0.590789    2.627840   -0.594613
     21          6           0        1.155450   -0.463282    1.786989
     22          6           0        1.847639    0.745662    1.661086
     23          6           0        2.933523    0.854417    0.787257
     24          6           0        3.301766   -0.270785    0.051316
     25          6           0        2.632145   -1.489069    0.154670
     26          6           0        1.549219   -1.574829    1.034705
     27          1           0        0.313058   -0.538834    2.468212
     28          1           0        1.544060    1.610544    2.244064
     29          1           0        3.487060    1.778178    0.670299
     30          1           0        2.958233   -2.333938   -0.439703
     31          1           0        1.013508   -2.514985    1.130441
     32          7           0        4.449778   -0.167823   -0.877053
     33          8           0        4.754389   -1.173721   -1.514247
     34          8           0        5.023239    0.916828   -0.949936
 ---------------------------------------------------------------------

 SCF Done:  E(RHF) =  -669.534264708     A.U. after   15 cycles
 E2 =    -0.2092771915D+01 EUMP2 =    -0.67162703662323D+03

 The electronic state is 1-A.
 Alpha  occ. eigenvalues --  -20.60788 -20.60782 -15.85841 -11.31224 -11.27796
 Alpha  occ. eigenvalues --  -11.27761 -11.27504 -11.26827 -11.26770 -11.22053
 Alpha  occ. eigenvalues --  -11.22017 -11.21932 -11.21812 -11.21438 -11.21426
 Alpha  occ. eigenvalues --   -1.59863  -1.39416  -1.19405  -1.08905  -1.08795
 Alpha  occ. eigenvalues --   -1.04803  -1.03959  -0.96423  -0.95624  -0.87449
 Alpha  occ. eigenvalues --   -0.86193  -0.82451  -0.80038  -0.78728  -0.77492
 Alpha  occ. eigenvalues --   -0.72059  -0.71186  -0.70503  -0.65529  -0.65050
 Alpha  occ. eigenvalues --   -0.64797  -0.62141  -0.61370  -0.59782  -0.58051
 Alpha  occ. eigenvalues --   -0.55784  -0.55297  -0.53456  -0.53067  -0.52886
 Alpha  occ. eigenvalues --   -0.52598  -0.50315  -0.48819  -0.48813  -0.48342
 Alpha  occ. eigenvalues --   -0.47058  -0.46266  -0.46189  -0.44818  -0.44229
 Alpha  occ. eigenvalues --   -0.37285  -0.36369
 Alpha virt. eigenvalues --    0.05005   0.11216   0.16417   0.20999   0.22524
 Alpha virt. eigenvalues --    0.24011   0.25957   0.26742   0.26944   0.28006
 Alpha virt. eigenvalues --    0.28752   0.30353   0.31400   0.31573   0.31708

 Mulliken charges:
               1
     1  C   -0.298449
     2  C   -0.299567
     3  C   -0.475922
     4  H    0.151389
     5  H    0.151102
     6  H    0.151440
     7  H    0.149837
     8  H    0.156130
     9  H    0.156278
    10  H    0.160739
    11  C   -0.297686
    12  C   -0.299114
    13  C   -0.484783
    14  H    0.147522
    15  H    0.144161
    16  H    0.152925
    17  H    0.154512
    18  H    0.165288
    19  H    0.146953
    20  H    0.162167
    21  C   -0.175596
    22  C   -0.213198
    23  C   -0.171216
    24  C    0.158920
    25  C   -0.171235
    26  C   -0.218397
    27  H    0.227667
    28  H    0.225511
    29  H    0.275828
    30  H    0.275717
    31  H    0.223638
    32  N    0.488043
    33  O   -0.460432
    34  O   -0.460172
 Sum of Mulliken charges =  -0.00000

 Dipole moment (field-independent basis, Debye):
    X=             -4.0310    Y=             -0.3714    Z=              3.2412  Tot=              5.1858
 Quadrupole moment (field-independent basis, Debye-Ang):
   XX=           -122.7126   YY=            -89.6541   ZZ=            -94.7029
   XY=             -0.0491   XZ=             10.4711   YZ=              0.6857

 Normal termination of Gaussian 16 at Wed May  5 23:33:35 2021.
