 Gaussian 16, Revision A.03,
 Gaussian 16:  EM64L-G16RevA.03 25-Dec-2016

 -------------
 #p 6-31g* mp2
 -------------

 ------------------------------------------------------
 Input file generated by CHIRIPA (05-May-2021 14:51:08)
 ------------------------------------------------------
 Symbolic Z-matrix:
 Charge =  0 Multiplicity = 1

                         Standard orientation:
 ---------------------------------------------------------------------
 Center     Atomic      Atomic             Coordinates (Angstroms)
 Number     Number       Type             X           Y           Z
 ---------------------------------------------------------------------
      1          6           0        2.449375   -0.708115    0.942944
      2          6           0        1.001502   -1.170827    0.776968
      3          6           0        0.425282   -1.779892    2.055562
      4          1           0        3.066884   -1.561534    1.254878
      5          1           0        2.500540    0.028657    1.756544
      6          1           0        0.952861   -1.905478   -0.036997
      7          1           0        0.387403   -0.316249    0.465208
      8          1           0        0.444647   -1.050964    2.872196
      9          1           0        1.013317   -2.649223    2.367138
     10          1           0       -0.610572   -2.103876    1.914491
     11          6           0        3.039388   -0.096957   -0.326740
     12          6           0        4.487260    0.365755   -0.160764
     13          6           0        5.063481    0.974820   -1.439358
     14          1           0        2.988222   -0.833729   -1.140340
     15          1           0        2.421879    0.756462   -0.638674
     16          1           0        5.101359   -0.488823    0.150997
     17          1           0        4.535902    1.100406    0.653201
     18          1           0        4.475445    1.844151   -1.750934
     19          1           0        5.044116    0.245892   -2.255992
     20          1           0        6.099334    1.298804   -1.298286
     21          6           0       -2.784176    0.949386    0.223690
     22          6           0       -2.352345    2.324409   -0.287015
     23          6           0       -2.437449    3.407934    0.788403
     24          1           0       -3.813677    1.012507    0.601958
     25          1           0       -2.153639    0.668939    1.078773
     26          1           0       -2.982602    2.601571   -1.141752
     27          1           0       -1.323819    2.257963   -0.664287
     28          1           0       -1.795071    3.157835    1.638934
     29          1           0       -3.463279    3.503395    1.158757
     30          1           0       -2.124237    4.382764    0.401797
     31          6           0       -2.704587   -0.144314   -0.839894
     32          6           0       -3.136416   -1.519337   -0.329189
     33          6           0       -3.051314   -2.602862   -1.404608
     34          1           0       -3.335124    0.136133   -1.694978
     35          1           0       -1.675085   -0.207435   -1.218162
     36          1           0       -4.164943   -1.452891    0.048083
     37          1           0       -2.506160   -1.796499    0.525547
     38          1           0       -2.025485   -2.698323   -1.774961
     39          1           0       -3.693693   -2.352763   -2.255138
     40          1           0       -3.364526   -3.577692   -1.018001
 ---------------------------------------------------------------------

 SCF Done:  E(RHF) =  -470.732980357     A.U. after   11 cycles
 E2 =    -0.1584261463D+01 EUMP2 =    -0.47231724181976D+03

 The electronic state is 1-A.
 Alpha  occ. eigenvalues --  -11.21693 -11.21646 -11.21627 -11.21566 -11.21474
 Alpha  occ. eigenvalues --  -11.21414 -11.21384 -11.21313 -11.21152 -11.21104
 Alpha  occ. eigenvalues --  -11.21096 -11.21053  -1.08518  -1.08406  -1.03611
 Alpha  occ. eigenvalues --   -1.03518  -0.96049  -0.95974  -0.87067  -0.86989
 Alpha  occ. eigenvalues --   -0.79692  -0.79571  -0.78323  -0.78227  -0.65280
 Alpha  occ. eigenvalues --   -0.64959  -0.61022  -0.60953  -0.59435  -0.59291
 Alpha  occ. eigenvalues --   -0.57656  -0.57571  -0.55393  -0.55205  -0.52776
 Alpha  occ. eigenvalues --   -0.52666  -0.52499  -0.52376  -0.49987  -0.49906
 Alpha  occ. eigenvalues --   -0.48052  -0.47884  -0.46720  -0.46582  -0.45993
 Alpha  occ. eigenvalues --   -0.45809  -0.45678  -0.45547  -0.43829  -0.43772
 Alpha virt. eigenvalues --    0.19462   0.22813   0.23453   0.24659   0.25630
 Alpha virt. eigenvalues --    0.26258   0.26744   0.27772   0.28980   0.29618
 Alpha virt. eigenvalues --    0.29697   0.30858   0.31704   0.31877   0.32539

 Mulliken charges:
               1
     1  C   -0.298090
     2  C   -0.305471
     3  C   -0.481554
     4  H    0.150095
     5  H    0.149673
     6  H    0.152083
     7  H    0.157271
     8  H    0.155238
     9  H    0.155952
    10  H    0.165456
    11  C   -0.298343
    12  C   -0.299705
    13  C   -0.475782
    14  H    0.149640
    15  H    0.149182
    16  H    0.152128
    17  H    0.152079
    18  H    0.155279
    19  H    0.155276
    20  H    0.160448
    21  C   -0.301167
    22  C   -0.300233
    23  C   -0.475583
    24  H    0.149945
    25  H    0.151671
    26  H    0.152350
    27  H    0.151217
    28  H    0.154819
    29  H    0.155453
    30  H    0.160223
    31  C   -0.300134
    32  C   -0.306668
    33  C   -0.475748
    34  H    0.149445
    35  H    0.152709
    36  H    0.151832
    37  H    0.158371
    38  H    0.155509
    39  H    0.155198
    40  H    0.159937
 Sum of Mulliken charges =  -0.00000

 Dipole moment (field-independent basis, Debye):
    X=              0.0239    Y=             -0.0092    Z=              0.0076  Tot=              0.0267
 Quadrupole moment (field-independent basis, Debye-Ang):
   XX=            -84.0312   YY=            -84.8992   ZZ=            -85.7821
   XY=             -0.7876   XZ=              0.6308   YZ=             -0.0096

 Normal termination of Gaussian 16 at Thu May  6 10:01:27 2021.
