 Gaussian 16, Revision A.03,
 Gaussian 16:  EM64L-G16RevA.03 25-Dec-2016

 -------------
 #p 6-31g* mp2
 -------------

 ------------------------------------------------------
 Input file generated by CHIRIPA (05-May-2021 14:57:22)
 ------------------------------------------------------
 Symbolic Z-matrix:
 Charge =  0 Multiplicity = 1

                         Standard orientation:
 ---------------------------------------------------------------------
 Center     Atomic      Atomic             Coordinates (Angstroms)
 Number     Number       Type             X           Y           Z
 ---------------------------------------------------------------------
      1          6           0       -2.826909    2.226412    0.780968
      2          6           0       -4.060561    2.161035    0.124957
      3          6           0       -4.606478    0.926597   -0.239299
      4          6           0       -3.888492   -0.227753    0.069347
      5          6           0       -2.657170   -0.195375    0.722102
      6          6           0       -2.130379    1.050072    1.076925
      7          1           0       -2.410256    3.189630    1.060267
      8          1           0       -4.603717    3.072963   -0.106161
      9          1           0       -5.559586    0.847078   -0.747906
     10          1           0       -2.139131   -1.121648    0.939065
     11          1           0       -1.172104    1.097815    1.586313
     12          7           0       -4.456306   -1.540425   -0.311281
     13          8           0       -3.803998   -2.542872   -0.028028
     14          8           0       -5.542915   -1.541996   -0.885663
     15          6           0        6.056974   -1.024219    0.287991
     16          6           0        5.965779    0.272517   -0.228420
     17          6           0        4.717717    0.856345   -0.465138
     18          6           0        3.576221    0.111529   -0.172691
     19          6           0        3.634308   -1.182484    0.342522
     20          6           0        4.893000   -1.746308    0.571315
     21          1           0        7.030627   -1.469980    0.468801
     22          1           0        6.868053    0.835648   -0.449393
     23          1           0        4.618199    1.858431   -0.864309
     24          1           0        2.717139   -1.719106    0.552893
     25          1           0        4.960793   -2.753559    0.972432
     26          7           0        2.249327    0.719013   -0.419098
     27          8           0        1.258642    0.041946   -0.153088
     28          8           0        2.225117    1.860722   -0.873575
 ---------------------------------------------------------------------

 SCF Done:  E(RHF) =  -868.339579051     A.U. after   16 cycles
 E2 =    -0.2598582530D+01 EUMP2 =    -0.87093816158135D+03

 The electronic state is 1-A.
 Alpha  occ. eigenvalues --  -20.61514 -20.61487 -20.59875 -20.59870 -15.86537
 Alpha  occ. eigenvalues --  -15.84917 -11.31683 -11.30037 -11.28226 -11.28220
 Alpha  occ. eigenvalues --  -11.27922 -11.27191 -11.27175 -11.26615 -11.26488
 Alpha  occ. eigenvalues --  -11.26247 -11.25622 -11.25398  -1.60571  -1.58953
 Alpha  occ. eigenvalues --   -1.40130  -1.38514  -1.19835  -1.18171  -1.09269
 Alpha  occ. eigenvalues --   -1.07618  -1.05203  -1.03520  -0.96140  -0.94498
 Alpha  occ. eigenvalues --   -0.86611  -0.84944  -0.82981  -0.81329  -0.78054
 Alpha  occ. eigenvalues --   -0.76409  -0.72764  -0.71881  -0.71148  -0.70938
 Alpha  occ. eigenvalues --   -0.70268  -0.69300  -0.65490  -0.65200  -0.63823
 Alpha  occ. eigenvalues --   -0.63523  -0.62552  -0.60879  -0.55708  -0.54062
 Alpha  occ. eigenvalues --   -0.53546  -0.53290  -0.51877  -0.51621  -0.49519
 Alpha  occ. eigenvalues --   -0.49486  -0.47911  -0.47879  -0.45580  -0.43974
 Alpha  occ. eigenvalues --   -0.37802  -0.36797  -0.36145  -0.35080
 Alpha virt. eigenvalues --    0.04447   0.06098   0.10860   0.12556   0.15980
 Alpha virt. eigenvalues --    0.17661   0.21028   0.22634   0.26959   0.27825
 Alpha virt. eigenvalues --    0.28613   0.29427   0.30646   0.32092   0.32220

 Mulliken charges:
               1
     1  C   -0.171039
     2  C   -0.218721
     3  C   -0.173251
     4  C    0.156989
     5  C   -0.168171
     6  C   -0.206591
     7  H    0.223810
     8  H    0.219090
     9  H    0.271315
    10  H    0.273869
    11  H    0.229717
    12  N    0.488376
    13  O   -0.463174
    14  O   -0.464104
    15  C   -0.169998
    16  C   -0.218533
    17  C   -0.170762
    18  C    0.157558
    19  C   -0.170817
    20  C   -0.218471
    21  H    0.227554
    22  H    0.224846
    23  H    0.275654
    24  H    0.275716
    25  H    0.225814
    26  N    0.488724
    27  O   -0.466191
    28  O   -0.459209
 Sum of Mulliken charges =  -0.00000

 Dipole moment (field-independent basis, Debye):
    X=              7.2035    Y=              2.5004    Z=              2.2428  Tot=              7.9481
 Quadrupole moment (field-independent basis, Debye-Ang):
   XX=            -84.1960   YY=           -103.7086   ZZ=           -105.1382
   XY=            -25.9938   XZ=             -1.8641   YZ=             -2.2263

 Normal termination of Gaussian 16 at Wed May  5 17:48:06 2021.
