 Gaussian 16, Revision A.03,
 Gaussian 16:  EM64L-G16RevA.03 25-Dec-2016

 -------------
 #p 6-31g* mp2
 -------------

 ------------------------------------------------------
 Input file generated by CHIRIPA (05-May-2021 14:57:26)
 ------------------------------------------------------
 Symbolic Z-matrix:
 Charge =  0 Multiplicity = 1

                         Standard orientation:
 ---------------------------------------------------------------------
 Center     Atomic      Atomic             Coordinates (Angstroms)
 Number     Number       Type             X           Y           Z
 ---------------------------------------------------------------------
      1          6           0       -0.881053   -1.969263   -0.112328
      2          6           0       -0.739087   -0.725437   -0.736240
      3          6           0       -1.790168    0.196371   -0.729478
      4          6           0       -2.974584   -0.160187   -0.086581
      5          6           0       -3.146659   -1.391534    0.543866
      6          6           0       -2.082268   -2.297762    0.524610
      7          1           0       -0.059378   -2.679294   -0.122433
      8          1           0        0.192647   -0.467613   -1.231662
      9          1           0       -1.707291    1.166275   -1.204700
     10          1           0       -4.087528   -1.620025    1.029639
     11          1           0       -2.195353   -3.263002    1.009965
     12          7           0       -4.094362    0.807443   -0.072810
     13          8           0       -5.127643    0.469236    0.500412
     14          8           0       -3.917560    1.885756   -0.635498
     15          6           0        3.253310   -2.128928   -0.305732
     16          6           0        3.177638   -1.247371   -1.389086
     17          6           0        2.921466    0.111360   -1.182272
     18          6           0        2.745242    0.556385    0.126997
     19          6           0        2.814699   -0.297090    1.227019
     20          6           0        3.071918   -1.651814    0.996567
     21          1           0        3.452717   -3.182867   -0.475571
     22          1           0        3.318092   -1.615099   -2.401555
     23          1           0        2.857643    0.815750   -2.002748
     24          1           0        2.670300    0.099042    2.224840
     25          1           0        3.130137   -2.334145    1.839822
     26          7           0        2.473490    1.992693    0.358454
     27          8           0        2.321941    2.359800    1.521597
     28          8           0        2.417184    2.724165   -0.627657
 ---------------------------------------------------------------------

 SCF Done:  E(RHF) =  -868.336513498     A.U. after   16 cycles
 E2 =    -0.2603337146D+01 EUMP2 =    -0.87093985064349D+03

 The electronic state is 1-A.
 Alpha  occ. eigenvalues --  -20.61594 -20.61573 -20.60547 -20.60526 -15.86648
 Alpha  occ. eigenvalues --  -15.85593 -11.32301 -11.31019 -11.28883 -11.28846
 Alpha  occ. eigenvalues --  -11.28706 -11.28012 -11.27962 -11.27631 -11.27542
 Alpha  occ. eigenvalues --  -11.27373 -11.26686 -11.26503  -1.60658  -1.59614
 Alpha  occ. eigenvalues --   -1.40202  -1.39164  -1.20541  -1.19203  -1.09863
 Alpha  occ. eigenvalues --   -1.08595  -1.05960  -1.04614  -0.96639  -0.95417
 Alpha  occ. eigenvalues --   -0.87320  -0.86017  -0.83445  -0.82251  -0.78443
 Alpha  occ. eigenvalues --   -0.77286  -0.72852  -0.72002  -0.71811  -0.71586
 Alpha  occ. eigenvalues --   -0.70937  -0.70338  -0.66149  -0.65905  -0.64855
 Alpha  occ. eigenvalues --   -0.64684  -0.63251  -0.62001  -0.56419  -0.55157
 Alpha  occ. eigenvalues --   -0.54413  -0.53996  -0.52933  -0.52533  -0.49636
 Alpha  occ. eigenvalues --   -0.49594  -0.48578  -0.48561  -0.45540  -0.44556
 Alpha  occ. eigenvalues --   -0.38560  -0.37656  -0.37102  -0.36192
 Alpha virt. eigenvalues --    0.04012   0.05260   0.09988   0.11395   0.15420
 Alpha virt. eigenvalues --    0.16744   0.20278   0.21699   0.26195   0.27072
 Alpha virt. eigenvalues --    0.27642   0.28463   0.30011   0.31287   0.31659

 Mulliken charges:
               1
     1  C   -0.174097
     2  C   -0.224328
     3  C   -0.173046
     4  C    0.159245
     5  C   -0.171160
     6  C   -0.219382
     7  H    0.219535
     8  H    0.229118
     9  H    0.280170
    10  H    0.274930
    11  H    0.220147
    12  N    0.487998
    13  O   -0.461794
    14  O   -0.457706
    15  C   -0.178431
    16  C   -0.218778
    17  C   -0.190874
    18  C    0.166070
    19  C   -0.167308
    20  C   -0.219390
    21  H    0.228622
    22  H    0.228334
    23  H    0.279387
    24  H    0.280870
    25  H    0.227370
    26  N    0.487632
    27  O   -0.454310
    28  O   -0.458822
 Sum of Mulliken charges =  -0.00000

 Dipole moment (field-independent basis, Debye):
    X=              5.1854    Y=             -8.2436    Z=             -0.7400  Tot=              9.7670
 Quadrupole moment (field-independent basis, Debye-Ang):
   XX=           -122.1639   YY=           -108.1592   ZZ=            -99.1946
   XY=             -2.0263   XZ=             -3.9333   YZ=             -3.7040

 Normal termination of Gaussian 16 at Fri May  7 02:00:03 2021.
