 Gaussian 16, Revision A.03,
 Gaussian 16:  EM64L-G16RevA.03 25-Dec-2016

 -------------
 #p 6-31g* mp2
 -------------

 ------------------------------------------------------
 Input file generated by CHIRIPA (05-May-2021 14:55:23)
 ------------------------------------------------------
 Symbolic Z-matrix:
 Charge =  0 Multiplicity = 1

                         Standard orientation:
 ---------------------------------------------------------------------
 Center     Atomic      Atomic             Coordinates (Angstroms)
 Number     Number       Type             X           Y           Z
 ---------------------------------------------------------------------
      1          6           0       -5.294997   -1.502922    0.093599
      2          6           0       -4.124308   -2.050889   -0.440947
      3          6           0       -2.951369   -1.292994   -0.506961
      4          6           0       -2.984949    0.015427   -0.027173
      5          6           0       -4.135567    0.589641    0.511014
      6          6           0       -5.296887   -0.186726    0.567039
      7          1           0       -6.201651   -2.098848    0.141000
      8          1           0       -4.119908   -3.072793   -0.809375
      9          1           0       -2.031147   -1.692276   -0.915842
     10          1           0       -4.109062    1.611188    0.870399
     11          1           0       -6.204601    0.241446    0.982693
     12          7           0       -1.749362    0.827554   -0.091771
     13          8           0       -1.805026    1.977858    0.337576
     14          8           0       -0.748640    0.298418   -0.570527
     15          6           0        3.702022    0.651104   -0.414719
     16          6           0        2.797202    1.588993    0.385064
     17          6           0        2.044943    2.582487   -0.500863
     18          1           0        4.421658    1.248981   -0.990577
     19          1           0        3.093901    0.102881   -1.147545
     20          1           0        3.406633    2.134271    1.117103
     21          1           0        2.079762    0.988806    0.959233
     22          1           0        1.413163    2.053914   -1.222020
     23          1           0        2.747573    3.205887   -1.063254
     24          1           0        1.404117    3.243184    0.091321
     25          6           0        4.460765   -0.347945    0.457027
     26          6           0        5.365585   -1.285833   -0.342755
     27          6           0        6.117845   -2.279328    0.543172
     28          1           0        5.068886    0.200278    1.189854
     29          1           0        3.741129   -0.945822    1.032885
     30          1           0        6.083026   -0.685648   -0.916925
     31          1           0        4.756154   -1.831112   -1.074795
     32          1           0        5.415215   -2.902729    1.105562
     33          1           0        6.749625   -1.750755    1.264328
     34          1           0        6.758671   -2.940025   -0.049012
 ---------------------------------------------------------------------

 SCF Done:  E(RHF) =  -669.536447166     A.U. after   15 cycles
 E2 =    -0.2091668033D+01 EUMP2 =    -0.67162811519888D+03

 The electronic state is 1-A.
 Alpha  occ. eigenvalues --  -20.61066 -20.61061 -15.86078 -11.31370 -11.27927
 Alpha  occ. eigenvalues --  -11.27921 -11.27655 -11.26923 -11.26913 -11.20828
 Alpha  occ. eigenvalues --  -11.20473 -11.20371 -11.20026 -11.19858 -11.18882
 Alpha  occ. eigenvalues --   -1.60107  -1.39666  -1.19531  -1.08941  -1.07228
 Alpha  occ. eigenvalues --   -1.04922  -1.02214  -0.95790  -0.94660  -0.86324
 Alpha  occ. eigenvalues --   -0.85689  -0.82623  -0.78378  -0.77680  -0.76955
 Alpha  occ. eigenvalues --   -0.72298  -0.71416  -0.70639  -0.65188  -0.64926
 Alpha  occ. eigenvalues --   -0.63860  -0.62269  -0.59600  -0.58156  -0.56252
 Alpha  occ. eigenvalues --   -0.55431  -0.53967  -0.53255  -0.53011  -0.51357
 Alpha  occ. eigenvalues --   -0.51109  -0.49207  -0.49036  -0.48405  -0.46652
 Alpha  occ. eigenvalues --   -0.45440  -0.45080  -0.44499  -0.44326  -0.42479
 Alpha  occ. eigenvalues --   -0.37508  -0.36521
 Alpha virt. eigenvalues --    0.04835   0.11135   0.16341   0.21268   0.23950
 Alpha virt. eigenvalues --    0.25719   0.27196   0.27755   0.28211   0.28611
 Alpha virt. eigenvalues --    0.29398   0.30862   0.32335   0.32705   0.32749

 Mulliken charges:
               1
     1  C   -0.170444
     2  C   -0.218536
     3  C   -0.170736
     4  C    0.158133
     5  C   -0.170605
     6  C   -0.218578
     7  H    0.226279
     8  H    0.224063
     9  H    0.275623
    10  H    0.276056
    11  H    0.224107
    12  N    0.489068
    13  O   -0.457792
    14  O   -0.460189
    15  C   -0.298220
    16  C   -0.296865
    17  C   -0.476189
    18  H    0.144607
    19  H    0.152753
    20  H    0.142429
    21  H    0.157933
    22  H    0.172900
    23  H    0.139829
    24  H    0.164095
    25  C   -0.297212
    26  C   -0.298561
    27  C   -0.474853
    28  H    0.146725
    29  H    0.148340
    30  H    0.150501
    31  H    0.150453
    32  H    0.153400
    33  H    0.154156
    34  H    0.157329
 Sum of Mulliken charges =  -0.00000

 Dipole moment (field-independent basis, Debye):
    X=             -4.8550    Y=             -2.8784    Z=              0.2045  Tot=              5.6479
 Quadrupole moment (field-independent basis, Debye-Ang):
   XX=            -69.3932   YY=            -92.7804   ZZ=            -95.0287
   XY=              7.3346   XZ=             -2.0937   YZ=              2.5124

 Normal termination of Gaussian 16 at Thu May  6 11:01:25 2021.
