 Gaussian 16, Revision A.03,
 Gaussian 16:  EM64L-G16RevA.03 25-Dec-2016

 -------------
 #p 6-31g* mp2
 -------------

 ------------------------------------------------------
 Input file generated by CHIRIPA (05-May-2021 14:53:17)
 ------------------------------------------------------
 Symbolic Z-matrix:
 Charge =  0 Multiplicity = 1

                         Standard orientation:
 ---------------------------------------------------------------------
 Center     Atomic      Atomic             Coordinates (Angstroms)
 Number     Number       Type             X           Y           Z
 ---------------------------------------------------------------------
      1          6           0        3.785794    0.206980   -0.517978
      2          6           0        4.606322   -0.628695    0.465061
      3          6           0        5.638961   -1.515565   -0.231296
      4          1           0        3.278226   -0.463594   -1.224837
      5          1           0        4.465516    0.832184   -1.113373
      6          1           0        3.925150   -1.251118    1.059376
      7          1           0        5.111843    0.043937    1.169780
      8          1           0        6.341503   -0.907253   -0.810080
      9          1           0        5.148067   -2.209667   -0.921112
     10          1           0        6.214268   -2.104231    0.490060
     11          6           0        2.749187    1.098790    0.163086
     12          6           0        1.928659    1.934466   -0.819953
     13          6           0        0.896020    2.821335   -0.123596
     14          1           0        2.069465    0.473587    0.758480
     15          1           0        3.256755    1.769365    0.869945
     16          1           0        1.423138    1.261833   -1.524672
     17          1           0        2.609831    2.556889   -1.414268
     18          1           0        1.386914    3.515437    0.566220
     19          1           0        0.193477    2.213023    0.455188
     20          1           0        0.320712    3.410001   -0.844952
     21          6           0       -4.861585    0.339561   -0.421043
     22          6           0       -4.203738    0.802344    0.723331
     23          6           0       -2.924263    0.338499    1.043238
     24          6           0       -2.329515   -0.592205    0.192737
     25          6           0       -2.959165   -1.072349   -0.954562
     26          6           0       -4.238297   -0.594661   -1.254867
     27          1           0       -5.855378    0.705263   -0.661941
     28          1           0       -4.685364    1.527865    1.372716
     29          1           0       -2.392233    0.679952    1.922882
     30          1           0       -2.453475   -1.795667   -1.582660
     31          1           0       -4.746805   -0.955828   -2.144261
     32          7           0       -0.975173   -1.090584    0.521033
     33          8           0       -0.472797   -1.910467   -0.244505
     34          8           0       -0.441663   -0.651893    1.537670
 ---------------------------------------------------------------------

 SCF Done:  E(RHF) =  -669.537013914     A.U. after   15 cycles
 E2 =    -0.2092393509D+01 EUMP2 =    -0.67162940742273D+03

 The electronic state is 1-A.
 Alpha  occ. eigenvalues --  -20.61153 -20.61136 -15.86135 -11.31376 -11.27923
 Alpha  occ. eigenvalues --  -11.27920 -11.27646 -11.26914 -11.26903 -11.20707
 Alpha  occ. eigenvalues --  -11.20442 -11.20395 -11.20188 -11.20113 -11.19989
 Alpha  occ. eigenvalues --   -1.60181  -1.39741  -1.19531  -1.08953  -1.07289
 Alpha  occ. eigenvalues --   -1.04914  -1.02550  -0.95809  -0.94997  -0.86321
 Alpha  occ. eigenvalues --   -0.86028  -0.82646  -0.78608  -0.77711  -0.77072
 Alpha  occ. eigenvalues --   -0.72358  -0.71490  -0.70641  -0.65190  -0.64918
 Alpha  occ. eigenvalues --   -0.63891  -0.62263  -0.59948  -0.58380  -0.56611
 Alpha  occ. eigenvalues --   -0.55424  -0.54288  -0.53242  -0.53005  -0.51764
 Alpha  occ. eigenvalues --   -0.51443  -0.49231  -0.49124  -0.48845  -0.46944
 Alpha  occ. eigenvalues --   -0.45740  -0.45186  -0.44645  -0.44253  -0.42744
 Alpha  occ. eigenvalues --   -0.37500  -0.36505
 Alpha virt. eigenvalues --    0.04766   0.11095   0.16252   0.21220   0.23900
 Alpha virt. eigenvalues --    0.25057   0.27035   0.27572   0.28146   0.28750
 Alpha virt. eigenvalues --    0.29044   0.30691   0.31702   0.32466   0.32758

 Mulliken charges:
               1
     1  C   -0.297236
     2  C   -0.300632
     3  C   -0.475351
     4  H    0.153572
     5  H    0.142650
     6  H    0.161399
     7  H    0.147707
     8  H    0.151242
     9  H    0.155986
    10  H    0.157438
    11  C   -0.310617
    12  C   -0.298647
    13  C   -0.478255
    14  H    0.178019
    15  H    0.143213
    16  H    0.150232
    17  H    0.147600
    18  H    0.153532
    19  H    0.156170
    20  H    0.153429
    21  C   -0.170242
    22  C   -0.218400
    23  C   -0.170849
    24  C    0.159017
    25  C   -0.170619
    26  C   -0.218498
    27  H    0.226385
    28  H    0.224403
    29  H    0.276451
    30  H    0.275830
    31  H    0.224132
    32  N    0.488534
    33  O   -0.458359
    34  O   -0.459235
 Sum of Mulliken charges =  -0.00000

 Dipole moment (field-independent basis, Debye):
    X=             -5.0788    Y=              1.5182    Z=             -1.0467  Tot=              5.4032
 Quadrupole moment (field-independent basis, Debye-Ang):
   XX=            -74.0975   YY=            -96.2362   ZZ=            -92.3108
   XY=             -0.6070   XZ=              2.5456   YZ=              3.7651

 Normal termination of Gaussian 16 at Thu May  6 10:41:09 2021.
