 Gaussian 16, Revision A.03,
 Gaussian 16:  EM64L-G16RevA.03 25-Dec-2016

 -------------
 #p 6-31g* mp2
 -------------

 ------------------------------------------------------
 Input file generated by CHIRIPA (05-May-2021 14:53:17)
 ------------------------------------------------------
 Symbolic Z-matrix:
 Charge =  0 Multiplicity = 1

                         Standard orientation:
 ---------------------------------------------------------------------
 Center     Atomic      Atomic             Coordinates (Angstroms)
 Number     Number       Type             X           Y           Z
 ---------------------------------------------------------------------
      1          6           0       -3.828060   -0.921786   -0.292159
      2          6           0       -2.396114   -0.890043    0.243105
      3          6           0       -1.501836   -1.951900   -0.397613
      4          1           0       -4.256264   -1.918207   -0.116854
      5          1           0       -3.808276   -0.777273   -1.381250
      6          1           0       -2.418694   -1.033191    1.331045
      7          1           0       -1.971336    0.106477    0.066677
      8          1           0       -1.449554   -1.808435   -1.481718
      9          1           0       -1.899454   -2.954579   -0.210167
     10          1           0       -0.482762   -1.911349   -0.000492
     11          6           0       -4.734212    0.133912    0.338806
     12          6           0       -6.166158    0.102169   -0.196458
     13          6           0       -7.060437    1.164027    0.444259
     14          1           0       -4.753997   -0.010601    1.427897
     15          1           0       -4.306008    1.130334    0.163501
     16          1           0       -6.590937   -0.894351   -0.020030
     17          1           0       -6.143578    0.245317   -1.284398
     18          1           0       -6.662818    2.166705    0.256813
     19          1           0       -7.112718    1.020561    1.528365
     20          1           0       -8.079510    1.123475    0.047139
     21          6           0        2.282115    2.578665   -0.301018
     22          6           0        1.530188    1.421007   -0.526747
     23          6           0        2.108545    0.157506   -0.373068
     24          6           0        3.447358    0.088221    0.009118
     25          6           0        4.222712    1.223206    0.241336
     26          6           0        3.623613    2.476251    0.081628
     27          1           0        1.824778    3.556122   -0.422741
     28          1           0        0.488156    1.497514   -0.824003
     29          1           0        1.549537   -0.754967   -0.541362
     30          1           0        5.259271    1.115019    0.536734
     31          1           0        4.209991    3.373600    0.257610
     32          7           0        4.070618   -1.243856    0.175003
     33          8           0        5.251964   -1.277946    0.512488
     34          8           0        3.365981   -2.228625   -0.035603
 ---------------------------------------------------------------------

 SCF Done:  E(RHF) =  -669.535501191     A.U. after   15 cycles
 E2 =    -0.2091334777D+01 EUMP2 =    -0.67162683596890D+03

 The electronic state is 1-A.
 Alpha  occ. eigenvalues --  -20.60741 -20.60736 -15.85793 -11.31148 -11.27728
 Alpha  occ. eigenvalues --  -11.27692 -11.27475 -11.26747 -11.26731 -11.22222
 Alpha  occ. eigenvalues --  -11.21958 -11.21870 -11.21796 -11.21618 -11.21390
 Alpha  occ. eigenvalues --   -1.59816  -1.39370  -1.19327  -1.08899  -1.08726
 Alpha  occ. eigenvalues --   -1.04731  -1.03996  -0.96436  -0.95560  -0.87450
 Alpha  occ. eigenvalues --   -0.86129  -0.82391  -0.80058  -0.78701  -0.77441
 Alpha  occ. eigenvalues --   -0.72012  -0.71138  -0.70449  -0.65536  -0.64980
 Alpha  occ. eigenvalues --   -0.64744  -0.62158  -0.61371  -0.59782  -0.58039
 Alpha  occ. eigenvalues --   -0.55715  -0.55234  -0.53226  -0.53056  -0.52917
 Alpha  occ. eigenvalues --   -0.52652  -0.50364  -0.48771  -0.48768  -0.48365
 Alpha  occ. eigenvalues --   -0.47099  -0.46245  -0.46163  -0.44777  -0.44241
 Alpha  occ. eigenvalues --   -0.37313  -0.36329
 Alpha virt. eigenvalues --    0.05079   0.11294   0.16555   0.19386   0.22700
 Alpha virt. eigenvalues --    0.23751   0.25396   0.26292   0.26692   0.28065
 Alpha virt. eigenvalues --    0.29158   0.29361   0.31194   0.31533   0.32121

 Mulliken charges:
               1
     1  C   -0.298735
     2  C   -0.300249
     3  C   -0.483839
     4  H    0.153063
     5  H    0.149255
     6  H    0.156611
     7  H    0.142351
     8  H    0.154188
     9  H    0.163300
    10  H    0.163847
    11  C   -0.298048
    12  C   -0.300011
    13  C   -0.475848
    14  H    0.151104
    15  H    0.146723
    16  H    0.153580
    17  H    0.151971
    18  H    0.154264
    19  H    0.155999
    20  H    0.161497
    21  C   -0.170802
    22  C   -0.222997
    23  C   -0.178723
    24  C    0.158984
    25  C   -0.170422
    26  C   -0.218725
    27  H    0.225476
    28  H    0.225728
    29  H    0.285479
    30  H    0.275500
    31  H    0.223302
    32  N    0.487348
    33  O   -0.460468
    34  O   -0.460706
 Sum of Mulliken charges =  -0.00000

 Dipole moment (field-independent basis, Debye):
    X=             -2.3385    Y=              4.5950    Z=             -0.5496  Tot=              5.1851
 Quadrupole moment (field-independent basis, Debye-Ang):
   XX=           -106.3503   YY=            -93.2582   ZZ=            -94.9068
   XY=             19.3261   XZ=             -0.7825   YZ=             -0.1819

 Normal termination of Gaussian 16 at Thu May  6 15:35:21 2021.
