 Gaussian 16, Revision A.03,
 Gaussian 16:  EM64L-G16RevA.03 25-Dec-2016

 -------------
 #p 6-31g* mp2
 -------------

 ------------------------------------------------------
 Input file generated by CHIRIPA (05-May-2021 14:53:18)
 ------------------------------------------------------
 Symbolic Z-matrix:
 Charge =  0 Multiplicity = 1

                         Standard orientation:
 ---------------------------------------------------------------------
 Center     Atomic      Atomic             Coordinates (Angstroms)
 Number     Number       Type             X           Y           Z
 ---------------------------------------------------------------------
      1          6           0       -3.546924   -0.748461   -0.458661
      2          6           0       -2.131076   -0.942452    0.085145
      3          6           0       -1.392679   -2.099783   -0.588019
      4          1           0       -4.116221   -1.677946   -0.321174
      5          1           0       -3.495070   -0.570995   -1.541811
      6          1           0       -2.185487   -1.118124    1.167178
      7          1           0       -1.565141   -0.012335   -0.053478
      8          1           0       -1.308873   -1.928223   -1.666047
      9          1           0       -1.932743   -3.040295   -0.438455
     10          1           0       -0.382640   -2.220636   -0.184191
     11          6           0       -4.297855    0.404831    0.204474
     12          6           0       -5.713703    0.598823   -0.339333
     13          6           0       -6.452100    1.756154    0.333831
     14          1           0       -4.349709    0.227366    1.287623
     15          1           0       -3.728558    1.334316    0.066987
     16          1           0       -6.279638   -0.331294   -0.200709
     17          1           0       -5.659292    0.774495   -1.421366
     18          1           0       -5.912036    2.696665    0.184267
     19          1           0       -6.535906    1.584593    1.411860
     20          1           0       -7.462139    1.877007   -0.069996
     21          6           0        2.297940   -2.219112    0.589493
     22          6           0        2.243269   -1.242536    1.589409
     23          6           0        2.665286    0.064623    1.329052
     24          6           0        3.138462    0.361743    0.051901
     25          6           0        3.205198   -0.589125   -0.965294
     26          6           0        2.777884   -1.889870   -0.682426
     27          1           0        1.968049   -3.232052    0.800488
     28          1           0        1.871001   -1.495371    2.578113
     29          1           0        2.633785    0.840171    2.084664
     30          1           0        3.581171   -0.306962   -1.941228
     31          1           0        2.821477   -2.646245   -1.460911
     32          7           0        3.588037    1.742178   -0.235643
     33          8           0        4.000788    1.978506   -1.368967
     34          8           0        3.519149    2.561695    0.677748
 ---------------------------------------------------------------------

 SCF Done:  E(RHF) =  -669.535056729     A.U. after   15 cycles
 E2 =    -0.2092168690D+01 EUMP2 =    -0.67162722541859D+03

 The electronic state is 1-A.
 Alpha  occ. eigenvalues --  -20.60810 -20.60805 -15.85864 -11.31248 -11.27820
 Alpha  occ. eigenvalues --  -11.27812 -11.27558 -11.26843 -11.26827 -11.21895
 Alpha  occ. eigenvalues --  -11.21719 -11.21606 -11.21515 -11.21390 -11.21147
 Alpha  occ. eigenvalues --   -1.59886  -1.39438  -1.19431  -1.08835  -1.08623
 Alpha  occ. eigenvalues --   -1.04827  -1.03737  -0.96199  -0.95653  -0.87217
 Alpha  occ. eigenvalues --   -0.86227  -0.82481  -0.79807  -0.78431  -0.77518
 Alpha  occ. eigenvalues --   -0.72082  -0.71209  -0.70551  -0.65255  -0.65081
 Alpha  occ. eigenvalues --   -0.64826  -0.62169  -0.61134  -0.59617  -0.57832
 Alpha  occ. eigenvalues --   -0.55481  -0.55341  -0.53481  -0.52918  -0.52738
 Alpha  occ. eigenvalues --   -0.52428  -0.50133  -0.48842  -0.48836  -0.48122
 Alpha  occ. eigenvalues --   -0.46836  -0.45976  -0.45895  -0.44840  -0.44012
 Alpha  occ. eigenvalues --   -0.37324  -0.36427
 Alpha virt. eigenvalues --    0.04980   0.11203   0.16409   0.21183   0.22720
 Alpha virt. eigenvalues --    0.24209   0.26448   0.27158   0.27387   0.27473
 Alpha virt. eigenvalues --    0.28490   0.30780   0.31187   0.31772   0.32474

 Mulliken charges:
               1
     1  C   -0.298435
     2  C   -0.297988
     3  C   -0.482823
     4  H    0.148753
     5  H    0.150559
     6  H    0.148296
     7  H    0.155347
     8  H    0.155409
     9  H    0.151818
    10  H    0.161878
    11  C   -0.298666
    12  C   -0.299791
    13  C   -0.475912
    14  H    0.148605
    15  H    0.151662
    16  H    0.151345
    17  H    0.152592
    18  H    0.156465
    19  H    0.154846
    20  H    0.160622
    21  C   -0.174482
    22  C   -0.217174
    23  C   -0.170740
    24  C    0.158680
    25  C   -0.170993
    26  C   -0.215617
    27  H    0.227554
    28  H    0.224233
    29  H    0.275999
    30  H    0.275897
    31  H    0.224567
    32  N    0.488009
    33  O   -0.460272
    34  O   -0.460242
 Sum of Mulliken charges =  -0.00000

 Dipole moment (field-independent basis, Debye):
    X=             -1.5249    Y=             -4.8128    Z=              1.0104  Tot=              5.1487
 Quadrupole moment (field-independent basis, Debye-Ang):
   XX=           -105.4744   YY=            -98.8985   ZZ=            -89.9610
   XY=            -15.8426   XZ=              1.9517   YZ=              0.7365

 Normal termination of Gaussian 16 at Wed May  5 15:46:04 2021.
