 Gaussian 16, Revision A.03,
 Gaussian 16:  EM64L-G16RevA.03 25-Dec-2016

 -------------
 #p 6-31g* mp2
 -------------

 ------------------------------------------------------
 Input file generated by CHIRIPA (05-May-2021 14:51:13)
 ------------------------------------------------------
 Symbolic Z-matrix:
 Charge =  0 Multiplicity = 1

                         Standard orientation:
 ---------------------------------------------------------------------
 Center     Atomic      Atomic             Coordinates (Angstroms)
 Number     Number       Type             X           Y           Z
 ---------------------------------------------------------------------
      1          6           0        4.453830   -0.213820    0.245567
      2          6           0        5.330251   -0.990385   -0.737702
      3          6           0        6.155674   -2.083342   -0.058059
      4          1           0        5.091193    0.234247    1.020131
      5          1           0        3.782444   -0.915011    0.760316
      6          1           0        5.998826   -0.287752   -1.251443
      7          1           0        4.690747   -1.436496   -1.510124
      8          1           0        5.501697   -2.806654    0.439672
      9          1           0        6.817208   -1.651382    0.699823
     10          1           0        6.774780   -2.625906   -0.779303
     11          6           0        3.622656    0.882263   -0.418872
     12          6           0        2.746235    1.658828    0.564396
     13          6           0        1.920812    2.751786   -0.115247
     14          1           0        4.294042    1.583454   -0.933621
     15          1           0        2.985293    0.434196   -1.193437
     16          1           0        3.385739    2.104940    1.336818
     17          1           0        2.077660    0.956195    1.078138
     18          1           0        1.259278    2.319825   -0.873128
     19          1           0        2.574789    3.475097   -0.612978
     20          1           0        1.301706    3.294349    0.605998
     21          6           0       -4.643198    0.013864   -0.223666
     22          6           0       -5.958984   -0.726444    0.018481
     23          6           0       -7.160052   -0.017751   -0.608405
     24          1           0       -4.722648    1.031880    0.181643
     25          1           0       -4.483893    0.119781   -1.305701
     26          1           0       -6.115075   -0.832151    1.099720
     27          1           0       -5.876325   -1.742878   -0.387281
     28          1           0       -7.030652    0.074515   -1.691615
     29          1           0       -7.270759    0.990417   -0.196164
     30          1           0       -8.090160   -0.564050   -0.423155
     31          6           0       -3.433288   -0.682307    0.396972
     32          6           0       -2.117501    0.058000    0.154824
     33          6           0       -0.916434   -0.650692    0.781710
     34          1           0       -3.592592   -0.788224    1.479006
     35          1           0       -3.353837   -1.700324   -0.008338
     36          1           0       -2.200161    1.074435    0.560587
     37          1           0       -1.961410    0.163708   -0.926415
     38          1           0       -0.805727   -1.658860    0.369469
     39          1           0       -1.045834   -0.742958    1.864920
     40          1           0        0.013673   -0.104393    0.596461
 ---------------------------------------------------------------------

 SCF Done:  E(RHF) =  -470.733313061     A.U. after   11 cycles
 E2 =    -0.1582610057D+01 EUMP2 =    -0.47231592311856D+03

 The electronic state is 1-A.
 Alpha  occ. eigenvalues --  -11.21623 -11.21609 -11.21587 -11.21587 -11.21417
 Alpha  occ. eigenvalues --  -11.21394 -11.21357 -11.21333 -11.21092 -11.21078
 Alpha  occ. eigenvalues --  -11.21076 -11.21056  -1.08447  -1.08419  -1.03564
 Alpha  occ. eigenvalues --   -1.03508  -0.96013  -0.95958  -0.87022  -0.86983
 Alpha  occ. eigenvalues --   -0.79643  -0.79554  -0.78258  -0.78230  -0.65078
 Alpha  occ. eigenvalues --   -0.65071  -0.61010  -0.60939  -0.59398  -0.59270
 Alpha  occ. eigenvalues --   -0.57632  -0.57546  -0.55288  -0.55251  -0.52714
 Alpha  occ. eigenvalues --   -0.52657  -0.52430  -0.52379  -0.49939  -0.49912
 Alpha  occ. eigenvalues --   -0.47990  -0.47845  -0.46649  -0.46606  -0.45799
 Alpha  occ. eigenvalues --   -0.45773  -0.45721  -0.45698  -0.43801  -0.43734
 Alpha virt. eigenvalues --    0.20745   0.23033   0.23697   0.25218   0.26323
 Alpha virt. eigenvalues --    0.26627   0.27153   0.27506   0.28019   0.28784
 Alpha virt. eigenvalues --    0.30702   0.31334   0.31507   0.31723   0.32090

 Mulliken charges:
               1
     1  C   -0.298444
     2  C   -0.299646
     3  C   -0.475732
     4  H    0.149610
     5  H    0.150121
     6  H    0.151824
     7  H    0.151959
     8  H    0.155335
     9  H    0.155140
    10  H    0.160169
    11  C   -0.298553
    12  C   -0.305713
    13  C   -0.476460
    14  H    0.149634
    15  H    0.149664
    16  H    0.152585
    17  H    0.156526
    18  H    0.155756
    19  H    0.155446
    20  H    0.160362
    21  C   -0.298259
    22  C   -0.299651
    23  C   -0.475713
    24  H    0.149770
    25  H    0.149533
    26  H    0.151945
    27  H    0.151917
    28  H    0.155198
    29  H    0.155227
    30  H    0.160270
    31  C   -0.298550
    32  C   -0.298784
    33  C   -0.484293
    34  H    0.149584
    35  H    0.149581
    36  H    0.152579
    37  H    0.151533
    38  H    0.154913
    39  H    0.155300
    40  H    0.168318
 Sum of Mulliken charges =  -0.00000

 Dipole moment (field-independent basis, Debye):
    X=             -0.0025    Y=              0.0066    Z=              0.0042  Tot=              0.0083
 Quadrupole moment (field-independent basis, Debye-Ang):
   XX=            -85.5611   YY=            -84.9002   ZZ=            -84.2860
   XY=              1.3488   XZ=             -0.6045   YZ=              1.0211

 Normal termination of Gaussian 16 at Thu May  6 03:56:33 2021.
