 Gaussian 16, Revision A.03,
 Gaussian 16:  EM64L-G16RevA.03 25-Dec-2016

 -------------
 #p 6-31g* mp2
 -------------

 ------------------------------------------------------
 Input file generated by CHIRIPA (05-May-2021 14:55:24)
 ------------------------------------------------------
 Symbolic Z-matrix:
 Charge =  0 Multiplicity = 1

                         Standard orientation:
 ---------------------------------------------------------------------
 Center     Atomic      Atomic             Coordinates (Angstroms)
 Number     Number       Type             X           Y           Z
 ---------------------------------------------------------------------
      1          6           0       -3.148581   -2.216286   -1.124018
      2          6           0       -3.417415   -0.918326   -1.570729
      3          6           0       -3.007484    0.189234   -0.822520
      4          6           0       -2.327879   -0.038793    0.373067
      5          6           0       -2.045129   -1.319760    0.844730
      6          6           0       -2.464502   -2.412514    0.080163
      7          1           0       -3.470692   -3.070914   -1.711598
      8          1           0       -3.948498   -0.762925   -2.505526
      9          1           0       -3.202456    1.204855   -1.144883
     10          1           0       -1.513809   -1.442979    1.780644
     11          1           0       -2.254343   -3.419396    0.429544
     12          7           0       -1.888905    1.125894    1.173821
     13          8           0       -1.291784    0.898245    2.223706
     14          8           0       -2.150271    2.244371    0.736404
     15          6           0        3.265547   -0.255838    0.183607
     16          6           0        4.395924   -1.152233   -0.323058
     17          6           0        4.771263   -2.250124    0.672709
     18          1           0        3.566451    0.199272    1.137167
     19          1           0        2.383562   -0.875321    0.397473
     20          1           0        5.275070   -0.531061   -0.537217
     21          1           0        4.092371   -1.605112   -1.275619
     22          1           0        3.910115   -2.893911    0.879017
     23          1           0        5.099534   -1.813758    1.621614
     24          1           0        5.581208   -2.879128    0.290342
     25          6           0        2.879033    0.846553   -0.800807
     26          6           0        1.748657    1.742948   -0.294142
     27          6           0        1.373318    2.840838   -1.289907
     28          1           0        3.761019    1.466035   -1.014672
     29          1           0        2.578130    0.391443   -1.754366
     30          1           0        2.052210    2.195826    0.658420
     31          1           0        0.869511    1.121777   -0.079982
     32          1           0        1.045046    2.404472   -2.238814
     33          1           0        2.234465    3.484626   -1.496216
     34          1           0        0.563373    3.469841   -0.907541
 ---------------------------------------------------------------------

 SCF Done:  E(RHF) =  -669.535875104     A.U. after   15 cycles
 E2 =    -0.2091993606D+01 EUMP2 =    -0.67162786871046D+03

 The electronic state is 1-A.
 Alpha  occ. eigenvalues --  -20.60854 -20.60848 -15.85889 -11.31263 -11.27829
 Alpha  occ. eigenvalues --  -11.27822 -11.27569 -11.26841 -11.26831 -11.21396
 Alpha  occ. eigenvalues --  -11.21046 -11.20962 -11.20949 -11.20904 -11.20329
 Alpha  occ. eigenvalues --   -1.59920  -1.39472  -1.19433  -1.08829  -1.08029
 Alpha  occ. eigenvalues --   -1.04832  -1.03100  -0.95663  -0.95556  -0.86579
 Alpha  occ. eigenvalues --   -0.86230  -0.82492  -0.79176  -0.77821  -0.77539
 Alpha  occ. eigenvalues --   -0.72113  -0.71254  -0.70536  -0.65084  -0.64833
 Alpha  occ. eigenvalues --   -0.64670  -0.62177  -0.60512  -0.58922  -0.57130
 Alpha  occ. eigenvalues --   -0.55333  -0.54870  -0.53163  -0.52923  -0.52225
 Alpha  occ. eigenvalues --   -0.51981  -0.49534  -0.48875  -0.48868  -0.47485
 Alpha  occ. eigenvalues --   -0.46232  -0.45391  -0.45293  -0.44824  -0.43344
 Alpha  occ. eigenvalues --   -0.37410  -0.36435
 Alpha virt. eigenvalues --    0.04977   0.11206   0.16438   0.21341   0.23147
 Alpha virt. eigenvalues --    0.24619   0.26756   0.27278   0.27677   0.28318
 Alpha virt. eigenvalues --    0.28446   0.30863   0.31633   0.32079   0.32363

 Mulliken charges:
               1
     1  C   -0.170674
     2  C   -0.218636
     3  C   -0.170960
     4  C    0.155681
     5  C   -0.171960
     6  C   -0.218615
     7  H    0.225898
     8  H    0.223790
     9  H    0.276163
    10  H    0.276203
    11  H    0.223754
    12  N    0.490304
    13  O   -0.458534
    14  O   -0.459946
    15  C   -0.296777
    16  C   -0.299274
    17  C   -0.474937
    18  H    0.152716
    19  H    0.146409
    20  H    0.152127
    21  H    0.149556
    22  H    0.152240
    23  H    0.156511
    24  H    0.158953
    25  C   -0.298415
    26  C   -0.295428
    27  C   -0.479718
    28  H    0.148751
    29  H    0.145686
    30  H    0.159441
    31  H    0.145418
    32  H    0.147998
    33  H    0.152077
    34  H    0.174196
 Sum of Mulliken charges =  -0.00000

 Dipole moment (field-independent basis, Debye):
    X=             -1.6530    Y=             -3.9979    Z=             -2.7169  Tot=              5.1086
 Quadrupole moment (field-independent basis, Debye-Ang):
   XX=            -87.3390   YY=            -93.0299   ZZ=            -95.2731
   XY=              9.3461   XZ=              8.0634   YZ=             -2.8322

 Normal termination of Gaussian 16 at Thu May  6 04:45:53 2021.
