 Gaussian 16, Revision A.03,
 Gaussian 16:  EM64L-G16RevA.03 25-Dec-2016

 -------------
 #p 6-31g* mp2
 -------------

 ------------------------------------------------------
 Input file generated by CHIRIPA (05-May-2021 14:53:14)
 ------------------------------------------------------
 Symbolic Z-matrix:
 Charge =  0 Multiplicity = 1

                         Standard orientation:
 ---------------------------------------------------------------------
 Center     Atomic      Atomic             Coordinates (Angstroms)
 Number     Number       Type             X           Y           Z
 ---------------------------------------------------------------------
      1          6           0       -3.301206   -0.349847    0.226229
      2          6           0       -4.040329   -0.975083   -0.957309
      3          6           0       -4.407953   -2.439746   -0.717704
      4          1           0       -2.390310   -0.929540    0.429131
      5          1           0       -3.928753   -0.429082    1.124729
      6          1           0       -3.412149   -0.893452   -1.853603
      7          1           0       -4.949472   -0.393721   -1.157537
      8          1           0       -5.054866   -2.535897    0.160282
      9          1           0       -3.508809   -3.038468   -0.539738
     10          1           0       -4.935525   -2.866872   -1.576244
     11          6           0       -2.926941    1.114146    0.001773
     12          6           0       -2.187819    1.739382    1.185311
     13          6           0       -1.820194    3.204045    0.945706
     14          1           0       -2.299394    1.193381   -0.896727
     15          1           0       -3.837838    1.693839   -0.201129
     16          1           0       -1.278675    1.158020    1.385539
     17          1           0       -2.815998    1.657751    2.081605
     18          1           0       -2.719339    3.802767    0.767740
     19          1           0       -1.173281    3.300196    0.067720
     20          1           0       -1.292623    3.631171    1.804246
     21          6           0        2.748313    2.046143   -0.965885
     22          6           0        3.861855    1.265352   -0.638913
     23          6           0        3.698974   -0.035101   -0.152249
     24          6           0        2.402375   -0.525231   -0.004296
     25          6           0        1.273055    0.228042   -0.321325
     26          6           0        1.459739    1.525913   -0.806329
     27          1           0        2.884088    3.055362   -1.343293
     28          1           0        4.863759    1.666761   -0.761807
     29          1           0        4.543508   -0.661311    0.108596
     30          1           0        0.286744   -0.199574   -0.188080
     31          1           0        0.593109    2.130005   -1.059452
     32          7           0        2.217340   -1.900595    0.510036
     33          8           0        1.064534   -2.309208    0.631319
     34          8           0        3.228621   -2.543950    0.782146
 ---------------------------------------------------------------------

 SCF Done:  E(RHF) =  -669.535139568     A.U. after   15 cycles
 E2 =    -0.2093168260D+01 EUMP2 =    -0.67162830782779D+03

 The electronic state is 1-A.
 Alpha  occ. eigenvalues --  -20.60817 -20.60811 -15.85867 -11.31213 -11.27781
 Alpha  occ. eigenvalues --  -11.27768 -11.27512 -11.26795 -11.26767 -11.22167
 Alpha  occ. eigenvalues --  -11.21934 -11.21829 -11.21676 -11.21554 -11.20908
 Alpha  occ. eigenvalues --   -1.59889  -1.39444  -1.19386  -1.08816  -1.08777
 Alpha  occ. eigenvalues --   -1.04792  -1.03849  -0.96312  -0.95621  -0.87325
 Alpha  occ. eigenvalues --   -0.86185  -0.82457  -0.79942  -0.78556  -0.77516
 Alpha  occ. eigenvalues --   -0.72087  -0.71210  -0.70506  -0.65535  -0.65021
 Alpha  occ. eigenvalues --   -0.64821  -0.62209  -0.61131  -0.59697  -0.57893
 Alpha  occ. eigenvalues --   -0.55656  -0.55277  -0.53113  -0.52994  -0.52922
 Alpha  occ. eigenvalues --   -0.52657  -0.50244  -0.48842  -0.48841  -0.48229
 Alpha  occ. eigenvalues --   -0.46993  -0.46094  -0.45992  -0.44852  -0.44107
 Alpha  occ. eigenvalues --   -0.37360  -0.36370
 Alpha virt. eigenvalues --    0.04995   0.11214   0.16427   0.18346   0.22738
 Alpha virt. eigenvalues --    0.23683   0.25299   0.25627   0.27465   0.28507
 Alpha virt. eigenvalues --    0.29665   0.31025   0.31334   0.31771   0.32540

 Mulliken charges:
               1
     1  C   -0.305667
     2  C   -0.299064
     3  C   -0.477589
     4  H    0.159891
     5  H    0.152902
     6  H    0.150191
     7  H    0.150918
     8  H    0.155371
     9  H    0.163298
    10  H    0.159955
    11  C   -0.300752
    12  C   -0.305249
    13  C   -0.475486
    14  H    0.139602
    15  H    0.153047
    16  H    0.153167
    17  H    0.158344
    18  H    0.158800
    19  H    0.143338
    20  H    0.164355
    21  C   -0.171657
    22  C   -0.218637
    23  C   -0.170330
    24  C    0.157862
    25  C   -0.177568
    26  C   -0.222999
    27  H    0.226121
    28  H    0.223605
    29  H    0.275649
    30  H    0.282551
    31  H    0.230037
    32  N    0.487940
    33  O   -0.462038
    34  O   -0.459909
 Sum of Mulliken charges =  -0.00000

 Dipole moment (field-independent basis, Debye):
    X=              0.5587    Y=              4.7502    Z=             -1.6988  Tot=              5.0757
 Quadrupole moment (field-independent basis, Debye-Ang):
   XX=            -85.3865   YY=           -101.3542   ZZ=            -95.3291
   XY=             10.4260   XZ=             -4.7379   YZ=              1.1498

 Normal termination of Gaussian 16 at Wed May  5 23:29:23 2021.
