 Gaussian 16, Revision A.03,
 Gaussian 16:  EM64L-G16RevA.03 25-Dec-2016

 -------------
 #p 6-31g* mp2
 -------------

 ------------------------------------------------------
 Input file generated by CHIRIPA (05-May-2021 14:51:13)
 ------------------------------------------------------
 Symbolic Z-matrix:
 Charge =  0 Multiplicity = 1

                         Standard orientation:
 ---------------------------------------------------------------------
 Center     Atomic      Atomic             Coordinates (Angstroms)
 Number     Number       Type             X           Y           Z
 ---------------------------------------------------------------------
      1          6           0       -3.077558   -0.055514    0.328066
      2          6           0       -2.559828   -1.481006    0.522778
      3          6           0       -1.074042   -1.526575    0.880768
      4          1           0       -2.493275    0.435238   -0.462327
      5          1           0       -2.903351    0.519295    1.248198
      6          1           0       -2.736214   -2.053344   -0.396969
      7          1           0       -3.145537   -1.968485    1.312667
      8          1           0       -0.884723   -0.979525    1.810013
      9          1           0       -0.473074   -1.064867    0.090664
     10          1           0       -0.724890   -2.555080    1.015413
     11          6           0       -4.561301    0.006478   -0.030251
     12          6           0       -5.079031    1.431970   -0.224962
     13          6           0       -6.564817    1.477539   -0.582953
     14          1           0       -4.735508   -0.568331   -0.950382
     15          1           0       -5.145584   -0.484273    0.760143
     16          1           0       -4.493322    1.919449   -1.014851
     17          1           0       -4.902645    2.004308    0.694784
     18          1           0       -7.165785    1.015831    0.207151
     19          1           0       -6.754136    0.930490   -1.512198
     20          1           0       -6.913969    2.506045   -0.717598
     21          6           0        3.680320   -0.590827   -0.579525
     22          6           0        2.822198   -1.642335    0.124707
     23          6           0        2.552545   -2.867403   -0.749529
     24          1           0        3.179458   -0.278713   -1.506168
     25          1           0        4.634546   -1.046503   -0.878203
     26          1           0        1.870433   -1.184443    0.423194
     27          1           0        3.325069   -1.951841    1.049878
     28          1           0        3.492279   -3.350219   -1.036568
     29          1           0        2.029378   -2.578460   -1.666812
     30          1           0        1.937425   -3.606293   -0.226530
     31          6           0        3.958539    0.639862    0.281709
     32          6           0        4.816662    1.691370   -0.422522
     33          6           0        5.086313    2.916439    0.451714
     34          1           0        3.004313    1.095539    0.580387
     35          1           0        4.459401    0.327749    1.208353
     36          1           0        4.313789    2.000877   -1.347693
     37          1           0        5.768426    1.233479   -0.721010
     38          1           0        5.609482    2.627495    1.368997
     39          1           0        4.146580    3.399255    0.738752
     40          1           0        5.701435    3.655328   -0.071286
 ---------------------------------------------------------------------

 SCF Done:  E(RHF) =  -470.732952676     A.U. after   11 cycles
 E2 =    -0.1582795763D+01 EUMP2 =    -0.47231574843853D+03

 The electronic state is 1-A.
 Alpha  occ. eigenvalues --  -11.21628 -11.21625 -11.21567 -11.21437 -11.21437
 Alpha  occ. eigenvalues --  -11.21376 -11.21345 -11.21282 -11.21109 -11.21089
 Alpha  occ. eigenvalues --  -11.21045 -11.20997  -1.08462  -1.08363  -1.03575
 Alpha  occ. eigenvalues --   -1.03450  -0.96033  -0.95903  -0.87039  -0.86935
 Alpha  occ. eigenvalues --   -0.79687  -0.79475  -0.78287  -0.78157  -0.65116
 Alpha  occ. eigenvalues --   -0.64984  -0.61065  -0.60781  -0.59437  -0.59234
 Alpha  occ. eigenvalues --   -0.57626  -0.57530  -0.55376  -0.55138  -0.52741
 Alpha  occ. eigenvalues --   -0.52571  -0.52484  -0.52314  -0.49985  -0.49846
 Alpha  occ. eigenvalues --   -0.48069  -0.47751  -0.46739  -0.46464  -0.45880
 Alpha  occ. eigenvalues --   -0.45744  -0.45703  -0.45495  -0.43802  -0.43716
 Alpha virt. eigenvalues --    0.21710   0.23000   0.23608   0.24935   0.26217
 Alpha virt. eigenvalues --    0.26629   0.27024   0.27320   0.27886   0.29127
 Alpha virt. eigenvalues --    0.29681   0.31032   0.31525   0.31742   0.32379

 Mulliken charges:
               1
     1  C   -0.298452
     2  C   -0.300460
     3  C   -0.477487
     4  H    0.149336
     5  H    0.149537
     6  H    0.152210
     7  H    0.152013
     8  H    0.155285
     9  H    0.156400
    10  H    0.161913
    11  C   -0.298281
    12  C   -0.299655
    13  C   -0.475725
    14  H    0.149616
    15  H    0.149785
    16  H    0.151865
    17  H    0.151952
    18  H    0.155242
    19  H    0.155227
    20  H    0.160314
    21  C   -0.297814
    22  C   -0.308185
    23  C   -0.475123
    24  H    0.148605
    25  H    0.149121
    26  H    0.163064
    27  H    0.151169
    28  H    0.154644
    29  H    0.154110
    30  H    0.160252
    31  C   -0.298195
    32  C   -0.299544
    33  C   -0.475672
    34  H    0.149407
    35  H    0.149615
    36  H    0.151692
    37  H    0.151871
    38  H    0.155133
    39  H    0.155117
    40  H    0.160096
 Sum of Mulliken charges =  -0.00000

 Dipole moment (field-independent basis, Debye):
    X=             -0.0458    Y=             -0.0050    Z=              0.0219  Tot=              0.0510
 Quadrupole moment (field-independent basis, Debye-Ang):
   XX=            -85.3964   YY=            -85.5840   ZZ=            -83.9962
   XY=             -0.4172   XZ=             -0.3091   YZ=             -0.5837

 Normal termination of Gaussian 16 at Wed May  5 15:21:06 2021.
