 Gaussian 16, Revision A.03,
 Gaussian 16:  EM64L-G16RevA.03 25-Dec-2016

 -------------
 #p 6-31g* mp2
 -------------

 ------------------------------------------------------
 Input file generated by CHIRIPA (05-May-2021 14:51:13)
 ------------------------------------------------------
 Symbolic Z-matrix:
 Charge =  0 Multiplicity = 1

                         Standard orientation:
 ---------------------------------------------------------------------
 Center     Atomic      Atomic             Coordinates (Angstroms)
 Number     Number       Type             X           Y           Z
 ---------------------------------------------------------------------
      1          6           0        4.251279   -0.337607   -0.335153
      2          6           0        5.452410   -1.128205    0.184679
      3          6           0        6.276013   -1.758827   -0.938614
      4          1           0        3.612128   -1.003517   -0.930966
      5          1           0        4.605491    0.448025   -1.016851
      6          1           0        5.096151   -1.911230    0.866271
      7          1           0        6.088677   -0.460382    0.779483
      8          1           0        6.659181   -0.987827   -1.614885
      9          1           0        5.661015   -2.446919   -1.527604
     10          1           0        7.129602   -2.319200   -0.544623
     11          6           0        3.418117    0.298824    0.775938
     12          6           0        2.216987    1.089422    0.256106
     13          6           0        1.393384    1.720044    1.379400
     14          1           0        3.063905   -0.486808    1.457636
     15          1           0        4.057269    0.964734    1.371752
     16          1           0        1.580720    0.421599   -0.338698
     17          1           0        2.573246    1.872447   -0.425486
     18          1           0        2.008381    2.408135    1.968389
     19          1           0        1.010216    0.949044    2.055671
     20          1           0        0.539795    2.280416    0.985409
     21          6           0       -3.985863   -0.655860    0.103052
     22          6           0       -5.419880   -1.132478   -0.130223
     23          6           0       -5.707002   -2.484777    0.522955
     24          1           0       -3.287821   -1.408923   -0.287561
     25          1           0       -3.800463   -0.588716    1.184030
     26          1           0       -5.602958   -1.197375   -1.210448
     27          1           0       -6.114590   -0.378104    0.260820
     28          1           0       -5.551852   -2.430477    1.605351
     29          1           0       -5.037313   -3.254403    0.125725
     30          1           0       -6.737652   -2.806461    0.343676
     31          6           0       -3.683534    0.694643   -0.543838
     32          6           0       -2.249517    1.171261   -0.310563
     33          6           0       -1.962394    2.523560   -0.963741
     34          1           0       -3.868934    0.627500   -1.624815
     35          1           0       -4.381576    1.447706   -0.153225
     36          1           0       -1.554807    0.416888   -0.701605
     37          1           0       -2.066438    1.236159    0.769662
     38          1           0       -2.632084    3.293187   -0.566510
     39          1           0       -2.117545    2.469261   -2.046136
     40          1           0       -0.931745    2.845243   -0.784462
 ---------------------------------------------------------------------

 SCF Done:  E(RHF) =  -470.733079145     A.U. after   11 cycles
 E2 =    -0.1582945910D+01 EUMP2 =    -0.47231602505499D+03

 The electronic state is 1-A.
 Alpha  occ. eigenvalues --  -11.21607 -11.21598 -11.21592 -11.21589 -11.21410
 Alpha  occ. eigenvalues --  -11.21398 -11.21350 -11.21338 -11.21078 -11.21076
 Alpha  occ. eigenvalues --  -11.21069 -11.21009  -1.08444  -1.08411  -1.03575
 Alpha  occ. eigenvalues --   -1.03480  -0.96044  -0.95913  -0.87032  -0.86957
 Alpha  occ. eigenvalues --   -0.79602  -0.79575  -0.78249  -0.78231  -0.65068
 Alpha  occ. eigenvalues --   -0.65047  -0.60938  -0.60913  -0.59769  -0.59076
 Alpha  occ. eigenvalues --   -0.57854  -0.57255  -0.55274  -0.55245  -0.52902
 Alpha  occ. eigenvalues --   -0.52566  -0.52476  -0.52143  -0.49944  -0.49887
 Alpha  occ. eigenvalues --   -0.47975  -0.47833  -0.46704  -0.46542  -0.45818
 Alpha  occ. eigenvalues --   -0.45753  -0.45736  -0.45654  -0.43839  -0.43711
 Alpha virt. eigenvalues --    0.21045   0.23081   0.23345   0.25307   0.25997
 Alpha virt. eigenvalues --    0.26622   0.26849   0.27519   0.27672   0.29131
 Alpha virt. eigenvalues --    0.30275   0.30816   0.31324   0.31813   0.32029

 Mulliken charges:
               1
     1  C   -0.298249
     2  C   -0.299655
     3  C   -0.475697
     4  H    0.149481
     5  H    0.149516
     6  H    0.151933
     7  H    0.151958
     8  H    0.155181
     9  H    0.155120
    10  H    0.160248
    11  C   -0.298260
    12  C   -0.300699
    13  C   -0.481978
    14  H    0.149632
    15  H    0.149702
    16  H    0.152993
    17  H    0.151483
    18  H    0.154471
    19  H    0.155217
    20  H    0.167577
    21  C   -0.298251
    22  C   -0.299654
    23  C   -0.475708
    24  H    0.149386
    25  H    0.149609
    26  H    0.151938
    27  H    0.152009
    28  H    0.155196
    29  H    0.155090
    30  H    0.160291
    31  C   -0.298401
    32  C   -0.301094
    33  C   -0.480551
    34  H    0.149474
    35  H    0.149730
    36  H    0.152601
    37  H    0.153823
    38  H    0.155294
    39  H    0.155616
    40  H    0.163625
 Sum of Mulliken charges =  -0.00000

 Dipole moment (field-independent basis, Debye):
    X=             -0.0142    Y=              0.0031    Z=              0.0018  Tot=              0.0146
 Quadrupole moment (field-independent basis, Debye-Ang):
   XX=            -85.0313   YY=            -85.0540   ZZ=            -84.7281
   XY=              0.3413   XZ=              0.3150   YZ=              0.4125

 Normal termination of Gaussian 16 at Wed May  5 23:12:47 2021.
