 Gaussian 16, Revision A.03,
 Gaussian 16:  EM64L-G16RevA.03 25-Dec-2016

 -------------
 #p 6-31g* mp2
 -------------

 ------------------------------------------------------
 Input file generated by CHIRIPA (05-May-2021 14:57:25)
 ------------------------------------------------------
 Symbolic Z-matrix:
 Charge =  0 Multiplicity = 1

                         Standard orientation:
 ---------------------------------------------------------------------
 Center     Atomic      Atomic             Coordinates (Angstroms)
 Number     Number       Type             X           Y           Z
 ---------------------------------------------------------------------
      1          6           0       -3.946269    2.584733   -0.192781
      2          6           0       -2.667827    2.024663   -0.284591
      3          6           0       -2.491559    0.640236   -0.201892
      4          6           0       -3.620848   -0.158027   -0.026473
      5          6           0       -4.907497    0.369989    0.068527
      6          6           0       -5.060060    1.757067   -0.016825
      7          1           0       -4.073991    3.661219   -0.258054
      8          1           0       -1.801031    2.665001   -0.421250
      9          1           0       -1.513219    0.180181   -0.269855
     10          1           0       -5.752469   -0.294022    0.204649
     11          1           0       -6.054109    2.189251    0.054801
     12          7           0       -3.446789   -1.625061    0.062482
     13          8           0       -4.457814   -2.306643    0.217116
     14          8           0       -2.302631   -2.065563   -0.024115
     15          6           0        2.549822   -2.352979   -0.043660
     16          6           0        3.915354   -2.226151   -0.318904
     17          6           0        4.535196   -0.973792   -0.274882
     18          6           0        3.755852    0.135622    0.049331
     19          6           0        2.393324    0.041656    0.328578
     20          6           0        1.794497   -1.220667    0.278634
     21          1           0        2.076476   -3.329712   -0.080157
     22          1           0        4.504427   -3.103787   -0.569490
     23          1           0        5.590567   -0.847020   -0.483543
     24          1           0        1.832221    0.934788    0.575349
     25          1           0        0.733821   -1.316166    0.492857
     26          7           0        4.400927    1.466713    0.099069
     27          8           0        3.692276    2.428691    0.387255
     28          8           0        5.602973    1.522840   -0.151073
 ---------------------------------------------------------------------

 SCF Done:  E(RHF) =  -868.339551118     A.U. after   16 cycles
 E2 =    -0.2599078011D+01 EUMP2 =    -0.87093862912892D+03

 The electronic state is 1-A.
 Alpha  occ. eigenvalues --  -20.61616 -20.61561 -20.60792 -20.60774 -15.86628
 Alpha  occ. eigenvalues --  -15.85834 -11.31788 -11.31071 -11.28390 -11.28282
 Alpha  occ. eigenvalues --  -11.27965 -11.27651 -11.27598 -11.27268 -11.27248
 Alpha  occ. eigenvalues --  -11.27201 -11.26558 -11.26479  -1.60647  -1.59862
 Alpha  occ. eigenvalues --   -1.40214  -1.39422  -1.19923  -1.19203  -1.09342
 Alpha  occ. eigenvalues --   -1.08591  -1.05299  -1.04593  -0.96223  -0.95464
 Alpha  occ. eigenvalues --   -0.86703  -0.85967  -0.83069  -0.82313  -0.78163
 Alpha  occ. eigenvalues --   -0.77396  -0.72861  -0.72054  -0.71951  -0.71183
 Alpha  occ. eigenvalues --   -0.71026  -0.70264  -0.65579  -0.65297  -0.64842
 Alpha  occ. eigenvalues --   -0.64540  -0.62683  -0.61922  -0.55774  -0.55002
 Alpha  occ. eigenvalues --   -0.53626  -0.53394  -0.52916  -0.52646  -0.49623
 Alpha  occ. eigenvalues --   -0.49570  -0.48823  -0.48790  -0.45661  -0.44858
 Alpha  occ. eigenvalues --   -0.37863  -0.37125  -0.36890  -0.36204
 Alpha virt. eigenvalues --    0.04368   0.05124   0.10763   0.11459   0.15928
 Alpha virt. eigenvalues --    0.16616   0.19299   0.22143   0.25033   0.27151
 Alpha virt. eigenvalues --    0.28459   0.29533   0.29833   0.31230   0.32470

 Mulliken charges:
               1
     1  C   -0.169748
     2  C   -0.219534
     3  C   -0.172231
     4  C    0.158215
     5  C   -0.170184
     6  C   -0.218202
     7  H    0.229378
     8  H    0.228461
     9  H    0.270176
    10  H    0.276688
    11  H    0.225887
    12  N    0.491264
    13  O   -0.455290
    14  O   -0.473381
    15  C   -0.171285
    16  C   -0.218543
    17  C   -0.171658
    18  C    0.158959
    19  C   -0.174235
    20  C   -0.228802
    21  H    0.233456
    22  H    0.223860
    23  H    0.274830
    24  H    0.266781
    25  H    0.241298
    26  N    0.488400
    27  O   -0.464623
    28  O   -0.459940
 Sum of Mulliken charges =  -0.00000

 Dipole moment (field-independent basis, Debye):
    X=             -3.1898    Y=              0.4127    Z=             -0.5074  Tot=              3.2562
 Quadrupole moment (field-independent basis, Debye-Ang):
   XX=           -107.8312   YY=           -107.2007   ZZ=           -106.1986
   XY=            -39.1775   XZ=             -1.5387   YZ=              0.0929

 Normal termination of Gaussian 16 at Fri May  7 08:04:28 2021.
