 Gaussian 16, Revision A.03,
 Gaussian 16:  EM64L-G16RevA.03 25-Dec-2016

 -------------
 #p 6-31g* mp2
 -------------

 ------------------------------------------------------
 Input file generated by CHIRIPA (05-May-2021 14:51:14)
 ------------------------------------------------------
 Symbolic Z-matrix:
 Charge =  0 Multiplicity = 1

                         Standard orientation:
 ---------------------------------------------------------------------
 Center     Atomic      Atomic             Coordinates (Angstroms)
 Number     Number       Type             X           Y           Z
 ---------------------------------------------------------------------
      1          6           0       -3.232272    0.465103   -0.059921
      2          6           0       -3.506575    1.935773   -0.375947
      3          6           0       -2.260256    2.811435   -0.242912
      4          1           0       -2.832762    0.384210    0.960272
      5          1           0       -2.447811    0.092729   -0.733237
      6          1           0       -4.291261    2.304880    0.296841
      7          1           0       -3.905658    2.013154   -1.395437
      8          1           0       -1.475266    2.470559   -0.925698
      9          1           0       -1.863061    2.763942    0.776196
     10          1           0       -2.479008    3.858778   -0.473305
     11          6           0       -4.468590   -0.422987   -0.188535
     12          6           0       -4.194287   -1.893657    0.127491
     13          6           0       -5.440606   -2.769320   -0.005543
     14          1           0       -5.253050   -0.050614    0.484782
     15          1           0       -4.868099   -0.342095   -1.208728
     16          1           0       -3.795204   -1.971039    1.146982
     17          1           0       -3.409601   -2.262764   -0.545296
     18          1           0       -5.837801   -2.721826   -1.024651
     19          1           0       -6.225595   -2.428443    0.677242
     20          1           0       -5.221854   -3.816663    0.224849
     21          6           0        4.390947   -0.543815    0.258391
     22          6           0        5.634570   -0.367727   -0.613607
     23          6           0        6.706902   -1.421041   -0.333557
     24          1           0        4.683435   -0.499062    1.316404
     25          1           0        3.973689   -1.546546    0.091593
     26          1           0        6.048562    0.634878   -0.446247
     27          1           0        5.339059   -0.412712   -1.669668
     28          1           0        6.316557   -2.426945   -0.519000
     29          1           0        7.030090   -1.373402    0.711374
     30          1           0        7.587043   -1.276410   -0.967824
     31          6           0        3.309915    0.501699   -0.009935
     32          6           0        2.066292    0.325612    0.862063
     33          6           0        0.993959    1.378925    0.582012
     34          1           0        3.727173    1.504430    0.156862
     35          1           0        3.017427    0.456946   -1.067949
     36          1           0        2.361802    0.370597    1.918124
     37          1           0        1.652299   -0.676993    0.694702
     38          1           0        0.670771    1.331286   -0.462918
     39          1           0        1.384304    2.384830    0.767455
     40          1           0        0.113819    1.234294    1.216280
 ---------------------------------------------------------------------

 SCF Done:  E(RHF) =  -470.732247247     A.U. after   11 cycles
 E2 =    -0.1583176283D+01 EUMP2 =    -0.47231542353031D+03

 The electronic state is 1-A.
 Alpha  occ. eigenvalues --  -11.21596 -11.21583 -11.21536 -11.21524 -11.21384
 Alpha  occ. eigenvalues --  -11.21373 -11.21325 -11.21313 -11.21067 -11.21058
 Alpha  occ. eigenvalues --  -11.20955 -11.20900  -1.08412  -1.08383  -1.03535
 Alpha  occ. eigenvalues --   -1.03440  -0.96019  -0.95854  -0.87084  -0.86828
 Alpha  occ. eigenvalues --   -0.79708  -0.79407  -0.78249  -0.78164  -0.65057
 Alpha  occ. eigenvalues --   -0.65007  -0.60971  -0.60822  -0.59455  -0.59181
 Alpha  occ. eigenvalues --   -0.57557  -0.57548  -0.55342  -0.55115  -0.52855
 Alpha  occ. eigenvalues --   -0.52627  -0.52408  -0.52105  -0.50021  -0.49748
 Alpha  occ. eigenvalues --   -0.47937  -0.47778  -0.46685  -0.46473  -0.45818
 Alpha  occ. eigenvalues --   -0.45719  -0.45691  -0.45582  -0.43755  -0.43665
 Alpha virt. eigenvalues --    0.21748   0.23097   0.23527   0.25063   0.25395
 Alpha virt. eigenvalues --    0.26590   0.26821   0.27509   0.27913   0.29234
 Alpha virt. eigenvalues --    0.29591   0.31448   0.31619   0.31945   0.32463

 Mulliken charges:
               1
     1  C   -0.298588
     2  C   -0.300052
     3  C   -0.477067
     4  H    0.149242
     5  H    0.149749
     6  H    0.151304
     7  H    0.151305
     8  H    0.158872
     9  H    0.157073
    10  H    0.158755
    11  C   -0.298261
    12  C   -0.299552
    13  C   -0.475680
    14  H    0.149508
    15  H    0.149625
    16  H    0.151843
    17  H    0.151708
    18  H    0.155153
    19  H    0.155203
    20  H    0.160175
    21  C   -0.298140
    22  C   -0.299575
    23  C   -0.475672
    24  H    0.149587
    25  H    0.149401
    26  H    0.151897
    27  H    0.151802
    28  H    0.155124
    29  H    0.155155
    30  H    0.160173
    31  C   -0.298415
    32  C   -0.301029
    33  C   -0.474738
    34  H    0.149432
    35  H    0.149197
    36  H    0.151263
    37  H    0.151691
    38  H    0.155081
    39  H    0.154629
    40  H    0.162822
 Sum of Mulliken charges =  -0.00000

 Dipole moment (field-independent basis, Debye):
    X=             -0.0026    Y=              0.0177    Z=              0.0022  Tot=              0.0180
 Quadrupole moment (field-independent basis, Debye-Ang):
   XX=            -86.2374   YY=            -85.4913   ZZ=            -83.3019
   XY=              0.2562   XZ=             -0.0615   YZ=              0.6596

 Normal termination of Gaussian 16 at Wed May  5 21:37:41 2021.
