 Gaussian 16, Revision A.03,
 Gaussian 16:  EM64L-G16RevA.03 25-Dec-2016

 -------------
 #p 6-31g* mp2
 -------------

 ------------------------------------------------------
 Input file generated by CHIRIPA (05-May-2021 14:55:22)
 ------------------------------------------------------
 Symbolic Z-matrix:
 Charge =  0 Multiplicity = 1

                         Standard orientation:
 ---------------------------------------------------------------------
 Center     Atomic      Atomic             Coordinates (Angstroms)
 Number     Number       Type             X           Y           Z
 ---------------------------------------------------------------------
      1          6           0        0.795375    0.855830    0.806107
      2          6           0        1.615175    1.612727   -0.037431
      3          6           0        2.868551    1.132037   -0.427986
      4          6           0        3.272339   -0.115241    0.045872
      5          6           0        2.478376   -0.892952    0.887345
      6          6           0        1.228828   -0.392393    1.264994
      7          1           0       -0.176791    1.236959    1.104486
      8          1           0        1.281146    2.582451   -0.395349
      9          1           0        3.523351    1.697182   -1.080111
     10          1           0        2.838711   -1.856071    1.227903
     11          1           0        0.594272   -0.982392    1.920193
     12          7           0        4.597206   -0.634644   -0.360760
     13          8           0        4.929847   -1.736495    0.070414
     14          8           0        5.277910    0.069935   -1.102951
     15          6           0       -3.587516    0.613935    0.240523
     16          6           0       -3.556845    1.925686   -0.544557
     17          6           0       -2.910511    3.068571    0.238937
     18          1           0       -4.132869    0.769779    1.181398
     19          1           0       -2.560950    0.335870    0.516632
     20          1           0       -4.583039    2.200476   -0.820297
     21          1           0       -3.011667    1.766652   -1.483762
     22          1           0       -1.877185    2.819655    0.501385
     23          1           0       -3.457485    3.255945    1.168620
     24          1           0       -2.899097    3.996730   -0.340932
     25          6           0       -4.230686   -0.538062   -0.529519
     26          6           0       -4.261358   -1.849814    0.255561
     27          6           0       -4.907692   -2.992698   -0.527933
     28          1           0       -5.257253   -0.259998   -0.805629
     29          1           0       -3.685333   -0.693907   -1.470395
     30          1           0       -4.806536   -1.690780    1.194766
     31          1           0       -3.235163   -2.124603    0.531301
     32          1           0       -4.360717   -3.180072   -1.457617
     33          1           0       -5.941018   -2.743783   -0.790382
     34          1           0       -4.919106   -3.920859    0.051936
 ---------------------------------------------------------------------

 SCF Done:  E(RHF) =  -669.535301089     A.U. after   15 cycles
 E2 =    -0.2091739862D+01 EUMP2 =    -0.67162704095088D+03

 The electronic state is 1-A.
 Alpha  occ. eigenvalues --  -20.60759 -20.60754 -15.85813 -11.31183 -11.27750
 Alpha  occ. eigenvalues --  -11.27746 -11.27460 -11.26767 -11.26754 -11.22605
 Alpha  occ. eigenvalues --  -11.22415 -11.22311 -11.22303 -11.22143 -11.21609
 Alpha  occ. eigenvalues --   -1.59835  -1.39388  -1.19353  -1.09325  -1.08747
 Alpha  occ. eigenvalues --   -1.04756  -1.04405  -0.96866  -0.95584  -0.87879
 Alpha  occ. eigenvalues --   -0.86152  -0.82420  -0.80475  -0.79126  -0.77461
 Alpha  occ. eigenvalues --   -0.72031  -0.71158  -0.70500  -0.65953  -0.65005
 Alpha  occ. eigenvalues --   -0.64756  -0.62107  -0.61799  -0.60245  -0.58467
 Alpha  occ. eigenvalues --   -0.56192  -0.55262  -0.53536  -0.53289  -0.53084
 Alpha  occ. eigenvalues --   -0.52845  -0.50815  -0.48813  -0.48786  -0.48756
 Alpha  occ. eigenvalues --   -0.47495  -0.46657  -0.46561  -0.44793  -0.44652
 Alpha  occ. eigenvalues --   -0.37326  -0.36362
 Alpha virt. eigenvalues --    0.05051   0.11275   0.16450   0.18896   0.22581
 Alpha virt. eigenvalues --    0.23590   0.25314   0.25777   0.26424   0.27922
 Alpha virt. eigenvalues --    0.29192   0.30222   0.30916   0.31137   0.31446

 Mulliken charges:
               1
     1  C   -0.177878
     2  C   -0.221133
     3  C   -0.170868
     4  C    0.158379
     5  C   -0.170725
     6  C   -0.220426
     7  H    0.236307
     8  H    0.223730
     9  H    0.275620
    10  H    0.275544
    11  H    0.223918
    12  N    0.488002
    13  O   -0.460417
    14  O   -0.460421
    15  C   -0.300527
    16  C   -0.301023
    17  C   -0.478426
    18  H    0.151562
    19  H    0.141639
    20  H    0.157019
    21  H    0.154531
    22  H    0.143345
    23  H    0.159659
    24  H    0.165330
    25  C   -0.298783
    26  C   -0.299725
    27  C   -0.476306
    28  H    0.152391
    29  H    0.152479
    30  H    0.152476
    31  H    0.149081
    32  H    0.157084
    33  H    0.156648
    34  H    0.161915
 Sum of Mulliken charges =  -0.00000

 Dipole moment (field-independent basis, Debye):
    X=             -4.9038    Y=              1.8194    Z=              1.3529  Tot=              5.4026
 Quadrupole moment (field-independent basis, Debye-Ang):
   XX=           -124.2025   YY=            -92.4633   ZZ=            -93.7946
   XY=              6.5939   XZ=              3.6781   YZ=             -3.0407

 Normal termination of Gaussian 16 at Thu May  6 10:56:58 2021.
