 Gaussian 16, Revision A.03,
 Gaussian 16:  EM64L-G16RevA.03 25-Dec-2016

 -------------
 #p 6-31g* mp2
 -------------

 ------------------------------------------------------
 Input file generated by CHIRIPA (05-May-2021 14:53:17)
 ------------------------------------------------------
 Symbolic Z-matrix:
 Charge =  0 Multiplicity = 1

                         Standard orientation:
 ---------------------------------------------------------------------
 Center     Atomic      Atomic             Coordinates (Angstroms)
 Number     Number       Type             X           Y           Z
 ---------------------------------------------------------------------
      1          6           0        3.699176   -0.213820   -0.350121
      2          6           0        5.146418   -0.635719   -0.094235
      3          6           0        5.384051   -2.122933   -0.357900
      4          1           0        3.031803   -0.811599    0.285660
      5          1           0        3.434238   -0.449691   -1.390105
      6          1           0        5.408986   -0.397857    0.944560
      7          1           0        5.810437   -0.036733   -0.730560
      8          1           0        5.149171   -2.372164   -1.397764
      9          1           0        4.745438   -2.735340    0.286873
     10          1           0        6.425071   -2.402868   -0.168763
     11          6           0        3.445913    1.270223   -0.090886
     12          6           0        1.998671    1.692123   -0.346771
     13          6           0        1.761038    3.179337   -0.083106
     14          1           0        3.710851    1.506094    0.949099
     15          1           0        4.113286    1.868002   -0.726667
     16          1           0        1.334652    1.093136    0.289553
     17          1           0        1.736103    1.454260   -1.385566
     18          1           0        2.399651    3.791743   -0.727880
     19          1           0        1.995919    3.428567    0.956757
     20          1           0        0.720018    3.459271   -0.272244
     21          6           0       -0.585775   -1.221335    1.093531
     22          6           0       -1.368028   -2.070325    0.303711
     23          6           0       -2.591627   -1.632886   -0.212041
     24          6           0       -3.004248   -0.334477    0.083204
     25          6           0       -2.247402    0.535085    0.866998
     26          6           0       -1.027181    0.076373    1.372163
     27          1           0        0.363435   -1.569411    1.490067
     28          1           0       -1.027739   -3.078649    0.085690
     29          1           0       -3.217102   -2.269242   -0.826248
     30          1           0       -2.613090    1.534901    1.067143
     31          1           0       -0.421757    0.737903    1.985259
     32          7           0       -4.297830    0.139880   -0.457195
     33          8           0       -4.639002    1.288280   -0.182572
     34          8           0       -4.946074   -0.645700   -1.145149
 ---------------------------------------------------------------------

 SCF Done:  E(RHF) =  -669.534603321     A.U. after   15 cycles
 E2 =    -0.2092929191D+01 EUMP2 =    -0.67162753251193D+03

 The electronic state is 1-A.
 Alpha  occ. eigenvalues --  -20.60788 -20.60783 -15.85842 -11.31226 -11.27787
 Alpha  occ. eigenvalues --  -11.27783 -11.27540 -11.26811 -11.26802 -11.22253
 Alpha  occ. eigenvalues --  -11.22149 -11.22130 -11.22009 -11.21706 -11.21639
 Alpha  occ. eigenvalues --   -1.59863  -1.39416  -1.19402  -1.09106  -1.08793
 Alpha  occ. eigenvalues --   -1.04813  -1.04155  -0.96617  -0.95626  -0.87628
 Alpha  occ. eigenvalues --   -0.86215  -0.82456  -0.80218  -0.78925  -0.77498
 Alpha  occ. eigenvalues --   -0.72061  -0.71186  -0.70510  -0.65796  -0.65053
 Alpha  occ. eigenvalues --   -0.64803  -0.62203  -0.61522  -0.59975  -0.58223
 Alpha  occ. eigenvalues --   -0.55937  -0.55295  -0.53316  -0.53139  -0.53019
 Alpha  occ. eigenvalues --   -0.52901  -0.50562  -0.48828  -0.48814  -0.48517
 Alpha  occ. eigenvalues --   -0.47258  -0.46467  -0.46384  -0.44818  -0.44421
 Alpha  occ. eigenvalues --   -0.37324  -0.36361
 Alpha virt. eigenvalues --    0.05010   0.11118   0.16420   0.19637   0.22864
 Alpha virt. eigenvalues --    0.23324   0.25205   0.26403   0.26829   0.28119
 Alpha virt. eigenvalues --    0.29507   0.30364   0.31053   0.31359   0.31589

 Mulliken charges:
               1
     1  C   -0.296822
     2  C   -0.300103
     3  C   -0.475504
     4  H    0.139444
     5  H    0.152653
     6  H    0.151893
     7  H    0.154945
     8  H    0.156608
     9  H    0.151511
    10  H    0.162739
    11  C   -0.298627
    12  C   -0.304867
    13  C   -0.477485
    14  H    0.147443
    15  H    0.152742
    16  H    0.150229
    17  H    0.155888
    18  H    0.159033
    19  H    0.152018
    20  H    0.161882
    21  C   -0.169616
    22  C   -0.218559
    23  C   -0.170779
    24  C    0.158582
    25  C   -0.172705
    26  C   -0.217178
    27  H    0.227020
    28  H    0.223877
    29  H    0.275779
    30  H    0.275849
    31  H    0.224618
    32  N    0.488055
    33  O   -0.460281
    34  O   -0.460283
 Sum of Mulliken charges =  -0.00000

 Dipole moment (field-independent basis, Debye):
    X=              4.5993    Y=             -1.6535    Z=              1.8113  Tot=              5.2123
 Quadrupole moment (field-independent basis, Debye-Ang):
   XX=           -122.4658   YY=            -90.8254   ZZ=            -93.1625
   XY=              4.6951   XZ=             -5.4822   YZ=              1.0326

 Normal termination of Gaussian 16 at Thu May  6 02:46:42 2021.
