 Gaussian 16, Revision A.03,
 Gaussian 16:  EM64L-G16RevA.03 25-Dec-2016

 -------------
 #p 6-31g* mp2
 -------------

 ------------------------------------------------------
 Input file generated by CHIRIPA (05-May-2021 14:57:27)
 ------------------------------------------------------
 Symbolic Z-matrix:
 Charge =  0 Multiplicity = 1

                         Standard orientation:
 ---------------------------------------------------------------------
 Center     Atomic      Atomic             Coordinates (Angstroms)
 Number     Number       Type             X           Y           Z
 ---------------------------------------------------------------------
      1          6           0       -4.337712   -1.905975   -0.170890
      2          6           0       -3.023437   -1.795050    0.294832
      3          6           0       -2.403526   -0.544856    0.380120
      4          6           0       -3.130537    0.578631   -0.010421
      5          6           0       -4.441285    0.500671   -0.478558
      6          6           0       -5.041201   -0.759782   -0.555421
      7          1           0       -4.811507   -2.881141   -0.233871
      8          1           0       -2.474683   -2.683488    0.594150
      9          1           0       -1.387208   -0.430253    0.737026
     10          1           0       -4.962867    1.404334   -0.769698
     11          1           0       -6.062005   -0.842917   -0.917488
     12          7           0       -2.484850    1.907585    0.075410
     13          8           0       -3.146828    2.882162   -0.274765
     14          8           0       -1.329007    1.949480    0.491235
     15          6           0        1.203728   -1.755560    0.556748
     16          6           0        1.745728   -0.908989    1.529411
     17          6           0        2.872090   -0.130958    1.245638
     18          6           0        3.433520   -0.224647   -0.026883
     19          6           0        2.916720   -1.058619   -1.017185
     20          6           0        1.789920   -1.827547   -0.711210
     21          1           0        0.328574   -2.356418    0.785813
     22          1           0        1.292576   -0.851051    2.514976
     23          1           0        3.312167    0.532802    1.979922
     24          1           0        3.390479   -1.094965   -1.990658
     25          1           0        1.371143   -2.484129   -1.468554
     26          7           0        4.626180    0.594201   -0.339052
     27          8           0        5.102198    0.493586   -1.467733
     28          8           0        5.062385    1.321123    0.550861
 ---------------------------------------------------------------------

 SCF Done:  E(RHF) =  -868.336033035     A.U. after   16 cycles
 E2 =    -0.2601591342D+01 EUMP2 =    -0.87093762437709D+03

 The electronic state is 1-A.
 Alpha  occ. eigenvalues --  -20.61194 -20.61188 -20.60667 -20.60656 -15.86254
 Alpha  occ. eigenvalues --  -15.85720 -11.31761 -11.31236 -11.28378 -11.28333
 Alpha  occ. eigenvalues --  -11.28154 -11.27810 -11.27773 -11.27763 -11.27521
 Alpha  occ. eigenvalues --  -11.27355 -11.26955 -11.26933  -1.60267  -1.59731
 Alpha  occ. eigenvalues --   -1.39816  -1.39282  -1.19968  -1.19433  -1.09331
 Alpha  occ. eigenvalues --   -1.08861  -1.05418  -1.04843  -0.96143  -0.95659
 Alpha  occ. eigenvalues --   -0.86798  -0.86269  -0.83001  -0.82463  -0.78017
 Alpha  occ. eigenvalues --   -0.77444  -0.72472  -0.71946  -0.71595  -0.71170
 Alpha  occ. eigenvalues --   -0.71045  -0.70596  -0.65627  -0.65451  -0.65112
 Alpha  occ. eigenvalues --   -0.64882  -0.62773  -0.62180  -0.55932  -0.55466
 Alpha  occ. eigenvalues --   -0.53717  -0.53620  -0.53043  -0.52963  -0.49239
 Alpha  occ. eigenvalues --   -0.49212  -0.48715  -0.48683  -0.45191  -0.44653
 Alpha  occ. eigenvalues --   -0.37947  -0.37516  -0.36984  -0.36390
 Alpha virt. eigenvalues --    0.04520   0.05058   0.10617   0.11143   0.15963
 Alpha virt. eigenvalues --    0.16390   0.18723   0.22119   0.24960   0.26849
 Alpha virt. eigenvalues --    0.27790   0.29416   0.30024   0.31696   0.32934

 Mulliken charges:
               1
     1  C   -0.169871
     2  C   -0.223827
     3  C   -0.175214
     4  C    0.157612
     5  C   -0.169004
     6  C   -0.218895
     7  H    0.226767
     8  H    0.215336
     9  H    0.278362
    10  H    0.277968
    11  H    0.225739
    12  N    0.487449
    13  O   -0.458137
    14  O   -0.459157
    15  C   -0.179552
    16  C   -0.213921
    17  C   -0.165007
    18  C    0.161251
    19  C   -0.169553
    20  C   -0.216908
    21  H    0.216047
    22  H    0.224620
    23  H    0.278941
    24  H    0.276616
    25  H    0.222145
    26  N    0.488131
    27  O   -0.460069
    28  O   -0.457869
 Sum of Mulliken charges =  -0.00000

 Dipole moment (field-independent basis, Debye):
    X=             -6.3406    Y=             -7.2854    Z=              0.7409  Tot=              9.6865
 Quadrupole moment (field-independent basis, Debye-Ang):
   XX=           -115.4025   YY=           -108.8396   ZZ=           -100.7383
   XY=              2.3851   XZ=              6.8233   YZ=              1.0595

 Normal termination of Gaussian 16 at Wed May  5 18:05:34 2021.
