 Gaussian 16, Revision A.03,
 Gaussian 16:  EM64L-G16RevA.03 25-Dec-2016

 -------------
 #p 6-31g* mp2
 -------------

 ------------------------------------------------------
 Input file generated by CHIRIPA (05-May-2021 14:51:09)
 ------------------------------------------------------
 Symbolic Z-matrix:
 Charge =  0 Multiplicity = 1

                         Standard orientation:
 ---------------------------------------------------------------------
 Center     Atomic      Atomic             Coordinates (Angstroms)
 Number     Number       Type             X           Y           Z
 ---------------------------------------------------------------------
      1          6           0       -4.678894   -0.259764    0.313822
      2          6           0       -5.710949   -0.068823   -0.798108
      3          6           0       -7.096190    0.294988   -0.262811
      4          1           0       -5.027320   -1.045761    0.997747
      5          1           0       -4.613286    0.663421    0.906122
      6          1           0       -5.773586   -0.991622   -1.388984
      7          1           0       -5.359934    0.716677   -1.479572
      8          1           0       -7.055300    1.227234    0.309768
      9          1           0       -7.471303   -0.490772    0.400871
     10          1           0       -7.818374    0.426814   -1.074557
     11          6           0       -3.289132   -0.623826   -0.205553
     12          6           0       -2.257077   -0.814767    0.906377
     13          6           0       -0.871836   -1.178579    0.371079
     14          1           0       -3.354740   -1.547012   -0.797854
     15          1           0       -2.940706    0.162170   -0.889478
     16          1           0       -2.608092   -1.600268    1.587841
     17          1           0       -2.194440    0.108031    1.497253
     18          1           0       -0.496723   -0.392819   -0.292602
     19          1           0       -0.912725   -2.110825   -0.201500
     20          1           0       -0.149652   -1.310405    1.182825
     21          6           0        3.723293    1.154445   -0.141244
     22          6           0        2.269061    1.326129    0.298892
     23          6           0        1.761865    2.757220    0.118542
     24          1           0        4.357182    1.844631    0.432142
     25          1           0        3.816830    1.447388   -1.196152
     26          1           0        2.178024    1.031633    1.352267
     27          1           0        1.638585    0.635317   -0.275473
     28          1           0        1.823813    3.058344   -0.932214
     29          1           0        2.366317    3.456912    0.704775
     30          1           0        0.720273    2.857420    0.439332
     31          6           0        4.244732   -0.270854    0.032976
     32          6           0        5.698965   -0.442539   -0.407161
     33          6           0        6.206161   -1.873629   -0.226810
     34          1           0        4.151197   -0.563798    1.087883
     35          1           0        3.610843   -0.961041   -0.540410
     36          1           0        6.329440    0.248274    0.167205
     37          1           0        5.790002   -0.148043   -1.460536
     38          1           0        5.601709   -2.573321   -0.813044
     39          1           0        6.144213   -2.174753    0.823945
     40          1           0        7.247753   -1.973829   -0.547601
 ---------------------------------------------------------------------

 SCF Done:  E(RHF) =  -470.733009303     A.U. after   11 cycles
 E2 =    -0.1582623754D+01 EUMP2 =    -0.47231563305650D+03

 The electronic state is 1-A.
 Alpha  occ. eigenvalues --  -11.21602 -11.21592 -11.21572 -11.21512 -11.21405
 Alpha  occ. eigenvalues --  -11.21361 -11.21346 -11.21302 -11.21071 -11.21062
 Alpha  occ. eigenvalues --  -11.21047 -11.21028  -1.08431  -1.08387  -1.03543
 Alpha  occ. eigenvalues --   -1.03478  -0.95989  -0.95937  -0.87016  -0.86945
 Alpha  occ. eigenvalues --   -0.79673  -0.79483  -0.78262  -0.78177  -0.65091
 Alpha  occ. eigenvalues --   -0.64999  -0.61031  -0.60812  -0.59381  -0.59277
 Alpha  occ. eigenvalues --   -0.57595  -0.57555  -0.55319  -0.55184  -0.52703
 Alpha  occ. eigenvalues --   -0.52620  -0.52408  -0.52365  -0.50029  -0.49822
 Alpha  occ. eigenvalues --   -0.47962  -0.47826  -0.46768  -0.46444  -0.45843
 Alpha  occ. eigenvalues --   -0.45736  -0.45699  -0.45519  -0.43785  -0.43728
 Alpha virt. eigenvalues --    0.21888   0.23033   0.23619   0.24979   0.25992
 Alpha virt. eigenvalues --    0.26724   0.26787   0.27558   0.27880   0.29055
 Alpha virt. eigenvalues --    0.30294   0.31311   0.31500   0.32011   0.32355

 Mulliken charges:
               1
     1  C   -0.298269
     2  C   -0.299658
     3  C   -0.475707
     4  H    0.149673
     5  H    0.149505
     6  H    0.151901
     7  H    0.151941
     8  H    0.155201
     9  H    0.155178
    10  H    0.160253
    11  C   -0.298540
    12  C   -0.299596
    13  C   -0.478967
    14  H    0.149474
    15  H    0.149639
    16  H    0.151833
    17  H    0.151770
    18  H    0.158553
    19  H    0.154472
    20  H    0.161739
    21  C   -0.297854
    22  C   -0.304583
    23  C   -0.476133
    24  H    0.149210
    25  H    0.149108
    26  H    0.151472
    27  H    0.158886
    28  H    0.154783
    29  H    0.155261
    30  H    0.159518
    31  C   -0.298370
    32  C   -0.299590
    33  C   -0.475681
    34  H    0.149233
    35  H    0.150231
    36  H    0.151820
    37  H    0.151833
    38  H    0.155245
    39  H    0.155096
    40  H    0.160119
 Sum of Mulliken charges =  -0.00000

 Dipole moment (field-independent basis, Debye):
    X=             -0.0096    Y=             -0.0169    Z=             -0.0015  Tot=              0.0194
 Quadrupole moment (field-independent basis, Debye-Ang):
   XX=            -86.1630   YY=            -84.8520   ZZ=            -83.9434
   XY=              1.0622   XZ=              0.4945   YZ=              0.1709

 Normal termination of Gaussian 16 at Thu May  6 05:20:40 2021.
