 Gaussian 16, Revision A.03,
 Gaussian 16:  EM64L-G16RevA.03 25-Dec-2016

 -------------
 #p 6-31g* mp2
 -------------

 ------------------------------------------------------
 Input file generated by CHIRIPA (05-May-2021 14:57:25)
 ------------------------------------------------------
 Symbolic Z-matrix:
 Charge =  0 Multiplicity = 1

                         Standard orientation:
 ---------------------------------------------------------------------
 Center     Atomic      Atomic             Coordinates (Angstroms)
 Number     Number       Type             X           Y           Z
 ---------------------------------------------------------------------
      1          6           0        3.177192    2.460487   -0.969804
      2          6           0        2.226047    1.438485   -1.055562
      3          6           0        2.497854    0.170033   -0.534315
      4          6           0        3.736599   -0.042479    0.068712
      5          6           0        4.704838    0.955335    0.169559
      6          6           0        4.411376    2.216082   -0.358595
      7          1           0        2.957634    3.442859   -1.377403
      8          1           0        1.266722    1.625426   -1.529686
      9          1           0        1.779678   -0.639197   -0.587115
     10          1           0        5.652276    0.738774    0.647973
     11          1           0        5.151952    3.007893   -0.290569
     12          7           0        4.035812   -1.381253    0.624188
     13          8           0        5.134631   -1.542972    1.150572
     14          8           0        3.165850   -2.243516    0.522669
     15          6           0       -5.438610    1.404523    0.913835
     16          6           0       -4.104630    1.540585    1.311964
     17          6           0       -3.125843    0.669339    0.824670
     18          6           0       -3.517973   -0.331176   -0.063301
     19          6           0       -4.838839   -0.492384   -0.478772
     20          6           0       -5.800817    0.390260    0.021311
     21          1           0       -6.192427    2.085754    1.297345
     22          1           0       -3.820444    2.327348    2.004992
     23          1           0       -2.085875    0.752046    1.116294
     24          1           0       -5.091671   -1.286432   -1.170857
     25          1           0       -6.836045    0.282220   -0.289620
     26          7           0       -2.490672   -1.259559   -0.585947
     27          8           0       -2.861854   -2.132771   -1.367204
     28          8           0       -1.333744   -1.096434   -0.204445
 ---------------------------------------------------------------------

 SCF Done:  E(RHF) =  -868.338643117     A.U. after   16 cycles
 E2 =    -0.2598849811D+01 EUMP2 =    -0.87093749292887D+03

 The electronic state is 1-A.
 Alpha  occ. eigenvalues --  -20.61258 -20.61217 -20.60002 -20.59957 -15.86286
 Alpha  occ. eigenvalues --  -15.85034 -11.31569 -11.30422 -11.28139 -11.28109
 Alpha  occ. eigenvalues --  -11.27847 -11.27127 -11.27105 -11.27100 -11.26872
 Alpha  occ. eigenvalues --  -11.26849 -11.26136 -11.26013  -1.60301  -1.59063
 Alpha  occ. eigenvalues --   -1.39860  -1.38610  -1.19731  -1.18635  -1.09139
 Alpha  occ. eigenvalues --   -1.08048  -1.05122  -1.04025  -0.95987  -0.94857
 Alpha  occ. eigenvalues --   -0.86523  -0.85434  -0.82824  -0.81674  -0.77883
 Alpha  occ. eigenvalues --   -0.76691  -0.72508  -0.71620  -0.71250  -0.70835
 Alpha  occ. eigenvalues --   -0.70393  -0.69746  -0.65386  -0.65120  -0.64285
 Alpha  occ. eigenvalues --   -0.64037  -0.62469  -0.61330  -0.55619  -0.54588
 Alpha  occ. eigenvalues --   -0.53457  -0.53210  -0.52394  -0.52106  -0.49260
 Alpha  occ. eigenvalues --   -0.49236  -0.48032  -0.47989  -0.45282  -0.44009
 Alpha  occ. eigenvalues --   -0.37706  -0.36723  -0.36679  -0.35641
 Alpha virt. eigenvalues --    0.04639   0.05813   0.10931   0.11999   0.16141
 Alpha virt. eigenvalues --    0.17262   0.21044   0.22126   0.26970   0.27592
 Alpha virt. eigenvalues --    0.28297   0.29081   0.30720   0.31603   0.32275

 Mulliken charges:
               1
     1  C   -0.171767
     2  C   -0.222870
     3  C   -0.176147
     4  C    0.156479
     5  C   -0.171524
     6  C   -0.219901
     7  H    0.221423
     8  H    0.223581
     9  H    0.297657
    10  H    0.273280
    11  H    0.219950
    12  N    0.487079
    13  O   -0.465271
    14  O   -0.453953
    15  C   -0.170496
    16  C   -0.218575
    17  C   -0.172138
    18  C    0.157901
    19  C   -0.170516
    20  C   -0.218493
    21  H    0.226749
    22  H    0.224086
    23  H    0.274559
    24  H    0.276807
    25  H    0.224812
    26  N    0.491211
    27  O   -0.455651
    28  O   -0.468271
 Sum of Mulliken charges =  -0.00000

 Dipole moment (field-independent basis, Debye):
    X=             -5.0740    Y=              7.7904    Z=             -0.1405  Tot=              9.2982
 Quadrupole moment (field-independent basis, Debye-Ang):
   XX=            -81.6082   YY=           -107.0731   ZZ=           -104.8667
   XY=             10.4546   XZ=            -10.1865   YZ=              1.8344

 Normal termination of Gaussian 16 at Thu May  6 05:08:46 2021.
