 Gaussian 16, Revision A.03,
 Gaussian 16:  EM64L-G16RevA.03 25-Dec-2016

 -------------
 #p 6-31g* mp2
 -------------

 ------------------------------------------------------
 Input file generated by CHIRIPA (05-May-2021 14:53:15)
 ------------------------------------------------------
 Symbolic Z-matrix:
 Charge =  0 Multiplicity = 1

                         Standard orientation:
 ---------------------------------------------------------------------
 Center     Atomic      Atomic             Coordinates (Angstroms)
 Number     Number       Type             X           Y           Z
 ---------------------------------------------------------------------
      1          6           0        3.276320   -0.448809   -0.268547
      2          6           0        4.604588   -0.954323   -0.832591
      3          6           0        4.517081   -2.388232   -1.356079
      4          1           0        2.950889   -1.116854    0.540622
      5          1           0        2.507309   -0.508124   -1.051171
      6          1           0        5.371182   -0.892774   -0.049546
      7          1           0        4.926990   -0.284888   -1.640384
      8          1           0        3.772586   -2.461762   -2.155405
      9          1           0        4.219303   -3.073102   -0.555528
     10          1           0        5.477597   -2.729425   -1.754649
     11          6           0        3.347815    0.983198    0.258684
     12          6           0        2.019547    1.488711    0.822728
     13          6           0        2.107053    2.922621    1.346215
     14          1           0        4.116825    1.042513    1.041308
     15          1           0        3.673245    1.651243   -0.550486
     16          1           0        1.697145    0.819276    1.630521
     17          1           0        1.252952    1.427163    0.039682
     18          1           0        2.404831    3.607491    0.545664
     19          1           0        2.851548    2.996150    2.145541
     20          1           0        1.146538    3.263813    1.744785
     21          6           0       -2.084603   -1.872597    1.832668
     22          6           0       -3.103870   -2.132590    0.910702
     23          6           0       -3.391263   -1.217825   -0.106725
     24          6           0       -2.636176   -0.047890   -0.172951
     25          6           0       -1.614372    0.239696    0.730654
     26          6           0       -1.344412   -0.689370    1.739865
     27          1           0       -1.868120   -2.588763    2.619839
     28          1           0       -3.680341   -3.050672    0.980347
     29          1           0       -4.174800   -1.393912   -0.833692
     30          1           0       -1.056886    1.163602    0.635658
     31          1           0       -0.552255   -0.484816    2.454490
     32          7           0       -2.931199    0.928100   -1.245706
     33          8           0       -2.251470    1.951455   -1.282462
     34          8           0       -3.836579    0.651246   -2.029462
 ---------------------------------------------------------------------

 SCF Done:  E(RHF) =  -669.535239352     A.U. after   15 cycles
 E2 =    -0.2092164913D+01 EUMP2 =    -0.67162740426476D+03

 The electronic state is 1-A.
 Alpha  occ. eigenvalues --  -20.60751 -20.60745 -15.85800 -11.31122 -11.27706
 Alpha  occ. eigenvalues --  -11.27645 -11.27446 -11.26717 -11.26687 -11.22187
 Alpha  occ. eigenvalues --  -11.21832 -11.21758 -11.21667 -11.21465 -11.21273
 Alpha  occ. eigenvalues --   -1.59825  -1.39380  -1.19301  -1.08793  -1.08707
 Alpha  occ. eigenvalues --   -1.04702  -1.03890  -0.96307  -0.95546  -0.87320
 Alpha  occ. eigenvalues --   -0.86104  -0.82385  -0.80004  -0.78629  -0.77402
 Alpha  occ. eigenvalues --   -0.72020  -0.71147  -0.70420  -0.65441  -0.64954
 Alpha  occ. eigenvalues --   -0.64695  -0.62095  -0.61273  -0.59668  -0.57930
 Alpha  occ. eigenvalues --   -0.55571  -0.55208  -0.53069  -0.52982  -0.52808
 Alpha  occ. eigenvalues --   -0.52724  -0.50228  -0.48780  -0.48775  -0.48275
 Alpha  occ. eigenvalues --   -0.47000  -0.46143  -0.46041  -0.44791  -0.44133
 Alpha  occ. eigenvalues --   -0.37290  -0.36280
 Alpha virt. eigenvalues --    0.05081   0.11299   0.16560   0.20007   0.22788
 Alpha virt. eigenvalues --    0.23809   0.25059   0.26050   0.27138   0.28285
 Alpha virt. eigenvalues --    0.29354   0.29590   0.31431   0.31519   0.32120

 Mulliken charges:
               1
     1  C   -0.298715
     2  C   -0.300081
     3  C   -0.475880
     4  H    0.145371
     5  H    0.153290
     6  H    0.151545
     7  H    0.154217
     8  H    0.156878
     9  H    0.153410
    10  H    0.161238
    11  C   -0.297621
    12  C   -0.309285
    13  C   -0.476338
    14  H    0.149704
    15  H    0.154489
    16  H    0.142083
    17  H    0.158881
    18  H    0.162310
    19  H    0.155682
    20  H    0.159251
    21  C   -0.170851
    22  C   -0.218744
    23  C   -0.170716
    24  C    0.157934
    25  C   -0.174299
    26  C   -0.221407
    27  H    0.225285
    28  H    0.223141
    29  H    0.275265
    30  H    0.283106
    31  H    0.224806
    32  N    0.488103
    33  O   -0.461618
    34  O   -0.460432
 Sum of Mulliken charges =  -0.00000

 Dipole moment (field-independent basis, Debye):
    X=              1.1681    Y=             -3.3726    Z=              3.6776  Tot=              5.1248
 Quadrupole moment (field-independent basis, Debye-Ang):
   XX=            -97.6756   YY=            -93.7764   ZZ=            -95.5484
   XY=             11.8921   XZ=             -8.7638   YZ=              0.7121

 Normal termination of Gaussian 16 at Thu May  6 12:10:17 2021.
