 Gaussian 16, Revision A.03,
 Gaussian 16:  EM64L-G16RevA.03 25-Dec-2016

 -------------
 #p 6-31g* mp2
 -------------

 ------------------------------------------------------
 Input file generated by CHIRIPA (05-May-2021 14:57:26)
 ------------------------------------------------------
 Symbolic Z-matrix:
 Charge =  0 Multiplicity = 1

                         Standard orientation:
 ---------------------------------------------------------------------
 Center     Atomic      Atomic             Coordinates (Angstroms)
 Number     Number       Type             X           Y           Z
 ---------------------------------------------------------------------
      1          6           0        3.889412    2.322478    0.798790
      2          6           0        2.896041    1.548098    1.407125
      3          6           0        2.613928    0.260820    0.940353
      4          6           0        3.347835   -0.222816   -0.141667
      5          6           0        4.343624    0.524341   -0.768923
      6          6           0        4.608765    1.809033   -0.285381
      7          1           0        4.101972    3.321463    1.167904
      8          1           0        2.335792    1.944264    2.249276
      9          1           0        1.850249   -0.360189    1.392636
     10          1           0        4.885348    0.102212   -1.606634
     11          1           0        5.380791    2.408173   -0.759778
     12          7           0        3.058158   -1.584231   -0.644694
     13          8           0        3.718880   -1.987341   -1.599464
     14          8           0        2.175873   -2.222420   -0.074672
     15          6           0       -1.352655   -1.023836    1.129905
     16          6           0       -2.629872   -1.439998    1.519835
     17          6           0       -3.768865   -0.880505    0.933138
     18          6           0       -3.593078    0.097268   -0.044792
     19          6           0       -2.333922    0.532925   -0.454690
     20          6           0       -1.209009   -0.040436    0.145623
     21          1           0       -0.473326   -1.463849    1.590954
     22          1           0       -2.744451   -2.203533    2.283988
     23          1           0       -4.769438   -1.184134    1.216123
     24          1           0       -2.251542    1.296015   -1.219102
     25          1           0       -0.218341    0.284706   -0.159180
     26          7           0       -4.791427    0.696918   -0.673109
     27          8           0       -4.609679    1.556683   -1.532417
     28          8           0       -5.889748    0.295806   -0.294379
 ---------------------------------------------------------------------

 SCF Done:  E(RHF) =  -868.337888296     A.U. after   16 cycles
 E2 =    -0.2601083229D+01 EUMP2 =    -0.87093897152495D+03

 The electronic state is 1-A.
 Alpha  occ. eigenvalues --  -20.61859 -20.61815 -20.60598 -20.60592 -15.86881
 Alpha  occ. eigenvalues --  -15.85649 -11.32259 -11.30960 -11.28882 -11.28703
 Alpha  occ. eigenvalues --  -11.28421 -11.27800 -11.27711 -11.27534 -11.27524
 Alpha  occ. eigenvalues --  -11.27224 -11.26510 -11.26495  -1.60900  -1.59674
 Alpha  occ. eigenvalues --   -1.40460  -1.39229  -1.20394  -1.19125  -1.09761
 Alpha  occ. eigenvalues --   -1.08525  -1.05791  -1.04525  -0.96614  -0.95370
 Alpha  occ. eigenvalues --   -0.87186  -0.85925  -0.83441  -0.82208  -0.78529
 Alpha  occ. eigenvalues --   -0.77270  -0.73100  -0.72225  -0.71871  -0.71485
 Alpha  occ. eigenvalues --   -0.70996  -0.70214  -0.66027  -0.65784  -0.64777
 Alpha  occ. eigenvalues --   -0.64550  -0.63113  -0.61868  -0.56226  -0.55022
 Alpha  occ. eigenvalues --   -0.54120  -0.53842  -0.52848  -0.52594  -0.49871
 Alpha  occ. eigenvalues --   -0.49828  -0.48627  -0.48623  -0.45853  -0.44647
 Alpha  occ. eigenvalues --   -0.38326  -0.37393  -0.37070  -0.36127
 Alpha virt. eigenvalues --    0.03990   0.05269   0.10145   0.11502   0.15559
 Alpha virt. eigenvalues --    0.16767   0.19473   0.21951   0.25194   0.26929
 Alpha virt. eigenvalues --    0.27551   0.28925   0.30307   0.30801   0.32234

 Mulliken charges:
               1
     1  C   -0.170203
     2  C   -0.220439
     3  C   -0.181417
     4  C    0.158224
     5  C   -0.169705
     6  C   -0.217237
     7  H    0.230139
     8  H    0.227636
     9  H    0.273331
    10  H    0.278935
    11  H    0.227976
    12  N    0.489152
    13  O   -0.453223
    14  O   -0.468681
    15  C   -0.174591
    16  C   -0.218624
    17  C   -0.171074
    18  C    0.158196
    19  C   -0.172165
    20  C   -0.221111
    21  H    0.232977
    22  H    0.224010
    23  H    0.274974
    24  H    0.274383
    25  H    0.222765
    26  N    0.488151
    27  O   -0.461521
    28  O   -0.460858
 Sum of Mulliken charges =  -0.00000

 Dipole moment (field-independent basis, Debye):
    X=              5.6404    Y=              2.7352    Z=              3.9145  Tot=              7.3905
 Quadrupole moment (field-independent basis, Debye-Ang):
   XX=           -123.6179   YY=           -106.3298   ZZ=           -102.2874
   XY=             27.1324   XZ=             -7.4202   YZ=             -2.9295

 Normal termination of Gaussian 16 at Thu May  6 01:59:45 2021.
