 Gaussian 16, Revision A.03,
 Gaussian 16:  EM64L-G16RevA.03 25-Dec-2016

 -------------
 #p 6-31g* mp2
 -------------

 ------------------------------------------------------
 Input file generated by CHIRIPA (05-May-2021 14:57:24)
 ------------------------------------------------------
 Symbolic Z-matrix:
 Charge =  0 Multiplicity = 1

                         Standard orientation:
 ---------------------------------------------------------------------
 Center     Atomic      Atomic             Coordinates (Angstroms)
 Number     Number       Type             X           Y           Z
 ---------------------------------------------------------------------
      1          6           0       -1.711804    2.314417    1.214374
      2          6           0       -1.603701    1.045369    1.792606
      3          6           0       -2.218524   -0.060514    1.197994
      4          6           0       -2.936895    0.139690    0.020220
      5          6           0       -3.062865    1.391497   -0.580113
      6          6           0       -2.439758    2.483134    0.031945
      7          1           0       -1.230977    3.167960    1.683059
      8          1           0       -1.039002    0.911372    2.710867
      9          1           0       -2.150951   -1.054066    1.624264
     10          1           0       -3.632518    1.493780   -1.495783
     11          1           0       -2.525402    3.467530   -0.419358
     12          7           0       -3.592165   -1.023518   -0.618503
     13          8           0       -4.219368   -0.820719   -1.655869
     14          8           0       -3.466157   -2.116013   -0.069675
     15          6           0        4.233732    1.689623   -0.680315
     16          6           0        2.840202    1.756829   -0.780701
     17          6           0        2.051858    0.643233   -0.475800
     18          6           0        2.693084   -0.526786   -0.071851
     19          6           0        4.079300   -0.625046    0.037871
     20          6           0        4.847752    0.500994   -0.272069
     21          1           0        4.838410    2.559525   -0.919127
     22          1           0        2.360621    2.678616   -1.097492
     23          1           0        0.971099    0.667644   -0.544952
     24          1           0        4.528656   -1.557809    0.356389
     25          1           0        5.929783    0.445905   -0.193211
     26          7           0        1.869029   -1.712288    0.253601
     27          8           0        2.458193   -2.731358    0.607180
     28          8           0        0.649575   -1.599966    0.148949
 ---------------------------------------------------------------------

 SCF Done:  E(RHF) =  -868.337772488     A.U. after   16 cycles
 E2 =    -0.2601187886D+01 EUMP2 =    -0.87093896037398D+03

 The electronic state is 1-A.
 Alpha  occ. eigenvalues --  -20.61042 -20.61022 -20.60160 -20.60096 -15.86083
 Alpha  occ. eigenvalues --  -15.85192 -11.31457 -11.30718 -11.28036 -11.28005
 Alpha  occ. eigenvalues --  -11.27803 -11.27445 -11.27275 -11.27250 -11.27072
 Alpha  occ. eigenvalues --  -11.27046 -11.26523 -11.26376  -1.60107  -1.59199
 Alpha  occ. eigenvalues --   -1.39661  -1.38746  -1.19643  -1.18976  -1.09039
 Alpha  occ. eigenvalues --   -1.08359  -1.05045  -1.04393  -0.95867  -0.95141
 Alpha  occ. eigenvalues --   -0.86443  -0.85788  -0.82701  -0.81962  -0.77744
 Alpha  occ. eigenvalues --   -0.76946  -0.72316  -0.71445  -0.71410  -0.70745
 Alpha  occ. eigenvalues --   -0.70511  -0.70100  -0.65297  -0.65051  -0.64627
 Alpha  occ. eigenvalues --   -0.64408  -0.62387  -0.61709  -0.55554  -0.54962
 Alpha  occ. eigenvalues --   -0.53385  -0.53197  -0.52675  -0.52483  -0.49053
 Alpha  occ. eigenvalues --   -0.49047  -0.48199  -0.48143  -0.45069  -0.44114
 Alpha  occ. eigenvalues --   -0.37640  -0.37061  -0.36633  -0.35950
 Alpha virt. eigenvalues --    0.04754   0.05616   0.10950   0.11696   0.16224
 Alpha virt. eigenvalues --    0.17023   0.21086   0.21723   0.26951   0.27636
 Alpha virt. eigenvalues --    0.27947   0.28654   0.30596   0.31215   0.32068

 Mulliken charges:
               1
     1  C   -0.177686
     2  C   -0.223987
     3  C   -0.150628
     4  C    0.155618
     5  C   -0.172949
     6  C   -0.224045
     7  H    0.221422
     8  H    0.223662
     9  H    0.285587
    10  H    0.274281
    11  H    0.219180
    12  N    0.488826
    13  O   -0.465339
    14  O   -0.452447
    15  C   -0.170636
    16  C   -0.220292
    17  C   -0.174230
    18  C    0.156742
    19  C   -0.170608
    20  C   -0.218917
    21  H    0.225615
    22  H    0.221318
    23  H    0.280549
    24  H    0.276494
    25  H    0.224218
    26  N    0.489527
    27  O   -0.458010
    28  O   -0.463263
 Sum of Mulliken charges =  -0.00000

 Dipole moment (field-independent basis, Debye):
    X=              5.2484    Y=              7.8691    Z=              1.1975  Tot=              9.5343
 Quadrupole moment (field-independent basis, Debye-Ang):
   XX=            -99.5847   YY=           -106.2761   ZZ=           -102.8995
   XY=             -4.9232   XZ=             -7.8249   YZ=             -2.6324

 Normal termination of Gaussian 16 at Fri May  7 04:59:46 2021.
