 Gaussian 16, Revision A.03,
 Gaussian 16:  EM64L-G16RevA.03 25-Dec-2016

 -------------
 #p 6-31g* mp2
 -------------

 ------------------------------------------------------
 Input file generated by CHIRIPA (05-May-2021 14:53:12)
 ------------------------------------------------------
 Symbolic Z-matrix:
 Charge =  0 Multiplicity = 1

                         Standard orientation:
 ---------------------------------------------------------------------
 Center     Atomic      Atomic             Coordinates (Angstroms)
 Number     Number       Type             X           Y           Z
 ---------------------------------------------------------------------
      1          6           0       -3.120577    0.607190    0.086401
      2          6           0       -3.636371    1.891159    0.737067
      3          6           0       -2.675513    3.068071    0.565529
      4          1           0       -2.143866    0.351078    0.519284
      5          1           0       -2.950070    0.789573   -0.983673
      6          1           0       -3.807168    1.706019    1.805321
      7          1           0       -4.612056    2.144140    0.302721
      8          1           0       -2.513031    3.281180   -0.495973
      9          1           0       -1.703571    2.840569    1.015165
     10          1           0       -3.063891    3.975606    1.038183
     11          6           0       -4.070166   -0.578323    0.249395
     12          6           0       -3.554372   -1.862292   -0.401270
     13          6           0       -4.515230   -3.039203   -0.229732
     14          1           0       -4.240673   -0.760706    1.319469
     15          1           0       -5.046877   -0.322210   -0.183488
     16          1           0       -2.578687   -2.115273    0.033075
     17          1           0       -3.383575   -1.677152   -1.469525
     18          1           0       -5.487173   -2.811702   -0.679368
     19          1           0       -4.677712   -3.252312    0.831769
     20          1           0       -4.126852   -3.946738   -0.702387
     21          6           0        0.754766    1.223234   -0.920159
     22          6           0        0.666638   -0.126627   -0.564312
     23          6           0        1.798274   -0.820633   -0.125787
     24          6           0        3.007468   -0.130624   -0.054894
     25          6           0        3.127354    1.214052   -0.402405
     26          6           0        1.982678    1.888093   -0.838214
     27          1           0       -0.129382    1.754600   -1.259762
     28          1           0       -0.285661   -0.645518   -0.626957
     29          1           0        1.758358   -1.865850    0.155900
     30          1           0        4.090497    1.704415   -0.329481
     31          1           0        2.054086    2.936393   -1.113920
     32          7           0        4.212383   -0.854770    0.407915
     33          8           0        5.265998   -0.224167    0.461528
     34          8           0        4.080367   -2.039246    0.708289
 ---------------------------------------------------------------------

 SCF Done:  E(RHF) =  -669.535310855     A.U. after   15 cycles
 E2 =    -0.2092997827D+01 EUMP2 =    -0.67162830868226D+03

 The electronic state is 1-A.
 Alpha  occ. eigenvalues --  -20.60703 -20.60698 -15.85755 -11.31100 -11.27670
 Alpha  occ. eigenvalues --  -11.27654 -11.27349 -11.26668 -11.26591 -11.22628
 Alpha  occ. eigenvalues --  -11.22612 -11.22549 -11.22341 -11.22134 -11.21815
 Alpha  occ. eigenvalues --   -1.59779  -1.39333  -1.19265  -1.09488  -1.08653
 Alpha  occ. eigenvalues --   -1.04664  -1.04511  -0.96958  -0.95497  -0.87973
 Alpha  occ. eigenvalues --   -0.86064  -0.82331  -0.80594  -0.79372  -0.77377
 Alpha  occ. eigenvalues --   -0.71973  -0.71102  -0.70350  -0.66128  -0.64909
 Alpha  occ. eigenvalues --   -0.64647  -0.62021  -0.61894  -0.60330  -0.58585
 Alpha  occ. eigenvalues --   -0.56242  -0.55135  -0.53621  -0.53391  -0.53004
 Alpha  occ. eigenvalues --   -0.52747  -0.50888  -0.48897  -0.48734  -0.48729
 Alpha  occ. eigenvalues --   -0.47620  -0.46811  -0.46750  -0.44775  -0.44744
 Alpha  occ. eigenvalues --   -0.37214  -0.36264
 Alpha virt. eigenvalues --    0.05125   0.11253   0.16562   0.19759   0.22071
 Alpha virt. eigenvalues --    0.22637   0.24994   0.25315   0.26563   0.28728
 Alpha virt. eigenvalues --    0.29252   0.30155   0.30773   0.31514   0.31745

 Mulliken charges:
               1
     1  C   -0.308579
     2  C   -0.298624
     3  C   -0.481218
     4  H    0.151708
     5  H    0.144144
     6  H    0.156828
     7  H    0.155344
     8  H    0.149178
     9  H    0.158339
    10  H    0.166024
    11  C   -0.297757
    12  C   -0.303881
    13  C   -0.476074
    14  H    0.153833
    15  H    0.153332
    16  H    0.147906
    17  H    0.151629
    18  H    0.157787
    19  H    0.158138
    20  H    0.163108
    21  C   -0.174489
    22  C   -0.226197
    23  C   -0.173012
    24  C    0.158490
    25  C   -0.171036
    26  C   -0.219762
    27  H    0.231593
    28  H    0.232998
    29  H    0.275079
    30  H    0.275206
    31  H    0.223341
    32  N    0.488089
    33  O   -0.460733
    34  O   -0.460734
 Sum of Mulliken charges =  -0.00000

 Dipole moment (field-independent basis, Debye):
    X=             -4.5348    Y=              2.5391    Z=             -1.5365  Tot=              5.4196
 Quadrupole moment (field-independent basis, Debye-Ang):
   XX=           -118.3961   YY=            -92.6133   ZZ=            -94.5276
   XY=             10.4006   XZ=             -4.9617   YZ=             -0.5200

 Normal termination of Gaussian 16 at Thu May  6 13:38:46 2021.
