 Gaussian 16, Revision A.03,
 Gaussian 16:  EM64L-G16RevA.03 25-Dec-2016

 -------------
 #p 6-31g* mp2
 -------------

 ------------------------------------------------------
 Input file generated by CHIRIPA (05-May-2021 14:57:22)
 ------------------------------------------------------
 Symbolic Z-matrix:
 Charge =  0 Multiplicity = 1

                         Standard orientation:
 ---------------------------------------------------------------------
 Center     Atomic      Atomic             Coordinates (Angstroms)
 Number     Number       Type             X           Y           Z
 ---------------------------------------------------------------------
      1          6           0        3.629481   -1.734075    0.617378
      2          6           0        2.697838   -2.071540   -0.369880
      3          6           0        1.950744   -1.078426   -1.010289
      4          6           0        2.161780    0.248006   -0.637015
      5          6           0        3.082533    0.615990    0.342829
      6          6           0        3.818522   -0.393750    0.969960
      7          1           0        4.205528   -2.512007    1.109706
      8          1           0        2.548928   -3.111624   -0.645734
      9          1           0        1.222908   -1.311656   -1.777932
     10          1           0        3.208860    1.661537    0.596384
     11          1           0        4.541357   -0.128733    1.736328
     12          7           0        1.376744    1.308172   -1.307958
     13          8           0        1.581337    2.469381   -0.961012
     14          8           0        0.571703    0.957846   -2.168086
     15          6           0       -0.502385    1.029499    1.922887
     16          6           0       -1.569552    1.786082    1.427653
     17          6           0       -2.566345    1.185579    0.652831
     18          6           0       -2.464097   -0.179890    0.391431
     19          6           0       -1.413250   -0.960552    0.870576
     20          6           0       -0.427771   -0.338990    1.643261
     21          1           0        0.267553    1.504163    2.523957
     22          1           0       -1.630079    2.849055    1.643224
     23          1           0       -3.403451    1.747601    0.256847
     24          1           0       -1.380113   -2.018218    0.638924
     25          1           0        0.399858   -0.929047    2.026546
     26          7           0       -3.513367   -0.826762   -0.427707
     27          8           0       -3.400323   -2.031395   -0.643850
     28          8           0       -4.428963   -0.116899   -0.838093
 ---------------------------------------------------------------------

 SCF Done:  E(RHF) =  -868.337320434     A.U. after   16 cycles
 E2 =    -0.2605098172D+01 EUMP2 =    -0.87094241860595D+03

 The electronic state is 1-A.
 Alpha  occ. eigenvalues --  -20.61254 -20.61205 -20.60421 -20.60389 -15.86273
 Alpha  occ. eigenvalues --  -15.85458 -11.31765 -11.30814 -11.28424 -11.28309
 Alpha  occ. eigenvalues --  -11.28189 -11.27508 -11.27426 -11.27408 -11.27276
 Alpha  occ. eigenvalues --  -11.27102 -11.26443 -11.26340  -1.60286  -1.59475
 Alpha  occ. eigenvalues --   -1.39843  -1.39033  -1.20016  -1.18974  -1.09368
 Alpha  occ. eigenvalues --   -1.08384  -1.05441  -1.04377  -0.96171  -0.95222
 Alpha  occ. eigenvalues --   -0.86810  -0.85777  -0.83003  -0.82053  -0.78020
 Alpha  occ. eigenvalues --   -0.77099  -0.72508  -0.71688  -0.71621  -0.71098
 Alpha  occ. eigenvalues --   -0.70776  -0.70105  -0.65649  -0.65419  -0.64633
 Alpha  occ. eigenvalues --   -0.64392  -0.62761  -0.61742  -0.55915  -0.54907
 Alpha  occ. eigenvalues --   -0.53989  -0.53504  -0.52586  -0.52352  -0.49277
 Alpha  occ. eigenvalues --   -0.49251  -0.48446  -0.48429  -0.45243  -0.44445
 Alpha  occ. eigenvalues --   -0.38312  -0.37229  -0.36726  -0.35661
 Alpha virt. eigenvalues --    0.04458   0.05414   0.10529   0.11708   0.15969
 Alpha virt. eigenvalues --    0.16977   0.20675   0.21818   0.26481   0.27511
 Alpha virt. eigenvalues --    0.27751   0.28583   0.30361   0.31193   0.32082

 Mulliken charges:
               1
     1  C   -0.174605
     2  C   -0.223320
     3  C   -0.171485
     4  C    0.166860
     5  C   -0.178313
     6  C   -0.221642
     7  H    0.227777
     8  H    0.227339
     9  H    0.280834
    10  H    0.273905
    11  H    0.224271
    12  N    0.490766
    13  O   -0.464577
    14  O   -0.455261
    15  C   -0.176511
    16  C   -0.211058
    17  C   -0.166608
    18  C    0.164305
    19  C   -0.174853
    20  C   -0.221630
    21  H    0.222437
    22  H    0.226669
    23  H    0.277051
    24  H    0.269478
    25  H    0.222289
    26  N    0.488833
    27  O   -0.464924
    28  O   -0.458026
 Sum of Mulliken charges =  -0.00000

 Dipole moment (field-independent basis, Debye):
    X=              6.3708    Y=             -1.3081    Z=              5.0327  Tot=              8.2235
 Quadrupole moment (field-independent basis, Debye-Ang):
   XX=           -109.9646   YY=           -101.6509   ZZ=           -105.3672
   XY=            -14.9593   XZ=             -0.6297   YZ=              5.3147

 Normal termination of Gaussian 16 at Thu May  6 22:39:19 2021.
