 Gaussian 16, Revision A.03,
 Gaussian 16:  EM64L-G16RevA.03 25-Dec-2016

 -------------
 #p 6-31g* mp2
 -------------

 ------------------------------------------------------
 Input file generated by CHIRIPA (05-May-2021 14:57:22)
 ------------------------------------------------------
 Symbolic Z-matrix:
 Charge =  0 Multiplicity = 1

                         Standard orientation:
 ---------------------------------------------------------------------
 Center     Atomic      Atomic             Coordinates (Angstroms)
 Number     Number       Type             X           Y           Z
 ---------------------------------------------------------------------
      1          6           0        4.702829    2.156495    0.441025
      2          6           0        4.941009    1.006252    1.200454
      3          6           0        4.228630   -0.170255    0.949657
      4          6           0        3.281124   -0.161051   -0.072809
      5          6           0        3.021092    0.968816   -0.846808
      6          6           0        3.745319    2.134145   -0.578384
      7          1           0        5.260823    3.066092    0.642697
      8          1           0        5.684024    1.020698    1.992770
      9          1           0        4.392967   -1.074984    1.522262
     10          1           0        2.274098    0.923745   -1.629998
     11          1           0        3.558243    3.025946   -1.169772
     12          7           0        2.520690   -1.400649   -0.347647
     13          8           0        1.691271   -1.366647   -1.254039
     14          8           0        2.768478   -2.382776    0.348532
     15          6           0       -4.992712    1.901117    0.290464
     16          6           0       -4.951901    0.894798    1.261122
     17          6           0       -4.076935   -0.187174    1.125766
     18          6           0       -3.253100   -0.231224    0.002091
     19          6           0       -3.270464    0.755833   -0.982139
     20          6           0       -4.153343    1.828550   -0.826100
     21          1           0       -5.675480    2.738024    0.403645
     22          1           0       -5.602615    0.948541    2.129297
     23          1           0       -4.024785   -0.979966    1.862093
     24          1           0       -2.609668    0.674727   -1.836650
     25          1           0       -4.182883    2.608632   -1.581511
     26          7           0       -2.322624   -1.371761   -0.152152
     27          8           0       -1.607065   -1.387325   -1.151337
     28          8           0       -2.326493   -2.228551    0.729059
 ---------------------------------------------------------------------

 SCF Done:  E(RHF) =  -868.334513986     A.U. after   16 cycles
 E2 =    -0.2600777450D+01 EUMP2 =    -0.87093529143588D+03

 The electronic state is 1-A.
 Alpha  occ. eigenvalues --  -20.59899 -20.59810 -20.59767 -20.59669 -15.84918
 Alpha  occ. eigenvalues --  -15.84779 -11.30693 -11.30579 -11.27314 -11.27302
 Alpha  occ. eigenvalues --  -11.27205 -11.27191 -11.27128 -11.27028 -11.26424
 Alpha  occ. eigenvalues --  -11.26404 -11.26326 -11.26301  -1.58929  -1.58787
 Alpha  occ. eigenvalues --   -1.38473  -1.38328  -1.18905  -1.18794  -1.08224
 Alpha  occ. eigenvalues --   -1.08109  -1.04367  -1.04262  -0.94991  -0.94862
 Alpha  occ. eigenvalues --   -0.85746  -0.85639  -0.81830  -0.81684  -0.76806
 Alpha  occ. eigenvalues --   -0.76668  -0.71210  -0.70890  -0.70313  -0.70096
 Alpha  occ. eigenvalues --   -0.70007  -0.69898  -0.64546  -0.64431  -0.64373
 Alpha  occ. eigenvalues --   -0.64271  -0.61710  -0.61605  -0.54856  -0.54753
 Alpha  occ. eigenvalues --   -0.52678  -0.52568  -0.52464  -0.52361  -0.47982
 Alpha  occ. eigenvalues --   -0.47881  -0.47743  -0.47638  -0.43948  -0.43447
 Alpha  occ. eigenvalues --   -0.36911  -0.36798  -0.35993  -0.35887
 Alpha virt. eigenvalues --    0.05661   0.05950   0.11656   0.11762   0.17089
 Alpha virt. eigenvalues --    0.17358   0.21734   0.21852   0.27608   0.27726
 Alpha virt. eigenvalues --    0.28626   0.28825   0.31215   0.31407   0.32837

 Mulliken charges:
               1
     1  C   -0.172284
     2  C   -0.218555
     3  C   -0.171470
     4  C    0.159493
     5  C   -0.172058
     6  C   -0.218686
     7  H    0.222759
     8  H    0.221479
     9  H    0.275775
    10  H    0.275339
    11  H    0.219928
    12  N    0.486643
    13  O   -0.446781
    14  O   -0.461659
    15  C   -0.172227
    16  C   -0.218540
    17  C   -0.171696
    18  C    0.159162
    19  C   -0.172479
    20  C   -0.218761
    21  H    0.223201
    22  H    0.221755
    23  H    0.275755
    24  H    0.275433
    25  H    0.220619
    26  N    0.485868
    27  O   -0.446832
    28  O   -0.461182
 Sum of Mulliken charges =  -0.00000

 Dipole moment (field-independent basis, Debye):
    X=             -0.6117    Y=              8.1033    Z=              1.3693  Tot=              8.2409
 Quadrupole moment (field-independent basis, Debye-Ang):
   XX=            -67.1933   YY=           -107.6658   ZZ=            -99.1102
   XY=              0.9129   XZ=              1.6700   YZ=             -4.2968

 Normal termination of Gaussian 16 at Fri May  7 00:15:28 2021.
