 Gaussian 16, Revision A.03,
 Gaussian 16:  EM64L-G16RevA.03 25-Dec-2016

 -------------
 #p 6-31g* mp2
 -------------

 ------------------------------------------------------
 Input file generated by CHIRIPA (05-May-2021 14:51:10)
 ------------------------------------------------------
 Symbolic Z-matrix:
 Charge =  0 Multiplicity = 1

                         Standard orientation:
 ---------------------------------------------------------------------
 Center     Atomic      Atomic             Coordinates (Angstroms)
 Number     Number       Type             X           Y           Z
 ---------------------------------------------------------------------
      1          6           0       -2.135831   -0.427493   -0.098312
      2          6           0       -3.167293   -1.534560   -0.318477
      3          6           0       -2.530043   -2.917770   -0.454252
      4          1           0       -1.425575   -0.424886   -0.936449
      5          1           0       -1.552531   -0.653763    0.804993
      6          1           0       -3.749398   -1.305561   -1.220325
      7          1           0       -3.875290   -1.534407    0.520187
      8          1           0       -1.964569   -3.171671    0.448175
      9          1           0       -1.837961   -2.941525   -1.302226
     10          1           0       -3.285381   -3.694150   -0.610966
     11          6           0       -2.757545    0.961126    0.039298
     12          6           0       -1.726082    2.068193    0.259464
     13          6           0       -2.363333    3.451403    0.395238
     14          1           0       -3.340844    1.187395   -0.864006
     15          1           0       -3.467801    0.958519    0.877436
     16          1           0       -1.018086    2.068040   -0.579200
     17          1           0       -1.143978    1.839194    1.161312
     18          1           0       -3.055414    3.475157    1.243212
     19          1           0       -2.928807    3.705304   -0.507188
     20          1           0       -1.607995    4.227782    0.551952
     21          6           0        2.026160   -0.828467    0.331396
     22          6           0        2.541579   -2.225562   -0.015667
     23          6           0        1.689854   -3.338592    0.595500
     24          1           0        2.000784   -0.714846    1.423820
     25          1           0        0.988678   -0.730925   -0.017189
     26          1           0        3.578241   -2.319964    0.332237
     27          1           0        2.565913   -2.335804   -1.107395
     28          1           0        0.656698   -3.272764    0.239333
     29          1           0        1.674777   -3.256834    1.687145
     30          1           0        2.076149   -4.328869    0.334759
     31          6           0        2.867215    0.294835   -0.272382
     32          6           0        2.351796    1.691930    0.074680
     33          6           0        3.203522    2.804959   -0.536487
     34          1           0        3.904698    0.197293    0.076202
     35          1           0        2.892592    0.181213   -1.364806
     36          1           0        2.327462    1.802172    1.166409
     37          1           0        1.315135    1.786331   -0.273223
     38          1           0        3.218599    2.723201   -1.628132
     39          1           0        4.236679    2.739132   -0.180319
     40          1           0        2.817226    3.795237   -0.275745
 ---------------------------------------------------------------------

 SCF Done:  E(RHF) =  -470.732213992     A.U. after   11 cycles
 E2 =    -0.1585364083D+01 EUMP2 =    -0.47231757807546D+03

 The electronic state is 1-A.
 Alpha  occ. eigenvalues --  -11.21673 -11.21635 -11.21501 -11.21473 -11.21449
 Alpha  occ. eigenvalues --  -11.21412 -11.21284 -11.21199 -11.21144 -11.21106
 Alpha  occ. eigenvalues --  -11.21005 -11.20946  -1.08520  -1.08308  -1.03611
 Alpha  occ. eigenvalues --   -1.03416  -0.96061  -0.95869  -0.87092  -0.86873
 Alpha  occ. eigenvalues --   -0.79793  -0.79375  -0.78567  -0.77918  -0.65163
 Alpha  occ. eigenvalues --   -0.64934  -0.61020  -0.60837  -0.59473  -0.59179
 Alpha  occ. eigenvalues --   -0.57820  -0.57375  -0.55333  -0.55174  -0.52745
 Alpha  occ. eigenvalues --   -0.52640  -0.52568  -0.52138  -0.49993  -0.49793
 Alpha  occ. eigenvalues --   -0.48376  -0.47534  -0.46792  -0.46575  -0.46368
 Alpha  occ. eigenvalues --   -0.45821  -0.45575  -0.44817  -0.43839  -0.43667
 Alpha virt. eigenvalues --    0.21165   0.22381   0.23475   0.24999   0.25414
 Alpha virt. eigenvalues --    0.25890   0.26247   0.27429   0.29013   0.30119
 Alpha virt. eigenvalues --    0.30869   0.31022   0.31639   0.31990   0.32195

 Mulliken charges:
               1
     1  C   -0.303007
     2  C   -0.299111
     3  C   -0.479717
     4  H    0.149922
     5  H    0.153491
     6  H    0.151995
     7  H    0.152356
     8  H    0.159069
     9  H    0.155261
    10  H    0.161113
    11  C   -0.297392
    12  C   -0.304486
    13  C   -0.475433
    14  H    0.149342
    15  H    0.149899
    16  H    0.154593
    17  H    0.154638
    18  H    0.155332
    19  H    0.155051
    20  H    0.160626
    21  C   -0.307075
    22  C   -0.298625
    23  C   -0.482156
    24  H    0.147965
    25  H    0.159983
    26  H    0.151362
    27  H    0.150943
    28  H    0.162179
    29  H    0.153906
    30  H    0.159763
    31  C   -0.297242
    32  C   -0.307751
    33  C   -0.475173
    34  H    0.148873
    35  H    0.148348
    36  H    0.150749
    37  H    0.161563
    38  H    0.154397
    39  H    0.154901
    40  H    0.159548
 Sum of Mulliken charges =  -0.00000

 Dipole moment (field-independent basis, Debye):
    X=             -0.1250    Y=              0.0083    Z=              0.0082  Tot=              0.1255
 Quadrupole moment (field-independent basis, Debye-Ang):
   XX=            -85.0169   YY=            -86.7980   ZZ=            -83.2011
   XY=             -0.0582   XZ=              0.5971   YZ=              0.1272

 Normal termination of Gaussian 16 at Wed May  5 19:48:31 2021.
