 Gaussian 16, Revision A.03,
 Gaussian 16:  EM64L-G16RevA.03 25-Dec-2016

 -------------
 #p 6-31g* mp2
 -------------

 ------------------------------------------------------
 Input file generated by CHIRIPA (05-May-2021 14:55:24)
 ------------------------------------------------------
 Symbolic Z-matrix:
 Charge =  0 Multiplicity = 1

                         Standard orientation:
 ---------------------------------------------------------------------
 Center     Atomic      Atomic             Coordinates (Angstroms)
 Number     Number       Type             X           Y           Z
 ---------------------------------------------------------------------
      1          6           0        3.707121    1.436923    1.563454
      2          6           0        2.457385    1.651990    0.973177
      3          6           0        1.917728    0.711565    0.090614
      4          6           0        2.658308   -0.437940   -0.180440
      5          6           0        3.906048   -0.680843    0.391777
      6          6           0        4.426196    0.273245    1.271385
      7          1           0        4.118763    2.172775    2.247902
      8          1           0        1.896709    2.554803    1.198157
      9          1           0        0.952516    0.852803   -0.380381
     10          1           0        4.441425   -1.590457    0.148071
     11          1           0        5.396998    0.103573    1.728332
     12          7           0        2.097323   -1.440758   -1.113206
     13          8           0        2.769644   -2.445330   -1.335597
     14          8           0        0.995926   -1.203206   -1.604255
     15          6           0       -3.518236   -0.251143    0.506673
     16          6           0       -4.860752   -0.980404    0.568419
     17          6           0       -4.839447   -2.178710    1.517841
     18          1           0       -2.738639   -0.957604    0.190308
     19          1           0       -3.244548    0.084751    1.516458
     20          1           0       -5.132491   -1.313613   -0.441406
     21          1           0       -5.637277   -0.272078    0.884488
     22          1           0       -4.592975   -1.859460    2.535648
     23          1           0       -4.085322   -2.906913    1.202220
     24          1           0       -5.809152   -2.685369    1.546659
     25          6           0       -3.523722    0.949161   -0.438297
     26          6           0       -2.181206    1.678422   -0.500043
     27          6           0       -2.202511    2.876728   -1.449465
     28          1           0       -3.797410    0.613268   -1.448082
     29          1           0       -4.303319    1.655623   -0.121932
     30          1           0       -1.404681    0.970096   -0.816112
     31          1           0       -1.909467    2.011632    0.509782
     32          1           0       -2.956636    3.604931   -1.133844
     33          1           0       -2.448982    2.557479   -2.467272
     34          1           0       -1.232807    3.383387   -1.478283
 ---------------------------------------------------------------------

 SCF Done:  E(RHF) =  -669.535959228     A.U. after   15 cycles
 E2 =    -0.2091476217D+01 EUMP2 =    -0.67162743544471D+03

 The electronic state is 1-A.
 Alpha  occ. eigenvalues --  -20.60820 -20.60814 -15.85864 -11.31172 -11.27751
 Alpha  occ. eigenvalues --  -11.27704 -11.27491 -11.26759 -11.26739 -11.21770
 Alpha  occ. eigenvalues --  -11.21377 -11.21320 -11.21254 -11.21150 -11.20825
 Alpha  occ. eigenvalues --   -1.59888  -1.39444  -1.19348  -1.08757  -1.08341
 Alpha  occ. eigenvalues --   -1.04744  -1.03488  -0.95916  -0.95598  -0.86934
 Alpha  occ. eigenvalues --   -0.86149  -0.82431  -0.79589  -0.78155  -0.77469
 Alpha  occ. eigenvalues --   -0.72087  -0.71206  -0.70466  -0.65015  -0.64971
 Alpha  occ. eigenvalues --   -0.64729  -0.62120  -0.60856  -0.59313  -0.57541
 Alpha  occ. eigenvalues --   -0.55263  -0.55168  -0.53079  -0.52855  -0.52638
 Alpha  occ. eigenvalues --   -0.52343  -0.49838  -0.48848  -0.48836  -0.47878
 Alpha  occ. eigenvalues --   -0.46579  -0.45683  -0.45565  -0.44855  -0.43721
 Alpha  occ. eigenvalues --   -0.37335  -0.36344
 Alpha virt. eigenvalues --    0.05042   0.11302   0.16542   0.20432   0.23094
 Alpha virt. eigenvalues --    0.24010   0.25906   0.26663   0.27730   0.28076
 Alpha virt. eigenvalues --    0.29447   0.30248   0.31528   0.31813   0.31907

 Mulliken charges:
               1
     1  C   -0.170292
     2  C   -0.223208
     3  C   -0.176665
     4  C    0.155825
     5  C   -0.169824
     6  C   -0.219211
     7  H    0.225555
     8  H    0.224130
     9  H    0.290242
    10  H    0.275465
    11  H    0.223346
    12  N    0.487730
    13  O   -0.459750
    14  O   -0.463973
    15  C   -0.301406
    16  C   -0.299727
    17  C   -0.476187
    18  H    0.159128
    19  H    0.145795
    20  H    0.153982
    21  H    0.150019
    22  H    0.153298
    23  H    0.158496
    24  H    0.159771
    25  C   -0.295899
    26  C   -0.314465
    27  C   -0.474807
    28  H    0.154051
    29  H    0.148354
    30  H    0.165087
    31  H    0.144848
    32  H    0.155620
    33  H    0.161097
    34  H    0.153573
 Sum of Mulliken charges =  -0.00000

 Dipole moment (field-independent basis, Debye):
    X=              1.9274    Y=              3.4304    Z=              3.2057  Tot=              5.0753
 Quadrupole moment (field-independent basis, Debye-Ang):
   XX=            -80.9461   YY=            -97.3549   ZZ=            -96.4573
   XY=              5.8359   XZ=              9.3843   YZ=             -1.3830

 Normal termination of Gaussian 16 at Wed May  5 22:24:31 2021.
