 Gaussian 16, Revision A.03,
 Gaussian 16:  EM64L-G16RevA.03 25-Dec-2016

 -------------
 #p 6-31g* mp2
 -------------

 ------------------------------------------------------
 Input file generated by CHIRIPA (05-May-2021 14:51:10)
 ------------------------------------------------------
 Symbolic Z-matrix:
 Charge =  0 Multiplicity = 1

                         Standard orientation:
 ---------------------------------------------------------------------
 Center     Atomic      Atomic             Coordinates (Angstroms)
 Number     Number       Type             X           Y           Z
 ---------------------------------------------------------------------
      1          6           0        3.831027   -0.494281   -0.245946
      2          6           0        3.729371   -1.729951    0.648912
      3          6           0        4.254479   -2.995739   -0.029201
      4          1           0        3.270901   -0.674227   -1.173751
      5          1           0        4.880067   -0.346783   -0.537759
      6          1           0        2.681034   -1.874274    0.940079
      7          1           0        4.289646   -1.546970    1.574777
      8          1           0        5.307299   -2.876642   -0.304858
      9          1           0        3.689548   -3.205805   -0.943163
     10          1           0        4.172360   -3.866924    0.628182
     11          6           0        3.309970    0.779059    0.418006
     12          6           0        3.411627    2.014728   -0.476852
     13          6           0        2.886518    3.280516    0.201262
     14          1           0        2.260930    0.631560    0.709820
     15          1           0        3.870097    0.959004    1.345812
     16          1           0        2.851352    1.831747   -1.402717
     17          1           0        4.459963    2.159051   -0.768018
     18          1           0        3.451449    3.490582    1.115224
     19          1           0        1.833698    3.161419    0.476919
     20          1           0        2.968637    4.151701   -0.456121
     21          6           0       -2.873998    0.112791    0.096183
     22          6           0       -1.753462   -0.570303   -0.688525
     23          6           0       -0.366003   -0.049116   -0.312873
     24          1           0       -2.827921    1.196343   -0.079140
     25          1           0       -2.703562   -0.037419    1.171258
     26          1           0       -1.926713   -0.420028   -1.761846
     27          1           0       -1.802330   -1.652375   -0.511466
     28          1           0       -0.167893   -0.213344    0.751262
     29          1           0       -0.292983    1.026005   -0.506223
     30          1           0        0.420030   -0.550991   -0.885702
     31          6           0       -4.266999   -0.397568   -0.268244
     32          6           0       -5.387536    0.285526    0.516465
     33          6           0       -6.774994   -0.235662    0.140812
     34          1           0       -4.437436   -0.247358   -1.343318
     35          1           0       -4.313076   -1.481119   -0.092921
     36          1           0       -5.338667    1.367598    0.339405
     37          1           0       -5.214284    0.135251    1.589786
     38          1           0       -6.848014   -1.310782    0.334162
     39          1           0       -6.973104   -0.071433   -0.923322
     40          1           0       -7.561028    0.266214    0.713641
 ---------------------------------------------------------------------

 SCF Done:  E(RHF) =  -470.733002329     A.U. after   11 cycles
 E2 =    -0.1583536202D+01 EUMP2 =    -0.47231653853153D+03

 The electronic state is 1-A.
 Alpha  occ. eigenvalues --  -11.21693 -11.21639 -11.21537 -11.21495 -11.21469
 Alpha  occ. eigenvalues --  -11.21405 -11.21300 -11.21226 -11.21168 -11.21100
 Alpha  occ. eigenvalues --  -11.21033 -11.21002  -1.08502  -1.08326  -1.03611
 Alpha  occ. eigenvalues --   -1.03449  -0.96082  -0.95887  -0.87102  -0.86909
 Alpha  occ. eigenvalues --   -0.79700  -0.79504  -0.78321  -0.78120  -0.65128
 Alpha  occ. eigenvalues --   -0.64981  -0.61033  -0.60831  -0.59427  -0.59267
 Alpha  occ. eigenvalues --   -0.57675  -0.57509  -0.55393  -0.55168  -0.52758
 Alpha  occ. eigenvalues --   -0.52604  -0.52510  -0.52305  -0.50011  -0.49840
 Alpha  occ. eigenvalues --   -0.48046  -0.47803  -0.46713  -0.46546  -0.45941
 Alpha  occ. eigenvalues --   -0.45777  -0.45678  -0.45437  -0.43829  -0.43685
 Alpha virt. eigenvalues --    0.20449   0.22959   0.23657   0.24649   0.25735
 Alpha virt. eigenvalues --    0.26453   0.26639   0.27635   0.27802   0.29696
 Alpha virt. eigenvalues --    0.30346   0.31093   0.31844   0.31904   0.32387

 Mulliken charges:
               1
     1  C   -0.298776
     2  C   -0.300949
     3  C   -0.475502
     4  H    0.149102
     5  H    0.149229
     6  H    0.152878
     7  H    0.151768
     8  H    0.155142
     9  H    0.154673
    10  H    0.159940
    11  C   -0.306454
    12  C   -0.299319
    13  C   -0.476683
    14  H    0.162490
    15  H    0.148442
    16  H    0.151847
    17  H    0.151260
    18  H    0.155014
    19  H    0.155596
    20  H    0.159658
    21  C   -0.298644
    22  C   -0.300760
    23  C   -0.480815
    24  H    0.149798
    25  H    0.149730
    26  H    0.152264
    27  H    0.152384
    28  H    0.155687
    29  H    0.156844
    30  H    0.163506
    31  C   -0.298345
    32  C   -0.299695
    33  C   -0.475752
    34  H    0.149665
    35  H    0.149788
    36  H    0.152056
    37  H    0.152032
    38  H    0.155242
    39  H    0.155245
    40  H    0.160416
 Sum of Mulliken charges =  -0.00000

 Dipole moment (field-independent basis, Debye):
    X=             -0.0746    Y=             -0.0069    Z=              0.0078  Tot=              0.0753
 Quadrupole moment (field-independent basis, Debye-Ang):
   XX=            -85.3712   YY=            -85.4238   ZZ=            -84.2835
   XY=              0.1532   XZ=              0.3711   YZ=             -0.8605

 Normal termination of Gaussian 16 at Wed May  5 15:09:45 2021.
