 Gaussian 16, Revision A.03,
 Gaussian 16:  EM64L-G16RevA.03 25-Dec-2016

 -------------
 #p 6-31g* mp2
 -------------

 ------------------------------------------------------
 Input file generated by CHIRIPA (05-May-2021 14:55:19)
 ------------------------------------------------------
 Symbolic Z-matrix:
 Charge =  0 Multiplicity = 1

                         Standard orientation:
 ---------------------------------------------------------------------
 Center     Atomic      Atomic             Coordinates (Angstroms)
 Number     Number       Type             X           Y           Z
 ---------------------------------------------------------------------
      1          6           0        3.402475   -2.504917    0.486247
      2          6           0        4.344061   -1.473690    0.566908
      3          6           0        3.988904   -0.160977    0.242567
      4          6           0        2.677464    0.085907   -0.160498
      5          6           0        1.716607   -0.920018   -0.250827
      6          6           0        2.094060   -2.225283    0.078356
      7          1           0        3.687029   -3.521771    0.740083
      8          1           0        5.360918   -1.687924    0.883374
      9          1           0        4.697792    0.656346    0.296222
     10          1           0        0.710588   -0.675544   -0.569537
     11          1           0        1.360709   -3.024158    0.014791
     12          7           0        2.289673    1.471674   -0.506426
     13          8           0        1.127847    1.663079   -0.858791
     14          8           0        3.154892    2.340195   -0.418650
     15          6           0       -3.831645   -0.463668    0.381318
     16          6           0       -4.115641   -1.468863   -0.735335
     17          6           0       -4.761204   -2.756218   -0.221762
     18          1           0       -3.176340   -0.931207    1.128932
     19          1           0       -4.771909   -0.223195    0.896556
     20          1           0       -3.175337   -1.706313   -1.249206
     21          1           0       -4.770191   -0.998811   -1.480474
     22          1           0       -5.713214   -2.538880    0.273256
     23          1           0       -4.109299   -3.250403    0.505838
     24          1           0       -4.955542   -3.460634   -1.036558
     25          6           0       -3.186278    0.828428   -0.116396
     26          6           0       -2.902282    1.833624    1.000257
     27          6           0       -2.256719    3.120979    0.486685
     28          1           0       -2.246014    0.587956   -0.631634
     29          1           0       -3.841583    1.295968   -0.864010
     30          1           0       -2.247732    1.363572    1.745396
     31          1           0       -3.842586    2.071074    1.514128
     32          1           0       -2.908624    3.615163   -0.240916
     33          1           0       -1.304709    2.903641   -0.008334
     34          1           0       -2.062381    3.825395    1.301480
 ---------------------------------------------------------------------

 SCF Done:  E(RHF) =  -669.536306962     A.U. after   15 cycles
 E2 =    -0.2091450389D+01 EUMP2 =    -0.67162775735136D+03

 The electronic state is 1-A.
 Alpha  occ. eigenvalues --  -20.60994 -20.60986 -15.86025 -11.31325 -11.27890
 Alpha  occ. eigenvalues --  -11.27881 -11.27618 -11.26888 -11.26879 -11.21608
 Alpha  occ. eigenvalues --  -11.21216 -11.21162 -11.20944 -11.20884 -11.19852
 Alpha  occ. eigenvalues --   -1.60049  -1.39607  -1.19491  -1.08898  -1.08105
 Alpha  occ. eigenvalues --   -1.04885  -1.03108  -0.95746  -0.95534  -0.86548
 Alpha  occ. eigenvalues --   -0.86286  -0.82580  -0.79228  -0.77865  -0.77624
 Alpha  occ. eigenvalues --   -0.72253  -0.71360  -0.70600  -0.65151  -0.64893
 Alpha  occ. eigenvalues --   -0.64744  -0.62234  -0.60501  -0.58983  -0.57135
 Alpha  occ. eigenvalues --   -0.55389  -0.54813  -0.53216  -0.52977  -0.52231
 Alpha  occ. eigenvalues --   -0.51943  -0.49505  -0.49003  -0.48961  -0.47505
 Alpha  occ. eigenvalues --   -0.46290  -0.45405  -0.45333  -0.44927  -0.43381
 Alpha  occ. eigenvalues --   -0.37467  -0.36485
 Alpha virt. eigenvalues --    0.04870   0.11168   0.16350   0.20252   0.22746
 Alpha virt. eigenvalues --    0.24549   0.25682   0.27403   0.27547   0.28566
 Alpha virt. eigenvalues --    0.29206   0.30950   0.31718   0.31955   0.32357

 Mulliken charges:
               1
     1  C   -0.170387
     2  C   -0.218663
     3  C   -0.170317
     4  C    0.157616
     5  C   -0.171999
     6  C   -0.219081
     7  H    0.226192
     8  H    0.223965
     9  H    0.275963
    10  H    0.277167
    11  H    0.224180
    12  N    0.491872
    13  O   -0.464638
    14  O   -0.458088
    15  C   -0.297931
    16  C   -0.298062
    17  C   -0.475142
    18  H    0.144821
    19  H    0.150029
    20  H    0.145997
    21  H    0.154164
    22  H    0.156644
    23  H    0.151702
    24  H    0.159347
    25  C   -0.300838
    26  C   -0.297234
    27  C   -0.488351
    28  H    0.153305
    29  H    0.150222
    30  H    0.147778
    31  H    0.147834
    32  H    0.150559
    33  H    0.185136
    34  H    0.156240
 Sum of Mulliken charges =  -0.00000

 Dipole moment (field-independent basis, Debye):
    X=              1.5975    Y=             -4.7990    Z=              1.1487  Tot=              5.1867
 Quadrupole moment (field-independent basis, Debye-Ang):
   XX=            -82.7453   YY=            -96.5333   ZZ=            -96.0138
   XY=            -12.3222   XZ=              4.7004   YZ=              1.1554

 Normal termination of Gaussian 16 at Thu May  6 01:19:52 2021.
