 Gaussian 16, Revision A.03,
 Gaussian 16:  EM64L-G16RevA.03 25-Dec-2016

 -------------
 #p 6-31g* mp2
 -------------

 ------------------------------------------------------
 Input file generated by CHIRIPA (05-May-2021 14:57:24)
 ------------------------------------------------------
 Symbolic Z-matrix:
 Charge =  0 Multiplicity = 1

                         Standard orientation:
 ---------------------------------------------------------------------
 Center     Atomic      Atomic             Coordinates (Angstroms)
 Number     Number       Type             X           Y           Z
 ---------------------------------------------------------------------
      1          6           0        1.690835   -2.423453    0.935693
      2          6           0        1.412164   -2.181925   -0.413576
      3          6           0        1.818106   -0.989450   -1.020009
      4          6           0        2.503798   -0.056229   -0.243982
      5          6           0        2.796376   -0.267695    1.102484
      6          6           0        2.380835   -1.467252    1.688090
      7          1           0        1.371761   -3.352547    1.398696
      8          1           0        0.876465   -2.922723   -1.000339
      9          1           0        1.615544   -0.776725   -2.062666
     10          1           0        3.332115    0.489740    1.661674
     11          1           0        2.598636   -1.652127    2.736150
     12          7           0        2.938632    1.209940   -0.874962
     13          8           0        3.541268    2.016092   -0.169564
     14          8           0        2.668584    1.372237   -2.062973
     15          6           0       -1.861005    2.559099    1.021143
     16          6           0       -2.971374    2.385524    0.188394
     17          6           0       -3.297260    1.118936   -0.305670
     18          6           0       -2.487346    0.043116    0.054803
     19          6           0       -1.374561    0.183914    0.882555
     20          6           0       -1.067541    1.459677    1.364961
     21          1           0       -1.615175    3.546579    1.400416
     22          1           0       -3.589380    3.237541   -0.080276
     23          1           0       -4.151139    0.956204   -0.952065
     24          1           0       -0.777377   -0.684480    1.132915
     25          1           0       -0.204612    1.591505    2.011506
     26          7           0       -2.822361   -1.302621   -0.462069
     27          8           0       -2.092892   -2.234327   -0.129749
     28          8           0       -3.808072   -1.400222   -1.189727
 ---------------------------------------------------------------------

 SCF Done:  E(RHF) =  -868.339919499     A.U. after   16 cycles
 E2 =    -0.2602705827D+01 EUMP2 =    -0.87094262532550D+03

 The electronic state is 1-A.
 Alpha  occ. eigenvalues --  -20.61185 -20.61128 -20.61071 -20.61040 -15.86193
 Alpha  occ. eigenvalues --  -15.86106 -11.31454 -11.31231 -11.28036 -11.27834
 Alpha  occ. eigenvalues --  -11.27801 -11.27713 -11.27564 -11.27470 -11.27075
 Alpha  occ. eigenvalues --  -11.26748 -11.26726 -11.26701  -1.60230  -1.60134
 Alpha  occ. eigenvalues --   -1.39795  -1.39688  -1.19604  -1.19386  -1.08967
 Alpha  occ. eigenvalues --   -1.08845  -1.04952  -1.04747  -0.95809  -0.95729
 Alpha  occ. eigenvalues --   -0.86315  -0.86162  -0.82636  -0.82565  -0.77723
 Alpha  occ. eigenvalues --   -0.77641  -0.72444  -0.72314  -0.71548  -0.71459
 Alpha  occ. eigenvalues --   -0.70609  -0.70493  -0.65195  -0.65058  -0.64850
 Alpha  occ. eigenvalues --   -0.64760  -0.62257  -0.62140  -0.55362  -0.55291
 Alpha  occ. eigenvalues --   -0.53531  -0.53029  -0.52964  -0.52620  -0.49199
 Alpha  occ. eigenvalues --   -0.49147  -0.49082  -0.49067  -0.45275  -0.45099
 Alpha  occ. eigenvalues --   -0.37591  -0.37378  -0.36609  -0.36203
 Alpha virt. eigenvalues --    0.04694   0.04899   0.11006   0.11386   0.16101
 Alpha virt. eigenvalues --    0.16586   0.21252   0.21708   0.27046   0.27553
 Alpha virt. eigenvalues --    0.28206   0.28537   0.30963   0.31287   0.32461

 Mulliken charges:
               1
     1  C   -0.180679
     2  C   -0.208789
     3  C   -0.175554
     4  C    0.160408
     5  C   -0.180704
     6  C   -0.223213
     7  H    0.233053
     8  H    0.240173
     9  H    0.278080
    10  H    0.273275
    11  H    0.223928
    12  N    0.488081
    13  O   -0.463674
    14  O   -0.457715
    15  C   -0.167643
    16  C   -0.218821
    17  C   -0.169656
    18  C    0.153862
    19  C   -0.172624
    20  C   -0.222977
    21  H    0.228537
    22  H    0.224523
    23  H    0.275084
    24  H    0.280121
    25  H    0.223519
    26  N    0.488591
    27  O   -0.471114
    28  O   -0.458071
 Sum of Mulliken charges =  -0.00000

 Dipole moment (field-independent basis, Debye):
    X=             -0.3801    Y=              0.1546    Z=              3.8639  Tot=              3.8856
 Quadrupole moment (field-independent basis, Debye-Ang):
   XX=           -115.8183   YY=           -102.9357   ZZ=           -101.5507
   XY=            -24.7020   XZ=              5.4740   YZ=              1.9087

 Normal termination of Gaussian 16 at Thu May  6 22:48:57 2021.
