 Gaussian 16, Revision A.03,
 Gaussian 16:  EM64L-G16RevA.03 25-Dec-2016

 -------------
 #p 6-31g* mp2
 -------------

 ------------------------------------------------------
 Input file generated by CHIRIPA (05-May-2021 14:51:10)
 ------------------------------------------------------
 Symbolic Z-matrix:
 Charge =  0 Multiplicity = 1

                         Standard orientation:
 ---------------------------------------------------------------------
 Center     Atomic      Atomic             Coordinates (Angstroms)
 Number     Number       Type             X           Y           Z
 ---------------------------------------------------------------------
      1          6           0        3.416383   -0.347551   -0.173938
      2          6           0        2.859565   -1.622278   -0.808769
      3          6           0        3.709198   -2.855688   -0.501172
      4          1           0        4.442726   -0.185878   -0.530907
      5          1           0        3.482123   -0.486613    0.914058
      6          1           0        2.793597   -1.480354   -1.895104
      7          1           0        1.834360   -1.780831   -0.450396
      8          1           0        3.765317   -3.025210    0.578973
      9          1           0        4.730004   -2.723026   -0.873943
     10          1           0        3.293046   -3.755612   -0.964653
     11          6           0        2.577893    0.894046   -0.472434
     12          6           0        3.134710    2.168773    0.162397
     13          6           0        2.285077    3.402184   -0.145200
     14          1           0        2.512152    1.033108   -1.560430
     15          1           0        1.551550    0.732373   -0.115465
     16          1           0        4.159916    2.327326   -0.195976
     17          1           0        3.200679    2.026850    1.248731
     18          1           0        1.264272    3.269522    0.227571
     19          1           0        2.228958    3.571705   -1.225346
     20          1           0        2.701230    4.302108    0.318281
     21          6           0       -2.473360   -0.113944    0.855832
     22          6           0       -1.239826   -1.014435    0.781697
     23          6           0       -0.201036   -0.683492    1.853697
     24          1           0       -2.160829    0.934374    0.754354
     25          1           0       -2.929057   -0.209307    1.851142
     26          1           0       -0.787387   -0.918453   -0.213644
     27          1           0       -1.555351   -2.060744    0.883170
     28          1           0       -0.630284   -0.797666    2.854353
     29          1           0        0.142043    0.351116    1.751306
     30          1           0        0.672377   -1.339177    1.782367
     31          6           0       -3.520916   -0.432552   -0.209459
     32          6           0       -4.754449    0.467939   -0.135324
     33          6           0       -5.793240    0.136997   -1.207324
     34          1           0       -3.065219   -0.337189   -1.204769
     35          1           0       -3.833447   -1.480869   -0.107981
     36          1           0       -4.438925    1.514249   -0.236797
     37          1           0       -5.206888    0.371957    0.860017
     38          1           0       -6.136319   -0.897611   -1.104933
     39          1           0       -5.363992    0.251171   -2.207980
     40          1           0       -6.666652    0.792682   -1.135996
 ---------------------------------------------------------------------

 SCF Done:  E(RHF) =  -470.732506003     A.U. after   11 cycles
 E2 =    -0.1584428000D+01 EUMP2 =    -0.47231693400344D+03

 The electronic state is 1-A.
 Alpha  occ. eigenvalues --  -11.21685 -11.21625 -11.21584 -11.21557 -11.21458
 Alpha  occ. eigenvalues --  -11.21392 -11.21351 -11.21278 -11.21165 -11.21093
 Alpha  occ. eigenvalues --  -11.21087 -11.21061  -1.08505  -1.08384  -1.03598
 Alpha  occ. eigenvalues --   -1.03514  -0.96067  -0.95945  -0.87064  -0.86982
 Alpha  occ. eigenvalues --   -0.79672  -0.79562  -0.78305  -0.78210  -0.65333
 Alpha  occ. eigenvalues --   -0.64892  -0.61027  -0.60939  -0.59430  -0.59282
 Alpha  occ. eigenvalues --   -0.57647  -0.57569  -0.55519  -0.55081  -0.52748
 Alpha  occ. eigenvalues --   -0.52652  -0.52495  -0.52365  -0.50088  -0.49810
 Alpha  occ. eigenvalues --   -0.47998  -0.47877  -0.46790  -0.46490  -0.45941
 Alpha  occ. eigenvalues --   -0.45761  -0.45707  -0.45506  -0.43840  -0.43757
 Alpha virt. eigenvalues --    0.19933   0.22780   0.23326   0.24340   0.26212
 Alpha virt. eigenvalues --    0.26512   0.27072   0.27828   0.27963   0.29536
 Alpha virt. eigenvalues --    0.30376   0.31195   0.31698   0.32095   0.32532

 Mulliken charges:
               1
     1  C   -0.297800
     2  C   -0.307046
     3  C   -0.475678
     4  H    0.149604
     5  H    0.149791
     6  H    0.151655
     7  H    0.159111
     8  H    0.154697
     9  H    0.155340
    10  H    0.160196
    11  C   -0.306013
    12  C   -0.299964
    13  C   -0.475590
    14  H    0.148642
    15  H    0.159296
    16  H    0.152044
    17  H    0.152227
    18  H    0.153778
    19  H    0.155241
    20  H    0.160484
    21  C   -0.298069
    22  C   -0.304603
    23  C   -0.481507
    24  H    0.149362
    25  H    0.149871
    26  H    0.155493
    27  H    0.152687
    28  H    0.156722
    29  H    0.156177
    30  H    0.163119
    31  C   -0.298471
    32  C   -0.299743
    33  C   -0.475756
    34  H    0.149984
    35  H    0.149759
    36  H    0.152126
    37  H    0.151946
    38  H    0.155197
    39  H    0.155325
    40  H    0.160368
 Sum of Mulliken charges =  -0.00000

 Dipole moment (field-independent basis, Debye):
    X=             -0.0389    Y=             -0.0125    Z=              0.0109  Tot=              0.0423
 Quadrupole moment (field-independent basis, Debye-Ang):
   XX=            -85.2904   YY=            -85.3396   ZZ=            -84.2202
   XY=              0.8244   XZ=             -1.3847   YZ=             -0.5407

 Normal termination of Gaussian 16 at Thu May  6 07:00:13 2021.
