 Gaussian 16, Revision A.03,
 Gaussian 16:  EM64L-G16RevA.03 25-Dec-2016

 -------------
 #p 6-31g* mp2
 -------------

 ------------------------------------------------------
 Input file generated by CHIRIPA (05-May-2021 14:57:26)
 ------------------------------------------------------
 Symbolic Z-matrix:
 Charge =  0 Multiplicity = 1

                         Standard orientation:
 ---------------------------------------------------------------------
 Center     Atomic      Atomic             Coordinates (Angstroms)
 Number     Number       Type             X           Y           Z
 ---------------------------------------------------------------------
      1          6           0       -5.509707    0.652417    0.896929
      2          6           0       -4.993709    1.529597   -0.062665
      3          6           0       -3.783944    1.248138   -0.704380
      4          6           0       -3.113504    0.075269   -0.360609
      5          6           0       -3.601763   -0.818517    0.591252
      6          6           0       -4.813315   -0.516780    1.220255
      7          1           0       -6.450175    0.878937    1.390491
      8          1           0       -5.532372    2.438348   -0.315765
      9          1           0       -3.361672    1.909726   -1.450977
     10          1           0       -3.041999   -1.716637    0.822471
     11          1           0       -5.211656   -1.199844    1.965099
     12          7           0       -1.831835   -0.233433   -1.033235
     13          8           0       -1.260424   -1.273290   -0.712573
     14          8           0       -1.422942    0.570308   -1.868366
     15          6           0        5.175839    1.582990    0.114833
     16          6           0        4.313832    1.570188    1.216332
     17          6           0        3.284712    0.627753    1.301633
     18          6           0        3.145781   -0.291380    0.262796
     19          6           0        3.988498   -0.304150   -0.847590
     20          6           0        5.010712    0.647429   -0.911803
     21          1           0        5.972601    2.318647    0.056760
     22          1           0        4.439704    2.295556    2.015108
     23          1           0        2.603149    0.595321    2.142964
     24          1           0        3.838082   -1.039891   -1.628281
     25          1           0        5.678667    0.655010   -1.768438
     26          7           0        2.059954   -1.293934    0.341937
     27          8           0        1.958611   -2.093004   -0.586423
     28          8           0        1.330785   -1.261682    1.330831
 ---------------------------------------------------------------------

 SCF Done:  E(RHF) =  -868.335981742     A.U. after   16 cycles
 E2 =    -0.2600906730D+01 EUMP2 =    -0.87093688847172D+03

 The electronic state is 1-A.
 Alpha  occ. eigenvalues --  -20.59863 -20.59696 -20.59489 -20.59398 -15.84815
 Alpha  occ. eigenvalues --  -15.84511 -11.30442 -11.30243 -11.27094 -11.26987
 Alpha  occ. eigenvalues --  -11.26890 -11.26873 -11.26829 -11.26690 -11.26163
 Alpha  occ. eigenvalues --  -11.26103 -11.25991 -11.25948  -1.58863  -1.58472
 Alpha  occ. eigenvalues --   -1.38398  -1.38041  -1.18651  -1.18449  -1.08008
 Alpha  occ. eigenvalues --   -1.07777  -1.04090  -1.03917  -0.94798  -0.94550
 Alpha  occ. eigenvalues --   -0.85477  -0.85300  -0.81617  -0.81400  -0.76617
 Alpha  occ. eigenvalues --   -0.76379  -0.71072  -0.70759  -0.70265  -0.69769
 Alpha  occ. eigenvalues --   -0.69665  -0.69574  -0.64296  -0.64111  -0.64100
 Alpha  occ. eigenvalues --   -0.63934  -0.61427  -0.61268  -0.54605  -0.54421
 Alpha  occ. eigenvalues --   -0.52415  -0.52216  -0.52183  -0.52026  -0.47949
 Alpha  occ. eigenvalues --   -0.47809  -0.47479  -0.47348  -0.43794  -0.43279
 Alpha  occ. eigenvalues --   -0.36662  -0.36444  -0.35707  -0.35532
 Alpha virt. eigenvalues --    0.05885   0.06219   0.11944   0.12117   0.17335
 Alpha virt. eigenvalues --    0.17622   0.22029   0.22155   0.27925   0.28030
 Alpha virt. eigenvalues --    0.28968   0.29084   0.31547   0.31662   0.33292

 Mulliken charges:
               1
     1  C   -0.171841
     2  C   -0.219019
     3  C   -0.172217
     4  C    0.158389
     5  C   -0.169895
     6  C   -0.219208
     7  H    0.222764
     8  H    0.220191
     9  H    0.272975
    10  H    0.282297
    11  H    0.222235
    12  N    0.485473
    13  O   -0.441385
    14  O   -0.470789
    15  C   -0.172069
    16  C   -0.218487
    17  C   -0.171728
    18  C    0.162625
    19  C   -0.168929
    20  C   -0.218424
    21  H    0.222017
    22  H    0.219403
    23  H    0.272104
    24  H    0.276668
    25  H    0.221009
    26  N    0.492260
    27  O   -0.450145
    28  O   -0.466276
 Sum of Mulliken charges =  -0.00000

 Dipole moment (field-independent basis, Debye):
    X=             -0.6907    Y=              4.2322    Z=              2.0131  Tot=              4.7372
 Quadrupole moment (field-independent basis, Debye-Ang):
   XX=            -55.6685   YY=           -103.2453   ZZ=           -102.5760
   XY=              5.4731   XZ=             -7.5422   YZ=              0.3385

 Normal termination of Gaussian 16 at Fri May  7 11:12:53 2021.
