 Gaussian 16, Revision A.03,
 Gaussian 16:  EM64L-G16RevA.03 25-Dec-2016

 -------------
 #p 6-31g* mp2
 -------------

 ------------------------------------------------------
 Input file generated by CHIRIPA (05-May-2021 14:55:25)
 ------------------------------------------------------
 Symbolic Z-matrix:
 Charge =  0 Multiplicity = 1

                         Standard orientation:
 ---------------------------------------------------------------------
 Center     Atomic      Atomic             Coordinates (Angstroms)
 Number     Number       Type             X           Y           Z
 ---------------------------------------------------------------------
      1          6           0       -0.549273   -0.362808    1.535993
      2          6           0       -1.546565    0.502868    1.997008
      3          6           0       -2.724182    0.683073    1.265372
      4          6           0       -2.872045   -0.021421    0.071590
      5          6           0       -1.896716   -0.890994   -0.414071
      6          6           0       -0.727218   -1.055755    0.334044
      7          1           0        0.362375   -0.496797    2.110746
      8          1           0       -1.411092    1.042323    2.930111
      9          1           0       -3.512398    1.347004    1.599033
     10          1           0       -2.060442   -1.415014   -1.347888
     11          1           0        0.045600   -1.728705   -0.026423
     12          7           0       -4.114438    0.161179   -0.711683
     13          8           0       -4.220491   -0.471077   -1.760321
     14          8           0       -4.958648    0.933099   -0.262143
     15          6           0        3.015654   -0.580372   -0.340156
     16          6           0        3.799064   -1.831394    0.058841
     17          6           0        2.988548   -3.116391   -0.113327
     18          1           0        2.099442   -0.521286    0.263176
     19          1           0        2.695060   -0.675301   -1.386866
     20          1           0        4.119270   -1.733524    1.104071
     21          1           0        4.713612   -1.887408   -0.545376
     22          1           0        2.681317   -3.241192   -1.156704
     23          1           0        2.083598   -3.086433    0.502115
     24          1           0        3.567659   -3.998342    0.177623
     25          6           0        3.812590    0.712252   -0.173592
     26          6           0        3.029182    1.963274   -0.572589
     27          6           0        3.839698    3.248271   -0.400421
     28          1           0        4.133184    0.807181    0.873118
     29          1           0        4.728802    0.653165   -0.776924
     30          1           0        2.114633    2.019287    0.031628
     31          1           0        2.708975    1.865403   -1.617819
     32          1           0        4.744646    3.218312   -1.015863
     33          1           0        4.146927    3.373071    0.642956
     34          1           0        3.260586    4.130222   -0.691372
 ---------------------------------------------------------------------

 SCF Done:  E(RHF) =  -669.534176247     A.U. after   15 cycles
 E2 =    -0.2093597457D+01 EUMP2 =    -0.67162777370392D+03

 The electronic state is 1-A.
 Alpha  occ. eigenvalues --  -20.60750 -20.60745 -15.85801 -11.31175 -11.27733
 Alpha  occ. eigenvalues --  -11.27704 -11.27480 -11.26773 -11.26677 -11.22591
 Alpha  occ. eigenvalues --  -11.22355 -11.22240 -11.22199 -11.22129 -11.21562
 Alpha  occ. eigenvalues --   -1.59824  -1.39378  -1.19341  -1.09313  -1.08739
 Alpha  occ. eigenvalues --   -1.04741  -1.04357  -0.96828  -0.95581  -0.87842
 Alpha  occ. eigenvalues --   -0.86160  -0.82403  -0.80436  -0.79122  -0.77434
 Alpha  occ. eigenvalues --   -0.72022  -0.71146  -0.70487  -0.66020  -0.64985
 Alpha  occ. eigenvalues --   -0.64717  -0.62150  -0.61695  -0.60180  -0.58432
 Alpha  occ. eigenvalues --   -0.56170  -0.55247  -0.53494  -0.53310  -0.53030
 Alpha  occ. eigenvalues --   -0.52839  -0.50783  -0.48838  -0.48776  -0.48661
 Alpha  occ. eigenvalues --   -0.47458  -0.46597  -0.46538  -0.44782  -0.44606
 Alpha  occ. eigenvalues --   -0.37291  -0.36315
 Alpha virt. eigenvalues --    0.05046   0.11212   0.16469   0.19411   0.22474
 Alpha virt. eigenvalues --    0.23721   0.25426   0.25882   0.26740   0.28416
 Alpha virt. eigenvalues --    0.29506   0.30424   0.30941   0.31317   0.31881

 Mulliken charges:
               1
     1  C   -0.173937
     2  C   -0.219113
     3  C   -0.171477
     4  C    0.159041
     5  C   -0.173693
     6  C   -0.220917
     7  H    0.224745
     8  H    0.223283
     9  H    0.275500
    10  H    0.275973
    11  H    0.234426
    12  N    0.487989
    13  O   -0.460272
    14  O   -0.460492
    15  C   -0.305897
    16  C   -0.299827
    17  C   -0.480306
    18  H    0.145748
    19  H    0.152026
    20  H    0.151990
    21  H    0.157159
    22  H    0.157701
    23  H    0.146945
    24  H    0.167233
    25  C   -0.298227
    26  C   -0.300723
    27  C   -0.476267
    28  H    0.148141
    29  H    0.152815
    30  H    0.151790
    31  H    0.154696
    32  H    0.156615
    33  H    0.154327
    34  H    0.163005
 Sum of Mulliken charges =  -0.00000

 Dipole moment (field-independent basis, Debye):
    X=              4.5364    Y=             -0.6169    Z=              2.6670  Tot=              5.2984
 Quadrupole moment (field-independent basis, Debye-Ang):
   XX=           -119.4716   YY=            -93.8498   ZZ=            -91.4388
   XY=             -0.1062   XZ=             -9.5983   YZ=              2.5199

 Normal termination of Gaussian 16 at Wed May  5 20:49:04 2021.
