 Gaussian 16, Revision A.03,
 Gaussian 16:  EM64L-G16RevA.03 25-Dec-2016

 -------------
 #p 6-31g* mp2
 -------------

 ------------------------------------------------------
 Input file generated by CHIRIPA (05-May-2021 14:53:18)
 ------------------------------------------------------
 Symbolic Z-matrix:
 Charge =  0 Multiplicity = 1

                         Standard orientation:
 ---------------------------------------------------------------------
 Center     Atomic      Atomic             Coordinates (Angstroms)
 Number     Number       Type             X           Y           Z
 ---------------------------------------------------------------------
      1          6           0        2.982182   -0.454129   -0.604530
      2          6           0        3.007570   -1.874892   -0.039930
      3          6           0        2.393034   -2.900715   -0.992729
      4          1           0        1.943687   -0.173513   -0.827529
      5          1           0        3.522748   -0.437439   -1.561036
      6          1           0        2.468304   -1.888606    0.915905
      7          1           0        4.046106   -2.152088    0.181930
      8          1           0        2.935217   -2.916413   -1.943724
      9          1           0        1.348450   -2.651435   -1.205579
     10          1           0        2.421569   -3.909530   -0.569244
     11          6           0        3.593071    0.582719    0.336473
     12          6           0        3.567683    2.003482   -0.228127
     13          6           0        4.182219    3.029305    0.724672
     14          1           0        3.052505    0.566029    1.292980
     15          1           0        4.631566    0.302103    0.559472
     16          1           0        2.529147    2.280678   -0.449987
     17          1           0        4.106949    2.017196   -1.183962
     18          1           0        5.226803    2.780025    0.937522
     19          1           0        3.640036    3.045003    1.675668
     20          1           0        4.153684    4.038120    0.301188
     21          6           0       -1.468045   -2.060656    1.159795
     22          6           0       -2.060720   -1.083383    1.966142
     23          6           0       -2.673290    0.034720    1.392427
     24          6           0       -2.674842    0.144130    0.002708
     25          6           0       -2.092840   -0.812598   -0.827494
     26          6           0       -1.485965   -1.922388   -0.231996
     27          1           0       -0.994398   -2.925996    1.613932
     28          1           0       -2.048311   -1.188141    3.047307
     29          1           0       -3.139615    0.806250    1.993010
     30          1           0       -2.121097   -0.680540   -1.902287
     31          1           0       -1.026472   -2.679782   -0.860696
     32          7           0       -3.320328    1.323416   -0.616189
     33          8           0       -3.308283    1.396479   -1.843037
     34          8           0       -3.826083    2.152346    0.137285
 ---------------------------------------------------------------------

 SCF Done:  E(RHF) =  -669.535571590     A.U. after   15 cycles
 E2 =    -0.2091795705D+01 EUMP2 =    -0.67162736729513D+03

 The electronic state is 1-A.
 Alpha  occ. eigenvalues --  -20.60820 -20.60815 -15.85874 -11.31262 -11.27838
 Alpha  occ. eigenvalues --  -11.27834 -11.27579 -11.26848 -11.26835 -11.22191
 Alpha  occ. eigenvalues --  -11.21869 -11.21751 -11.21727 -11.21626 -11.21157
 Alpha  occ. eigenvalues --   -1.59895  -1.39448  -1.19440  -1.08834  -1.08772
 Alpha  occ. eigenvalues --   -1.04847  -1.03913  -0.96377  -0.95656  -0.87403
 Alpha  occ. eigenvalues --   -0.86238  -0.82490  -0.79988  -0.78558  -0.77535
 Alpha  occ. eigenvalues --   -0.72091  -0.71220  -0.70535  -0.65442  -0.65088
 Alpha  occ. eigenvalues --   -0.64846  -0.62232  -0.61280  -0.59762  -0.57968
 Alpha  occ. eigenvalues --   -0.55697  -0.55322  -0.53172  -0.53100  -0.53000
 Alpha  occ. eigenvalues --   -0.52710  -0.50308  -0.48852  -0.48845  -0.48294
 Alpha  occ. eigenvalues --   -0.47005  -0.46109  -0.46006  -0.44848  -0.44149
 Alpha  occ. eigenvalues --   -0.37408  -0.36434
 Alpha virt. eigenvalues --    0.04988   0.11095   0.16408   0.20419   0.22757
 Alpha virt. eigenvalues --    0.24074   0.25712   0.26445   0.27217   0.28159
 Alpha virt. eigenvalues --    0.28755   0.30019   0.31191   0.31628   0.32011

 Mulliken charges:
               1
     1  C   -0.299561
     2  C   -0.298069
     3  C   -0.480053
     4  H    0.151927
     5  H    0.150654
     6  H    0.148488
     7  H    0.154114
     8  H    0.159713
     9  H    0.148709
    10  H    0.158193
    11  C   -0.298360
    12  C   -0.300512
    13  C   -0.475878
    14  H    0.148848
    15  H    0.149499
    16  H    0.154889
    17  H    0.152527
    18  H    0.154580
    19  H    0.154963
    20  H    0.162359
    21  C   -0.171803
    22  C   -0.218836
    23  C   -0.170690
    24  C    0.158437
    25  C   -0.172516
    26  C   -0.219150
    27  H    0.226813
    28  H    0.223774
    29  H    0.275908
    30  H    0.276217
    31  H    0.227119
    32  N    0.488061
    33  O   -0.460106
    34  O   -0.460261
 Sum of Mulliken charges =  -0.00000

 Dipole moment (field-independent basis, Debye):
    X=              2.3040    Y=             -4.0757    Z=              2.1849  Tot=              5.1666
 Quadrupole moment (field-independent basis, Debye-Ang):
   XX=           -106.5543   YY=            -96.7670   ZZ=            -90.8470
   XY=             10.6910   XZ=             -7.8673   YZ=              1.5979

 Normal termination of Gaussian 16 at Thu May  6 12:21:29 2021.
