 Gaussian 16, Revision A.03,
 Gaussian 16:  EM64L-G16RevA.03 25-Dec-2016

 -------------
 #p 6-31g* mp2
 -------------

 ------------------------------------------------------
 Input file generated by CHIRIPA (05-May-2021 14:51:10)
 ------------------------------------------------------
 Symbolic Z-matrix:
 Charge =  0 Multiplicity = 1

                         Standard orientation:
 ---------------------------------------------------------------------
 Center     Atomic      Atomic             Coordinates (Angstroms)
 Number     Number       Type             X           Y           Z
 ---------------------------------------------------------------------
      1          6           0        2.816155   -0.249089    0.102237
      2          6           0        1.982420   -0.709389    1.298479
      3          6           0        0.481442   -0.512591    1.083696
      4          1           0        2.608478    0.811537   -0.094965
      5          1           0        2.497280   -0.801632   -0.792420
      6          1           0        2.303718   -0.157133    2.190889
      7          1           0        2.192249   -1.768992    1.492975
      8          1           0        0.140056   -1.076976    0.209896
      9          1           0        0.252158    0.544042    0.911776
     10          1           0       -0.095625   -0.848214    1.950997
     11          6           0        4.318702   -0.439431    0.301858
     12          6           0        5.152437    0.020869   -0.894384
     13          6           0        6.653414   -0.175929   -0.679601
     14          1           0        4.637576    0.113112    1.196515
     15          1           0        4.526379   -1.500057    0.499060
     16          1           0        4.942607    1.080472   -1.088880
     17          1           0        4.831139   -0.531388   -1.786794
     18          1           0        6.882699   -1.232562   -0.507681
     19          1           0        6.994801    0.388455    0.194199
     20          1           0        7.230482    0.159693   -1.546902
     21          6           0       -4.157538   -0.103719   -0.016261
     22          6           0       -4.098771   -1.485472   -0.668403
     23          6           0       -5.286150   -2.370092   -0.287125
     24          1           0       -4.193061   -0.221726    1.075416
     25          1           0       -5.093838    0.392073   -0.307688
     26          1           0       -3.162221   -1.977957   -0.376945
     27          1           0       -4.063190   -1.364157   -1.758647
     28          1           0       -6.228112   -1.903369   -0.592868
     29          1           0       -5.322022   -2.520656    0.796685
     30          1           0       -5.224003   -3.353084   -0.764329
     31          6           0       -2.977318    0.792240   -0.387835
     32          6           0       -3.036086    2.173993    0.264308
     33          6           0       -1.848707    3.058612   -0.116970
     34          1           0       -2.041019    0.296448   -0.096406
     35          1           0       -2.941795    0.910246   -1.479511
     36          1           0       -3.071666    2.052677    1.354552
     37          1           0       -3.972636    2.666477   -0.027150
     38          1           0       -1.812834    3.209176   -1.200780
     39          1           0       -0.906745    2.591890    0.188774
     40          1           0       -1.910855    4.041605    0.360234
 ---------------------------------------------------------------------

 SCF Done:  E(RHF) =  -470.732609582     A.U. after   11 cycles
 E2 =    -0.1583589874D+01 EUMP2 =    -0.47231619945610D+03

 The electronic state is 1-A.
 Alpha  occ. eigenvalues --  -11.21669 -11.21619 -11.21538 -11.21521 -11.21443
 Alpha  occ. eigenvalues --  -11.21382 -11.21286 -11.21187 -11.21167 -11.21084
 Alpha  occ. eigenvalues --  -11.21041 -11.21025  -1.08477  -1.08331  -1.03594
 Alpha  occ. eigenvalues --   -1.03459  -0.96050  -0.95909  -0.87081  -0.86925
 Alpha  occ. eigenvalues --   -0.79708  -0.79497  -0.78314  -0.78099  -0.65114
 Alpha  occ. eigenvalues --   -0.64968  -0.61073  -0.60802  -0.59411  -0.59281
 Alpha  occ. eigenvalues --   -0.57649  -0.57528  -0.55414  -0.55128  -0.52762
 Alpha  occ. eigenvalues --   -0.52626  -0.52502  -0.52323  -0.50051  -0.49799
 Alpha  occ. eigenvalues --   -0.48134  -0.47774  -0.46739  -0.46469  -0.45977
 Alpha  occ. eigenvalues --   -0.45742  -0.45667  -0.45301  -0.43825  -0.43699
 Alpha virt. eigenvalues --    0.21325   0.22924   0.23528   0.24531   0.25605
 Alpha virt. eigenvalues --    0.26221   0.27140   0.27434   0.27926   0.29519
 Alpha virt. eigenvalues --    0.30152   0.31632   0.31784   0.31918   0.32154

 Mulliken charges:
               1
     1  C   -0.298464
     2  C   -0.300104
     3  C   -0.483610
     4  H    0.149764
     5  H    0.149853
     6  H    0.152179
     7  H    0.152222
     8  H    0.156392
     9  H    0.160944
    10  H    0.160603
    11  C   -0.298359
    12  C   -0.299708
    13  C   -0.475741
    14  H    0.149613
    15  H    0.149720
    16  H    0.152168
    17  H    0.152022
    18  H    0.155178
    19  H    0.155220
    20  H    0.160369
    21  C   -0.297312
    22  C   -0.300064
    23  C   -0.475582
    24  H    0.149103
    25  H    0.148850
    26  H    0.151974
    27  H    0.151625
    28  H    0.155109
    29  H    0.155044
    30  H    0.159877
    31  C   -0.310190
    32  C   -0.298755
    33  C   -0.480146
    34  H    0.165712
    35  H    0.148262
    36  H    0.151476
    37  H    0.151536
    38  H    0.155372
    39  H    0.157817
    40  H    0.160031
 Sum of Mulliken charges =  -0.00000

 Dipole moment (field-independent basis, Debye):
    X=              0.0638    Y=             -0.0189    Z=              0.0092  Tot=              0.0672
 Quadrupole moment (field-independent basis, Debye-Ang):
   XX=            -86.5980   YY=            -84.4562   ZZ=            -84.0241
   XY=             -0.6083   XZ=              0.5483   YZ=              0.2357

 Normal termination of Gaussian 16 at Thu May  6 00:38:02 2021.
