 Gaussian 16, Revision A.03,
 Gaussian 16:  EM64L-G16RevA.03 25-Dec-2016

 -------------
 #p 6-31g* mp2
 -------------

 ------------------------------------------------------
 Input file generated by CHIRIPA (05-May-2021 14:57:24)
 ------------------------------------------------------
 Symbolic Z-matrix:
 Charge =  0 Multiplicity = 1

                         Standard orientation:
 ---------------------------------------------------------------------
 Center     Atomic      Atomic             Coordinates (Angstroms)
 Number     Number       Type             X           Y           Z
 ---------------------------------------------------------------------
      1          6           0       -1.841177   -1.524919    0.367229
      2          6           0       -2.968609   -2.165559   -0.157173
      3          6           0       -4.173190   -1.472227   -0.308249
      4          6           0       -4.215017   -0.133167    0.077057
      5          6           0       -3.108958    0.532902    0.602678
      6          6           0       -1.914820   -0.180104    0.744816
      7          1           0       -0.909485   -2.071158    0.481117
      8          1           0       -2.914335   -3.209884   -0.451254
      9          1           0       -5.061214   -1.943672   -0.711448
     10          1           0       -3.193805    1.574730    0.886956
     11          1           0       -1.040835    0.319994    1.152364
     12          7           0       -5.484725    0.611246   -0.078149
     13          8           0       -5.495619    1.790290    0.268800
     14          8           0       -6.444987    0.001578   -0.543809
     15          6           0        2.094898    1.881934   -0.368007
     16          6           0        1.856324    0.505124   -0.431199
     17          6           0        2.907483   -0.405036   -0.285517
     18          6           0        4.190487    0.098652   -0.076982
     19          6           0        4.460158    1.464658   -0.009174
     20          6           0        3.393763    2.356471   -0.157568
     21          1           0        1.272415    2.581843   -0.482230
     22          1           0        0.848633    0.133735   -0.594524
     23          1           0        2.750998   -1.475987   -0.330159
     24          1           0        5.475478    1.804767    0.154739
     25          1           0        3.582001    3.425189   -0.108044
     26          7           0        5.311367   -0.855182    0.078680
     27          8           0        6.432574   -0.386011    0.261469
     28          8           0        5.047481   -2.053906    0.014953
 ---------------------------------------------------------------------

 SCF Done:  E(RHF) =  -868.337194715     A.U. after   16 cycles
 E2 =    -0.2600376312D+01 EUMP2 =    -0.87093757102692D+03

 The electronic state is 1-A.
 Alpha  occ. eigenvalues --  -20.61388 -20.61376 -20.61368 -20.61354 -15.86443
 Alpha  occ. eigenvalues --  -15.86422 -11.31955 -11.31892 -11.28577 -11.28537
 Alpha  occ. eigenvalues --  -11.28500 -11.28437 -11.28352 -11.28238 -11.27640
 Alpha  occ. eigenvalues --  -11.27540 -11.27531 -11.27449  -1.60457  -1.60437
 Alpha  occ. eigenvalues --   -1.40006  -1.39988  -1.20150  -1.20076  -1.09532
 Alpha  occ. eigenvalues --   -1.09445  -1.05582  -1.05493  -0.96331  -0.96267
 Alpha  occ. eigenvalues --   -0.87035  -0.86831  -0.83154  -0.83103  -0.78217
 Alpha  occ. eigenvalues --   -0.78095  -0.72660  -0.72636  -0.71782  -0.71762
 Alpha  occ. eigenvalues --   -0.71273  -0.71176  -0.65893  -0.65767  -0.65717
 Alpha  occ. eigenvalues --   -0.65277  -0.63014  -0.62715  -0.56085  -0.55986
 Alpha  occ. eigenvalues --   -0.53972  -0.53843  -0.53685  -0.53440  -0.49434
 Alpha  occ. eigenvalues --   -0.49406  -0.49396  -0.49386  -0.45379  -0.45371
 Alpha  occ. eigenvalues --   -0.38156  -0.38052  -0.37183  -0.37093
 Alpha virt. eigenvalues --    0.04349   0.04413   0.10207   0.10495   0.15793
 Alpha virt. eigenvalues --    0.15853   0.19272   0.21878   0.25409   0.25967
 Alpha virt. eigenvalues --    0.27993   0.29013   0.30004   0.30553   0.31963

 Mulliken charges:
               1
     1  C   -0.174523
     2  C   -0.217664
     3  C   -0.169605
     4  C    0.159340
     5  C   -0.171322
     6  C   -0.226034
     7  H    0.225526
     8  H    0.227401
     9  H    0.278637
    10  H    0.276049
    11  H    0.223890
    12  N    0.488023
    13  O   -0.459646
    14  O   -0.457692
    15  C   -0.173195
    16  C   -0.227982
    17  C   -0.171954
    18  C    0.159451
    19  C   -0.169787
    20  C   -0.217808
    21  H    0.227345
    22  H    0.224481
    23  H    0.272750
    24  H    0.278132
    25  H    0.226589
    26  N    0.488125
    27  O   -0.457825
    28  O   -0.460702
 Sum of Mulliken charges =  -0.00000

 Dipole moment (field-independent basis, Debye):
    X=              0.4553    Y=              0.7552    Z=             -0.0240  Tot=              0.8822
 Quadrupole moment (field-independent basis, Debye-Ang):
   XX=           -171.6729   YY=            -97.1203   ZZ=           -105.5140
   XY=             29.7263   XZ=             -2.5805   YZ=              1.6749

 Normal termination of Gaussian 16 at Thu May  6 21:12:52 2021.
