 Gaussian 16, Revision A.03,
 Gaussian 16:  EM64L-G16RevA.03 25-Dec-2016

 -------------
 #p 6-31g* mp2
 -------------

 ------------------------------------------------------
 Input file generated by CHIRIPA (05-May-2021 14:51:12)
 ------------------------------------------------------
 Symbolic Z-matrix:
 Charge =  0 Multiplicity = 1

                         Standard orientation:
 ---------------------------------------------------------------------
 Center     Atomic      Atomic             Coordinates (Angstroms)
 Number     Number       Type             X           Y           Z
 ---------------------------------------------------------------------
      1          6           0       -2.896590    1.434899   -0.047305
      2          6           0       -1.434146    1.758966    0.259654
      3          6           0       -1.155220    3.262014    0.288640
      4          1           0       -3.168527    1.878465   -1.014902
      5          1           0       -3.536944    1.913123    0.706780
      6          1           0       -0.796655    1.279127   -0.493988
      7          1           0       -1.165605    1.314415    1.226544
      8          1           0       -1.766805    3.752656    1.052731
      9          1           0       -1.395759    3.717169   -0.677577
     10          1           0       -0.103908    3.471046    0.509796
     11          6           0       -3.191100   -0.063747   -0.079723
     12          6           0       -4.653544   -0.387813   -0.386681
     13          6           0       -4.932471   -1.890861   -0.415667
     14          1           0       -2.550746   -0.541971   -0.833807
     15          1           0       -2.919164   -0.507312    0.887875
     16          1           0       -4.922086    0.056738   -1.353571
     17          1           0       -5.291035    0.092025    0.366961
     18          1           0       -4.691931   -2.346016    0.550550
     19          1           0       -4.320886   -2.381504   -1.179758
     20          1           0       -5.983782   -2.099893   -0.636823
     21          6           0        2.296981   -0.623107    0.210905
     22          6           0        1.591601   -1.972489    0.350866
     23          6           0        0.097982   -1.830999    0.645619
     24          1           0        2.157249   -0.045892    1.135157
     25          1           0        1.816631   -0.047729   -0.592586
     26          1           0        2.074024   -2.545709    1.152929
     27          1           0        1.733191   -2.546637   -0.573755
     28          1           0       -0.402872   -1.281342   -0.157889
     29          1           0       -0.060102   -1.280410    1.578604
     30          1           0       -0.386530   -2.807656    0.741783
     31          6           0        3.790709   -0.748045   -0.083878
     32          6           0        4.496090    0.601337   -0.223840
     33          6           0        5.989708    0.459846   -0.518592
     34          1           0        4.271059   -1.323424    0.719614
     35          1           0        3.930442   -1.325261   -1.008130
     36          1           0        4.354500    1.175484    0.700781
     37          1           0        4.013667    1.174556   -1.025901
     38          1           0        6.147793   -0.090743   -1.451577
     39          1           0        6.490562   -0.089810    0.284916
     40          1           0        6.474221    1.436503   -0.614755
 ---------------------------------------------------------------------

 SCF Done:  E(RHF) =  -470.731923766     A.U. after   11 cycles
 E2 =    -0.1584415188D+01 EUMP2 =    -0.47231633895443D+03

 The electronic state is 1-A.
 Alpha  occ. eigenvalues --  -11.21590 -11.21551 -11.21533 -11.21525 -11.21376
 Alpha  occ. eigenvalues --  -11.21347 -11.21315 -11.21276 -11.21063 -11.21033
 Alpha  occ. eigenvalues --  -11.21026 -11.20894  -1.08430  -1.08354  -1.03503
 Alpha  occ. eigenvalues --   -1.03462  -0.95982  -0.95886  -0.86977  -0.86930
 Alpha  occ. eigenvalues --   -0.79635  -0.79531  -0.78371  -0.77984  -0.65127
 Alpha  occ. eigenvalues --   -0.64936  -0.60934  -0.60837  -0.59408  -0.59200
 Alpha  occ. eigenvalues --   -0.57668  -0.57444  -0.55313  -0.55143  -0.52713
 Alpha  occ. eigenvalues --   -0.52637  -0.52380  -0.52263  -0.49945  -0.49837
 Alpha  occ. eigenvalues --   -0.48063  -0.47784  -0.46768  -0.46552  -0.46029
 Alpha  occ. eigenvalues --   -0.45805  -0.45492  -0.45073  -0.43739  -0.43723
 Alpha virt. eigenvalues --    0.21391   0.23108   0.23788   0.24399   0.24600
 Alpha virt. eigenvalues --    0.26031   0.27110   0.27357   0.28376   0.29990
 Alpha virt. eigenvalues --    0.30391   0.31374   0.31799   0.31911   0.32034

 Mulliken charges:
               1
     1  C   -0.298391
     2  C   -0.301866
     3  C   -0.475912
     4  H    0.148892
     5  H    0.149141
     6  H    0.153412
     7  H    0.153881
     8  H    0.154830
     9  H    0.154654
    10  H    0.160504
    11  C   -0.300914
    12  C   -0.299149
    13  C   -0.475507
    14  H    0.150367
    15  H    0.153419
    16  H    0.151396
    17  H    0.151598
    18  H    0.155293
    19  H    0.154974
    20  H    0.159976
    21  C   -0.299162
    22  C   -0.300756
    23  C   -0.478248
    24  H    0.149713
    25  H    0.150262
    26  H    0.151138
    27  H    0.151073
    28  H    0.162846
    29  H    0.154208
    30  H    0.158695
    31  C   -0.298195
    32  C   -0.299564
    33  C   -0.475667
    34  H    0.149551
    35  H    0.149446
    36  H    0.151822
    37  H    0.151738
    38  H    0.155129
    39  H    0.155182
    40  H    0.160193
 Sum of Mulliken charges =  -0.00000

 Dipole moment (field-independent basis, Debye):
    X=             -0.0204    Y=             -0.0003    Z=              0.0092  Tot=              0.0223
 Quadrupole moment (field-independent basis, Debye-Ang):
   XX=            -86.2202   YY=            -86.0735   ZZ=            -82.7925
   XY=             -0.3696   XZ=              0.1472   YZ=              0.0059

 Normal termination of Gaussian 16 at Wed May  5 16:48:27 2021.
