 Gaussian 16, Revision A.03,
 Gaussian 16:  EM64L-G16RevA.03 25-Dec-2016

 -------------
 #p 6-31g* mp2
 -------------

 ------------------------------------------------------
 Input file generated by CHIRIPA (05-May-2021 14:51:09)
 ------------------------------------------------------
 Symbolic Z-matrix:
 Charge =  0 Multiplicity = 1

                         Standard orientation:
 ---------------------------------------------------------------------
 Center     Atomic      Atomic             Coordinates (Angstroms)
 Number     Number       Type             X           Y           Z
 ---------------------------------------------------------------------
      1          6           0       -2.746661   -0.927849    0.023883
      2          6           0       -1.533715   -0.391050    0.784537
      3          6           0       -0.287227   -1.256152    0.595702
      4          1           0       -2.956321   -1.953341    0.357581
      5          1           0       -2.501607   -0.991041   -1.045393
      6          1           0       -1.781449   -0.327584    1.851877
      7          1           0       -1.327036    0.633352    0.449126
      8          1           0       -0.012514   -1.310170   -0.462700
      9          1           0       -0.469509   -2.276566    0.948021
     10          1           0        0.567872   -0.854197    1.148060
     11          6           0       -4.000542   -0.073740    0.202792
     12          6           0       -5.213487   -0.610539   -0.557862
     13          6           0       -6.459976    0.254563   -0.369028
     14          1           0       -4.245596   -0.010548    1.272068
     15          1           0       -3.790882    0.951752   -0.130907
     16          1           0       -5.420167   -1.634941   -0.222452
     17          1           0       -4.965754   -0.674005   -1.625203
     18          1           0       -6.277694    1.274977   -0.721346
     19          1           0       -6.734688    0.308581    0.689375
     20          1           0       -7.315074   -0.147392   -0.921386
     21          6           0        3.821684   -0.016593    0.225727
     22          6           0        4.564974   -0.915794   -0.762676
     23          6           0        5.457309   -1.945665   -0.069207
     24          1           0        4.552543    0.499477    0.863271
     25          1           0        3.211790   -0.641863    0.892408
     26          1           0        5.172212   -0.288917   -1.428186
     27          1           0        3.832268   -1.429637   -1.398068
     28          1           0        4.862427   -2.595173    0.581066
     29          1           0        6.209985   -1.447972    0.550777
     30          1           0        5.979178   -2.577824   -0.794389
     31          6           0        2.925519    1.018181   -0.452402
     32          6           0        2.182229    1.917384    0.536001
     33          6           0        1.289894    2.947254   -0.157467
     34          1           0        3.535413    1.643452   -1.119082
     35          1           0        2.194660    0.502112   -1.089946
     36          1           0        2.914935    2.431226    1.171393
     37          1           0        1.574991    1.290507    1.201511
     38          1           0        0.537217    2.449562   -0.777452
     39          1           0        1.884775    3.596762   -0.807741
     40          1           0        0.768025    3.579414    0.567714
 ---------------------------------------------------------------------

 SCF Done:  E(RHF) =  -470.732784011     A.U. after   11 cycles
 E2 =    -0.1584025726D+01 EUMP2 =    -0.47231680973624D+03

 The electronic state is 1-A.
 Alpha  occ. eigenvalues --  -11.21656 -11.21622 -11.21564 -11.21560 -11.21444
 Alpha  occ. eigenvalues --  -11.21381 -11.21361 -11.21301 -11.21140 -11.21085
 Alpha  occ. eigenvalues --  -11.21079 -11.21036  -1.08483  -1.08386  -1.03600
 Alpha  occ. eigenvalues --   -1.03480  -0.96032  -0.95953  -0.87067  -0.86954
 Alpha  occ. eigenvalues --   -0.79639  -0.79568  -0.78281  -0.78216  -0.65231
 Alpha  occ. eigenvalues --   -0.64965  -0.61147  -0.60780  -0.59409  -0.59263
 Alpha  occ. eigenvalues --   -0.57622  -0.57566  -0.55317  -0.55247  -0.52773
 Alpha  occ. eigenvalues --   -0.52615  -0.52469  -0.52371  -0.50054  -0.49813
 Alpha  occ. eigenvalues --   -0.47984  -0.47880  -0.46660  -0.46586  -0.45840
 Alpha  occ. eigenvalues --   -0.45750  -0.45730  -0.45627  -0.43794  -0.43741
 Alpha virt. eigenvalues --    0.19875   0.22979   0.23635   0.24970   0.25564
 Alpha virt. eigenvalues --    0.26180   0.26577   0.27373   0.28389   0.29536
 Alpha virt. eigenvalues --    0.30828   0.31136   0.31682   0.32012   0.32420

 Mulliken charges:
               1
     1  C   -0.298331
     2  C   -0.303732
     3  C   -0.482106
     4  H    0.149857
     5  H    0.149387
     6  H    0.152149
     7  H    0.156010
     8  H    0.155234
     9  H    0.155503
    10  H    0.165883
    11  C   -0.298362
    12  C   -0.299684
    13  C   -0.475747
    14  H    0.149641
    15  H    0.149916
    16  H    0.151962
    17  H    0.151954
    18  H    0.155313
    19  H    0.155220
    20  H    0.160324
    21  C   -0.300991
    22  C   -0.299451
    23  C   -0.475799
    24  H    0.149380
    25  H    0.151849
    26  H    0.151686
    27  H    0.152160
    28  H    0.155475
    29  H    0.154981
    30  H    0.160103
    31  C   -0.299560
    32  C   -0.303941
    33  C   -0.476686
    34  H    0.149398
    35  H    0.151879
    36  H    0.151825
    37  H    0.156398
    38  H    0.155454
    39  H    0.155206
    40  H    0.160246
 Sum of Mulliken charges =  -0.00000

 Dipole moment (field-independent basis, Debye):
    X=             -0.0242    Y=             -0.0066    Z=              0.0078  Tot=              0.0262
 Quadrupole moment (field-independent basis, Debye-Ang):
   XX=            -85.5948   YY=            -84.9904   ZZ=            -84.2374
   XY=              1.6977   XZ=             -0.4403   YZ=             -0.2197

 Normal termination of Gaussian 16 at Thu May  6 02:10:06 2021.
