 Gaussian 16, Revision A.03,
 Gaussian 16:  EM64L-G16RevA.03 25-Dec-2016

 -------------
 #p 6-31g* mp2
 -------------

 ------------------------------------------------------
 Input file generated by CHIRIPA (05-May-2021 14:53:16)
 ------------------------------------------------------
 Symbolic Z-matrix:
 Charge =  0 Multiplicity = 1

                         Standard orientation:
 ---------------------------------------------------------------------
 Center     Atomic      Atomic             Coordinates (Angstroms)
 Number     Number       Type             X           Y           Z
 ---------------------------------------------------------------------
      1          6           0        3.513873    0.509352   -0.580280
      2          6           0        3.292172    1.854896    0.111343
      3          6           0        2.416080    2.803300   -0.707673
      4          1           0        3.975234    0.680758   -1.562477
      5          1           0        2.539761    0.037850   -0.770511
      6          1           0        4.266476    2.323089    0.301459
      7          1           0        2.831461    1.680254    1.092089
      8          1           0        1.430876    2.360351   -0.885916
      9          1           0        2.874044    3.006838   -1.681039
     10          1           0        2.270549    3.759089   -0.194694
     11          6           0        4.387783   -0.449619    0.226183
     12          6           0        4.609485   -1.795164   -0.465440
     13          6           0        5.485577   -2.743568    0.353576
     14          1           0        5.361895    0.021882    0.416414
     15          1           0        3.926423   -0.621026    1.208380
     16          1           0        5.070196   -1.620522   -1.446186
     17          1           0        3.635181   -2.263357   -0.655556
     18          1           0        5.027612   -2.947106    1.326942
     19          1           0        6.470781   -2.300619    0.531820
     20          1           0        5.631107   -3.699357   -0.159403
     21          6           0       -4.937432   -1.412022   -0.867579
     22          6           0       -4.157946   -0.586984   -1.685035
     23          6           0       -3.129783    0.186825   -1.138547
     24          6           0       -2.907651    0.110921    0.235565
     25          6           0       -3.667033   -0.701413    1.076246
     26          6           0       -4.689924   -1.466508    0.508027
     27          1           0       -5.734086   -2.009751   -1.300544
     28          1           0       -4.347901   -0.542671   -2.753678
     29          1           0       -2.511118    0.834077   -1.748251
     30          1           0       -3.453833   -0.724516    2.138051
     31          1           0       -5.293690   -2.106347    1.145301
     32          7           0       -1.821972    0.925505    0.825610
     33          8           0       -1.646405    0.840843    2.039136
     34          8           0       -1.167140    1.633213    0.063388
 ---------------------------------------------------------------------

 SCF Done:  E(RHF) =  -669.536125275     A.U. after   15 cycles
 E2 =    -0.2090810163D+01 EUMP2 =    -0.67162693543860D+03

 The electronic state is 1-A.
 Alpha  occ. eigenvalues --  -20.60973 -20.60965 -15.86011 -11.31318 -11.27880
 Alpha  occ. eigenvalues --  -11.27876 -11.27615 -11.26884 -11.26875 -11.21052
 Alpha  occ. eigenvalues --  -11.20636 -11.20622 -11.20448 -11.20355 -11.19537
 Alpha  occ. eigenvalues --   -1.60036  -1.39592  -1.19486  -1.08892  -1.07568
 Alpha  occ. eigenvalues --   -1.04880  -1.02601  -0.95737  -0.95047  -0.86281
 Alpha  occ. eigenvalues --   -0.86071  -0.82571  -0.78714  -0.77626  -0.77344
 Alpha  occ. eigenvalues --   -0.72236  -0.71352  -0.70594  -0.65142  -0.64882
 Alpha  occ. eigenvalues --   -0.64195  -0.62227  -0.59979  -0.58484  -0.56655
 Alpha  occ. eigenvalues --   -0.55385  -0.54317  -0.53212  -0.52971  -0.51749
 Alpha  occ. eigenvalues --   -0.51483  -0.49147  -0.48987  -0.48818  -0.47013
 Alpha  occ. eigenvalues --   -0.45750  -0.45048  -0.44871  -0.44726  -0.42876
 Alpha  occ. eigenvalues --   -0.37464  -0.36481
 Alpha virt. eigenvalues --    0.04889   0.11174   0.16376   0.21295   0.23685
 Alpha virt. eigenvalues --    0.25303   0.27222   0.27462   0.28102   0.28345
 Alpha virt. eigenvalues --    0.29040   0.30848   0.32143   0.32507   0.32627

 Mulliken charges:
               1
     1  C   -0.297672
     2  C   -0.298907
     3  C   -0.482169
     4  H    0.145375
     5  H    0.150244
     6  H    0.145762
     7  H    0.158895
     8  H    0.177696
     9  H    0.144382
    10  H    0.158644
    11  C   -0.298112
    12  C   -0.298688
    13  C   -0.475219
    14  H    0.147800
    15  H    0.151167
    16  H    0.150164
    17  H    0.150084
    18  H    0.155046
    19  H    0.154622
    20  H    0.157617
    21  C   -0.170563
    22  C   -0.218521
    23  C   -0.170764
    24  C    0.157443
    25  C   -0.170614
    26  C   -0.218578
    27  H    0.226109
    28  H    0.224004
    29  H    0.275781
    30  H    0.275860
    31  H    0.223897
    32  N    0.492474
    33  O   -0.459070
    34  O   -0.464188
 Sum of Mulliken charges =  -0.00000

 Dipole moment (field-independent basis, Debye):
    X=             -4.1510    Y=             -2.8505    Z=             -2.0020  Tot=              5.4188
 Quadrupole moment (field-independent basis, Debye-Ang):
   XX=            -73.6420   YY=            -96.2964   ZZ=            -91.8184
   XY=              9.4211   XZ=              3.7694   YZ=             -2.4583

 Normal termination of Gaussian 16 at Thu May  6 10:38:11 2021.
