 Gaussian 16, Revision A.03,
 Gaussian 16:  EM64L-G16RevA.03 25-Dec-2016

 -------------
 #p 6-31g* mp2
 -------------

 ------------------------------------------------------
 Input file generated by CHIRIPA (05-May-2021 14:51:13)
 ------------------------------------------------------
 Symbolic Z-matrix:
 Charge =  0 Multiplicity = 1

                         Standard orientation:
 ---------------------------------------------------------------------
 Center     Atomic      Atomic             Coordinates (Angstroms)
 Number     Number       Type             X           Y           Z
 ---------------------------------------------------------------------
      1          6           0        3.821880   -0.195079    0.182868
      2          6           0        4.327361   -0.204670   -1.260179
      3          6           0        5.736245    0.373386   -1.396889
      4          1           0        3.835235    0.835769    0.562498
      5          1           0        4.517130   -0.768662    0.811378
      6          1           0        3.630629    0.367599   -1.886029
      7          1           0        4.312621   -1.235589   -1.636481
      8          1           0        6.448540   -0.201710   -0.796471
      9          1           0        5.762673    1.410587   -1.047437
     10          1           0        6.077829    0.356863   -2.436556
     11          6           0        2.414763   -0.769873    0.335710
     12          6           0        1.909282   -0.760282    1.778756
     13          6           0        0.500398   -1.338338    1.915466
     14          1           0        1.719513   -0.196289   -0.292801
     15          1           0        2.401409   -1.800721   -0.043921
     16          1           0        1.924023    0.270638    2.155058
     17          1           0        2.606015   -1.332551    2.404606
     18          1           0        0.473970   -2.375539    1.566014
     19          1           0       -0.211897   -0.763242    1.315048
     20          1           0        0.158814   -1.321815    2.955133
     21          6           0       -2.488149    0.848699   -0.030826
     22          6           0       -2.655386    2.367623    0.022926
     23          6           0       -1.386167    3.086222    0.481724
     24          1           0       -2.196950    0.482850    0.963307
     25          1           0       -1.660135    0.601768   -0.709657
     26          1           0       -3.483736    2.611554    0.700384
     27          1           0       -2.946408    2.729877   -0.971405
     28          1           0       -0.555102    2.872029   -0.198020
     29          1           0       -1.095483    2.753035    1.483267
     30          1           0       -1.527993    4.171014    0.512916
     31          6           0       -3.748494    0.116252   -0.487751
     32          6           0       -3.581258   -1.402670   -0.541503
     33          6           0       -4.850475   -2.121270   -1.000301
     34          1           0       -4.576509    0.363184    0.191079
     35          1           0       -4.039694    0.482102   -1.481886
     36          1           0       -3.290235   -1.764924    0.452828
     37          1           0       -2.752908   -1.646602   -1.218961
     38          1           0       -5.141161   -1.788083   -2.001844
     39          1           0       -5.681542   -1.907078   -0.320557
     40          1           0       -4.708650   -3.206061   -1.031494
 ---------------------------------------------------------------------

 SCF Done:  E(RHF) =  -470.733175962     A.U. after   11 cycles
 E2 =    -0.1583196658D+01 EUMP2 =    -0.47231637261922D+03

 The electronic state is 1-A.
 Alpha  occ. eigenvalues --  -11.21654 -11.21590 -11.21586 -11.21535 -11.21442
 Alpha  occ. eigenvalues --  -11.21378 -11.21370 -11.21310 -11.21140 -11.21065
 Alpha  occ. eigenvalues --  -11.21057 -11.20924  -1.08472  -1.08386  -1.03559
 Alpha  occ. eigenvalues --   -1.03479  -0.96021  -0.95923  -0.87039  -0.86940
 Alpha  occ. eigenvalues --   -0.79633  -0.79547  -0.78334  -0.78158  -0.65106
 Alpha  occ. eigenvalues --   -0.65013  -0.60962  -0.60877  -0.59379  -0.59299
 Alpha  occ. eigenvalues --   -0.57679  -0.57501  -0.55343  -0.55188  -0.52713
 Alpha  occ. eigenvalues --   -0.52625  -0.52499  -0.52299  -0.50003  -0.49845
 Alpha  occ. eigenvalues --   -0.47987  -0.47849  -0.46691  -0.46627  -0.45936
 Alpha  occ. eigenvalues --   -0.45739  -0.45700  -0.45381  -0.43815  -0.43741
 Alpha virt. eigenvalues --    0.21231   0.23152   0.23849   0.24745   0.25625
 Alpha virt. eigenvalues --    0.25821   0.26980   0.27880   0.28282   0.29365
 Alpha virt. eigenvalues --    0.31065   0.31389   0.31554   0.31883   0.32185

 Mulliken charges:
               1
     1  C   -0.298355
     2  C   -0.299550
     3  C   -0.475688
     4  H    0.149840
     5  H    0.149511
     6  H    0.151547
     7  H    0.151852
     8  H    0.155193
     9  H    0.155232
    10  H    0.160122
    11  C   -0.298591
    12  C   -0.298922
    13  C   -0.484921
    14  H    0.149440
    15  H    0.149472
    16  H    0.151807
    17  H    0.151426
    18  H    0.154597
    19  H    0.165790
    20  H    0.158430
    21  C   -0.304619
    22  C   -0.298916
    23  C   -0.476455
    24  H    0.155486
    25  H    0.149665
    26  H    0.152221
    27  H    0.152113
    28  H    0.154529
    29  H    0.155515
    30  H    0.160797
    31  C   -0.297676
    32  C   -0.300662
    33  C   -0.475698
    34  H    0.149558
    35  H    0.149613
    36  H    0.153507
    37  H    0.152173
    38  H    0.155066
    39  H    0.155130
    40  H    0.160419
 Sum of Mulliken charges =  -0.00000

 Dipole moment (field-independent basis, Debye):
    X=             -0.0526    Y=              0.0166    Z=             -0.0081  Tot=              0.0558
 Quadrupole moment (field-independent basis, Debye-Ang):
   XX=            -86.2276   YY=            -84.5025   ZZ=            -84.0636
   XY=             -1.2903   XZ=             -0.3031   YZ=             -0.2534

 Normal termination of Gaussian 16 at Wed May  5 16:52:31 2021.
