 Gaussian 16, Revision A.03,
 Gaussian 16:  EM64L-G16RevA.03 25-Dec-2016

 -------------
 #p 6-31g* mp2
 -------------

 ------------------------------------------------------
 Input file generated by CHIRIPA (05-May-2021 14:53:16)
 ------------------------------------------------------
 Symbolic Z-matrix:
 Charge =  0 Multiplicity = 1

                         Standard orientation:
 ---------------------------------------------------------------------
 Center     Atomic      Atomic             Coordinates (Angstroms)
 Number     Number       Type             X           Y           Z
 ---------------------------------------------------------------------
      1          6           0        3.054366   -0.164789   -0.321890
      2          6           0        4.499890   -0.650064   -0.208073
      3          6           0        4.713483   -2.025085   -0.841704
      4          1           0        2.389628   -0.897493    0.155828
      5          1           0        2.769360   -0.129067   -1.382499
      6          1           0        4.782533   -0.683538    0.851931
      7          1           0        5.161282    0.083974   -0.685949
      8          1           0        4.458354   -2.002584   -1.906131
      9          1           0        4.077453   -2.774457   -0.359513
     10          1           0        5.753662   -2.352642   -0.749003
     11          6           0        2.825031    1.208414    0.306956
     12          6           0        1.379507    1.693688    0.193139
     13          6           0        1.165914    3.068710    0.826770
     14          1           0        3.110037    1.172691    1.367565
     15          1           0        3.489769    1.941117   -0.170761
     16          1           0        0.718115    0.959651    0.671015
     17          1           0        1.096864    1.727163   -0.866864
     18          1           0        1.801944    3.818082    0.344579
     19          1           0        1.421043    3.046208    1.891197
     20          1           0        0.125735    3.396266    0.734069
     21          6           0       -1.851777   -2.696844    0.968997
     22          6           0       -1.582329   -1.553466    1.728343
     23          6           0       -1.824927   -0.280029    1.204840
     24          6           0       -2.339647   -0.186357   -0.087282
     25          6           0       -2.618454   -1.306645   -0.868634
     26          6           0       -2.368069   -2.570008   -0.324786
     27          1           0       -1.660297   -3.682167    1.383568
     28          1           0       -1.181340   -1.648944    2.733398
     29          1           0       -1.625461    0.621800    1.770820
     30          1           0       -3.017864   -1.179602   -1.867508
     31          1           0       -2.578283   -3.456224   -0.916797
     32          7           0       -2.600597    1.156441   -0.652258
     33          8           0       -3.054333    1.212065   -1.793166
     34          8           0       -2.346452    2.127876    0.056516
 ---------------------------------------------------------------------

 SCF Done:  E(RHF) =  -669.535614703     A.U. after   15 cycles
 E2 =    -0.2093486425D+01 EUMP2 =    -0.67162910112853D+03

 The electronic state is 1-A.
 Alpha  occ. eigenvalues --  -20.60925 -20.60915 -15.85950 -11.31263 -11.27838
 Alpha  occ. eigenvalues --  -11.27832 -11.27581 -11.26853 -11.26835 -11.21608
 Alpha  occ. eigenvalues --  -11.21310 -11.21187 -11.21162 -11.21127 -11.20294
 Alpha  occ. eigenvalues --   -1.59975  -1.39533  -1.19447  -1.08845  -1.08257
 Alpha  occ. eigenvalues --   -1.04851  -1.03288  -0.95757  -0.95655  -0.86741
 Alpha  occ. eigenvalues --   -0.86247  -0.82528  -0.79386  -0.78084  -0.77569
 Alpha  occ. eigenvalues --   -0.72185  -0.71282  -0.70563  -0.65105  -0.64957
 Alpha  occ. eigenvalues --   -0.64806  -0.62213  -0.60704  -0.59094  -0.57295
 Alpha  occ. eigenvalues --   -0.55354  -0.55038  -0.53199  -0.52935  -0.52360
 Alpha  occ. eigenvalues --   -0.52136  -0.49702  -0.48937  -0.48925  -0.47671
 Alpha  occ. eigenvalues --   -0.46449  -0.45623  -0.45538  -0.44892  -0.43518
 Alpha  occ. eigenvalues --   -0.37400  -0.36396
 Alpha virt. eigenvalues --    0.04909   0.11141   0.16376   0.21117   0.23006
 Alpha virt. eigenvalues --    0.24374   0.26673   0.27170   0.27650   0.27815
 Alpha virt. eigenvalues --    0.28872   0.30922   0.31532   0.31829   0.32235

 Mulliken charges:
               1
     1  C   -0.297774
     2  C   -0.299271
     3  C   -0.475128
     4  H    0.146052
     5  H    0.150432
     6  H    0.150443
     7  H    0.153142
     8  H    0.155659
     9  H    0.152056
    10  H    0.160029
    11  C   -0.297279
    12  C   -0.302249
    13  C   -0.485746
    14  H    0.145987
    15  H    0.150600
    16  H    0.145882
    17  H    0.154543
    18  H    0.153305
    19  H    0.146508
    20  H    0.185651
    21  C   -0.170341
    22  C   -0.220013
    23  C   -0.171328
    24  C    0.161494
    25  C   -0.170632
    26  C   -0.218263
    27  H    0.226003
    28  H    0.223889
    29  H    0.277189
    30  H    0.275801
    31  H    0.223847
    32  N    0.490439
    33  O   -0.459137
    34  O   -0.461793
 Sum of Mulliken charges =  -0.00000

 Dipole moment (field-independent basis, Debye):
    X=              0.7066    Y=             -4.6684    Z=              1.9070  Tot=              5.0921
 Quadrupole moment (field-independent basis, Debye-Ang):
   XX=            -99.6819   YY=            -93.0997   ZZ=            -91.1493
   XY=             12.1268   XZ=             -3.4010   YZ=              1.0949

 Normal termination of Gaussian 16 at Thu May  6 02:44:32 2021.
