 Gaussian 16, Revision A.03,
 Gaussian 16:  EM64L-G16RevA.03 25-Dec-2016

 -------------
 #p 6-31g* mp2
 -------------

 ------------------------------------------------------
 Input file generated by CHIRIPA (05-May-2021 14:51:09)
 ------------------------------------------------------
 Symbolic Z-matrix:
 Charge =  0 Multiplicity = 1

                         Standard orientation:
 ---------------------------------------------------------------------
 Center     Atomic      Atomic             Coordinates (Angstroms)
 Number     Number       Type             X           Y           Z
 ---------------------------------------------------------------------
      1          6           0        2.127549   -0.796258    0.241794
      2          6           0        1.778005   -1.565545    1.516157
      3          6           0        0.291756   -1.912468    1.608365
      4          1           0        1.531249    0.125598    0.202384
      5          1           0        1.835030   -1.395314   -0.631683
      6          1           0        2.072360   -0.965811    2.386956
      7          1           0        2.375346   -2.485582    1.552632
      8          1           0       -0.012841   -2.531355    0.758188
      9          1           0       -0.317549   -1.002949    1.597252
     10          1           0        0.064049   -2.462163    2.526975
     11          6           0        3.609785   -0.442229    0.135184
     12          6           0        3.959329    0.327058   -1.139179
     13          6           0        5.445578    0.673981   -1.231387
     14          1           0        3.902303    0.156827    1.008660
     15          1           0        4.206085   -1.364084    0.174594
     16          1           0        3.361988    1.247095   -1.175655
     17          1           0        3.664974   -0.272675   -2.009978
     18          1           0        6.054883   -0.235538   -1.220274
     19          1           0        5.750175    1.292868   -0.381210
     20          1           0        5.673285    1.223676   -2.149997
     21          6           0       -2.658685    1.084106    0.380055
     22          6           0       -1.839452    2.286248   -0.090793
     23          6           0       -1.426821    3.206933    1.058063
     24          1           0       -3.554941    1.442143    0.904915
     25          1           0       -2.072588    0.514960    1.114874
     26          1           0       -2.426380    2.852184   -0.825537
     27          1           0       -0.945139    1.925309   -0.614760
     28          1           0       -0.819744    2.662789    1.788794
     29          1           0       -2.309401    3.594932    1.576820
     30          1           0       -0.842154    4.059641    0.699017
     31          6           0       -3.078649    0.154381   -0.757033
     32          6           0       -3.897881   -1.047762   -0.286185
     33          6           0       -4.310514   -1.968446   -1.435041
     34          1           0       -3.664745    0.723526   -1.491852
     35          1           0       -2.182392   -0.203657   -1.281893
     36          1           0       -4.792194   -0.686822    0.237782
     37          1           0       -3.310954   -1.613698    0.448559
     38          1           0       -3.427933   -2.356445   -1.953798
     39          1           0       -4.917589   -1.424303   -2.165772
     40          1           0       -4.895180   -2.821154   -1.075994
 ---------------------------------------------------------------------

 SCF Done:  E(RHF) =  -470.733394170     A.U. after   11 cycles
 E2 =    -0.1583413106D+01 EUMP2 =    -0.47231680727648D+03

 The electronic state is 1-A.
 Alpha  occ. eigenvalues --  -11.21679 -11.21638 -11.21615 -11.21540 -11.21472
 Alpha  occ. eigenvalues --  -11.21406 -11.21375 -11.21311 -11.21155 -11.21108
 Alpha  occ. eigenvalues --  -11.21097 -11.21032  -1.08495  -1.08406  -1.03589
 Alpha  occ. eigenvalues --   -1.03514  -0.96048  -0.95960  -0.87061  -0.86981
 Alpha  occ. eigenvalues --   -0.79657  -0.79573  -0.78309  -0.78217  -0.65206
 Alpha  occ. eigenvalues --   -0.64977  -0.61039  -0.60860  -0.59405  -0.59333
 Alpha  occ. eigenvalues --   -0.57668  -0.57564  -0.55447  -0.55155  -0.52733
 Alpha  occ. eigenvalues --   -0.52665  -0.52491  -0.52365  -0.50070  -0.49844
 Alpha  occ. eigenvalues --   -0.48000  -0.47893  -0.46747  -0.46576  -0.45964
 Alpha  occ. eigenvalues --   -0.45782  -0.45689  -0.45492  -0.43844  -0.43765
 Alpha virt. eigenvalues --    0.19638   0.22944   0.23731   0.24764   0.25573
 Alpha virt. eigenvalues --    0.26116   0.26908   0.27878   0.28371   0.29621
 Alpha virt. eigenvalues --    0.30441   0.31538   0.31709   0.31824   0.32114

 Mulliken charges:
               1
     1  C   -0.300143
     2  C   -0.299491
     3  C   -0.483304
     4  H    0.150659
     5  H    0.149466
     6  H    0.152175
     7  H    0.152458
     8  H    0.155413
     9  H    0.161326
    10  H    0.160989
    11  C   -0.298293
    12  C   -0.299771
    13  C   -0.475757
    14  H    0.149806
    15  H    0.149920
    16  H    0.152050
    17  H    0.151944
    18  H    0.155232
    19  H    0.155324
    20  H    0.160423
    21  C   -0.305005
    22  C   -0.301322
    23  C   -0.475689
    24  H    0.149894
    25  H    0.155564
    26  H    0.152306
    27  H    0.153022
    28  H    0.154148
    29  H    0.155614
    30  H    0.160239
    31  C   -0.298009
    32  C   -0.301287
    33  C   -0.475616
    34  H    0.149267
    35  H    0.150403
    36  H    0.151552
    37  H    0.154480
    38  H    0.154931
    39  H    0.154945
    40  H    0.160136
 Sum of Mulliken charges =  -0.00000

 Dipole moment (field-independent basis, Debye):
    X=              0.0202    Y=             -0.0123    Z=              0.0073  Tot=              0.0247
 Quadrupole moment (field-independent basis, Debye-Ang):
   XX=            -85.2036   YY=            -84.3888   ZZ=            -85.1049
   XY=             -1.2674   XZ=             -0.0522   YZ=             -0.1421

 Normal termination of Gaussian 16 at Wed May  5 18:08:26 2021.
