 Gaussian 16, Revision A.03,
 Gaussian 16:  EM64L-G16RevA.03 25-Dec-2016

 -------------
 #p 6-31g* mp2
 -------------

 ------------------------------------------------------
 Input file generated by CHIRIPA (05-May-2021 14:51:13)
 ------------------------------------------------------
 Symbolic Z-matrix:
 Charge =  0 Multiplicity = 1

                         Standard orientation:
 ---------------------------------------------------------------------
 Center     Atomic      Atomic             Coordinates (Angstroms)
 Number     Number       Type             X           Y           Z
 ---------------------------------------------------------------------
      1          6           0       -3.636748    0.419691   -0.235773
      2          6           0       -3.714958    1.932482   -0.027615
      3          6           0       -2.391351    2.638946   -0.322176
      4          1           0       -2.848177    0.007587    0.408643
      5          1           0       -3.333036    0.214335   -1.271622
      6          1           0       -4.019775    2.134906    1.007144
      7          1           0       -4.503565    2.341005   -0.672460
      8          1           0       -2.084956    2.466362   -1.358968
      9          1           0       -1.598418    2.259091    0.330180
     10          1           0       -2.469799    3.719512   -0.166987
     11          6           0       -4.952227   -0.300616    0.054747
     12          6           0       -4.874017   -1.813408   -0.153410
     13          6           0       -6.197625   -2.519872    0.141150
     14          1           0       -5.255940   -0.095261    1.090596
     15          1           0       -5.740798    0.111487   -0.589668
     16          1           0       -4.085411   -2.221931    0.491434
     17          1           0       -4.569200   -2.015831   -1.188170
     18          1           0       -6.990558   -2.140017   -0.511206
     19          1           0       -6.504020   -2.347287    1.177942
     20          1           0       -6.119176   -3.600438   -0.014039
     21          6           0        5.038062    0.028752   -0.060264
     22          6           0        5.820997   -1.284482   -0.039919
     23          6           0        7.307088   -1.091493   -0.343367
     24          1           0        5.154258    0.502319   -1.044733
     25          1           0        5.476169    0.720141    0.672838
     26          1           0        5.380682   -1.973686   -0.771860
     27          1           0        5.702768   -1.755072    0.944551
     28          1           0        7.767136   -0.424416    0.392817
     29          1           0        7.443221   -0.644273   -1.333347
     30          1           0        7.847723   -2.042906   -0.323638
     31          6           0        3.550914   -0.147826    0.241290
     32          6           0        2.767979    1.165407    0.220945
     33          6           0        1.281887    0.972419    0.524392
     34          1           0        3.112806   -0.839216   -0.491812
     35          1           0        3.434718   -0.621393    1.225759
     36          1           0        2.886207    1.635998   -0.763525
     37          1           0        3.208293    1.854612    0.952886
     38          1           0        1.145754    0.525198    1.514373
     39          1           0        0.821839    0.305342   -0.211791
     40          1           0        0.741252    1.923830    0.504663
 ---------------------------------------------------------------------

 SCF Done:  E(RHF) =  -470.733151457     A.U. after   11 cycles
 E2 =    -0.1582310562D+01 EUMP2 =    -0.47231546201820D+03

 The electronic state is 1-A.
 Alpha  occ. eigenvalues --  -11.21596 -11.21587 -11.21574 -11.21546 -11.21396
 Alpha  occ. eigenvalues --  -11.21361 -11.21337 -11.21300 -11.21067 -11.21050
 Alpha  occ. eigenvalues --  -11.21040 -11.20969  -1.08422  -1.08385  -1.03530
 Alpha  occ. eigenvalues --   -1.03475  -0.96002  -0.95906  -0.87048  -0.86899
 Alpha  occ. eigenvalues --   -0.79640  -0.79498  -0.78239  -0.78191  -0.65051
 Alpha  occ. eigenvalues --   -0.65017  -0.60921  -0.60896  -0.59392  -0.59278
 Alpha  occ. eigenvalues --   -0.57657  -0.57474  -0.55261  -0.55228  -0.52839
 Alpha  occ. eigenvalues --   -0.52625  -0.52411  -0.52189  -0.49915  -0.49851
 Alpha  occ. eigenvalues --   -0.47930  -0.47824  -0.46620  -0.46576  -0.45791
 Alpha  occ. eigenvalues --   -0.45736  -0.45691  -0.45662  -0.43742  -0.43724
 Alpha virt. eigenvalues --    0.22484   0.22958   0.23670   0.24677   0.26239
 Alpha virt. eigenvalues --    0.26655   0.27018   0.27369   0.27810   0.28934
 Alpha virt. eigenvalues --    0.30140   0.31366   0.31613   0.31835   0.32018

 Mulliken charges:
               1
     1  C   -0.298611
     2  C   -0.299307
     3  C   -0.481915
     4  H    0.150689
     5  H    0.149118
     6  H    0.151618
     7  H    0.151520
     8  H    0.154709
     9  H    0.163025
    10  H    0.159309
    11  C   -0.298252
    12  C   -0.299628
    13  C   -0.475673
    14  H    0.149444
    15  H    0.149510
    16  H    0.152018
    17  H    0.151765
    18  H    0.155114
    19  H    0.155150
    20  H    0.160139
    21  C   -0.298253
    22  C   -0.299606
    23  C   -0.475693
    24  H    0.149673
    25  H    0.149498
    26  H    0.151925
    27  H    0.151888
    28  H    0.155170
    29  H    0.155185
    30  H    0.160225
    31  C   -0.298608
    32  C   -0.299537
    33  C   -0.480022
    34  H    0.149556
    35  H    0.149474
    36  H    0.152225
    37  H    0.151802
    38  H    0.154161
    39  H    0.156115
    40  H    0.165081
 Sum of Mulliken charges =  -0.00000

 Dipole moment (field-independent basis, Debye):
    X=              0.0202    Y=              0.0025    Z=              0.0043  Tot=              0.0208
 Quadrupole moment (field-independent basis, Debye-Ang):
   XX=            -86.8435   YY=            -85.2530   ZZ=            -82.8821
   XY=             -0.5058   XZ=              0.8069   YZ=              0.1399

 Normal termination of Gaussian 16 at Wed May  5 21:33:45 2021.
