 Gaussian 16, Revision A.03,
 Gaussian 16:  EM64L-G16RevA.03 25-Dec-2016

 -------------
 #p 6-31g* mp2
 -------------

 ------------------------------------------------------
 Input file generated by CHIRIPA (05-May-2021 14:53:13)
 ------------------------------------------------------
 Symbolic Z-matrix:
 Charge =  0 Multiplicity = 1

                         Standard orientation:
 ---------------------------------------------------------------------
 Center     Atomic      Atomic             Coordinates (Angstroms)
 Number     Number       Type             X           Y           Z
 ---------------------------------------------------------------------
      1          6           0        2.984025    1.133471   -0.003706
      2          6           0        1.916204    2.015021    0.644839
      3          6           0        2.338469    3.481417    0.740593
      4          1           0        3.915211    1.211401    0.574018
      5          1           0        3.206503    1.518303   -1.008595
      6          1           0        1.694808    1.627820    1.647673
      7          1           0        0.987396    1.934834    0.065614
      8          1           0        2.540229    3.889999   -0.254874
      9          1           0        3.251661    3.581241    1.336174
     10          1           0        1.560448    4.093583    1.207279
     11          6           0        2.576550   -0.335243   -0.106523
     12          6           0        3.644372   -1.216794   -0.755068
     13          6           0        3.222107   -2.683190   -0.850822
     14          1           0        2.354073   -0.720076    0.898366
     15          1           0        1.645365   -0.413174   -0.684247
     16          1           0        4.573179   -1.136607   -0.175843
     17          1           0        3.865767   -0.829593   -1.757902
     18          1           0        2.308915   -2.783014   -1.446403
     19          1           0        3.020346   -3.091772    0.144645
     20          1           0        4.000128   -3.295356   -1.317508
     21          6           0       -1.314808   -1.446285    2.127268
     22          6           0       -2.447561   -0.628169    2.191121
     23          6           0       -2.931441    0.005417    1.042653
     24          6           0       -2.254980   -0.202130   -0.158436
     25          6           0       -1.123892   -1.011296   -0.254258
     26          6           0       -0.657747   -1.634906    0.906934
     27          1           0       -0.945807   -1.934596    3.024368
     28          1           0       -2.959860   -0.479870    3.137483
     29          1           0       -3.806176    0.644021    1.063669
     30          1           0       -0.634468   -1.140007   -1.212023
     31          1           0        0.222194   -2.269716    0.854368
     32          7           0       -2.757854    0.463337   -1.381002
     33          8           0       -2.143941    0.264345   -2.427019
     34          8           0       -3.756399    1.171323   -1.270085
 ---------------------------------------------------------------------

 SCF Done:  E(RHF) =  -669.534043150     A.U. after   15 cycles
 E2 =    -0.2094312034D+01 EUMP2 =    -0.67162835518419D+03

 The electronic state is 1-A.
 Alpha  occ. eigenvalues --  -20.60774 -20.60767 -15.85825 -11.31168 -11.27702
 Alpha  occ. eigenvalues --  -11.27698 -11.27433 -11.26734 -11.26666 -11.22167
 Alpha  occ. eigenvalues --  -11.21937 -11.21903 -11.21768 -11.21678 -11.21153
 Alpha  occ. eigenvalues --   -1.59849  -1.39403  -1.19324  -1.08882  -1.08717
 Alpha  occ. eigenvalues --   -1.04724  -1.03946  -0.96425  -0.95568  -0.87441
 Alpha  occ. eigenvalues --   -0.86123  -0.82420  -0.80033  -0.78732  -0.77397
 Alpha  occ. eigenvalues --   -0.72043  -0.71172  -0.70446  -0.65555  -0.64965
 Alpha  occ. eigenvalues --   -0.64691  -0.62100  -0.61331  -0.59793  -0.58034
 Alpha  occ. eigenvalues --   -0.55732  -0.55224  -0.53235  -0.53001  -0.52827
 Alpha  occ. eigenvalues --   -0.52789  -0.50369  -0.48803  -0.48803  -0.48327
 Alpha  occ. eigenvalues --   -0.47052  -0.46189  -0.46104  -0.44810  -0.44195
 Alpha  occ. eigenvalues --   -0.37297  -0.36211
 Alpha virt. eigenvalues --    0.05057   0.11211   0.16532   0.19525   0.22860
 Alpha virt. eigenvalues --    0.23683   0.24811   0.26149   0.27343   0.28427
 Alpha virt. eigenvalues --    0.29573   0.30440   0.31233   0.31427   0.32305

 Mulliken charges:
               1
     1  C   -0.298486
     2  C   -0.300195
     3  C   -0.476173
     4  H    0.149514
     5  H    0.153407
     6  H    0.149361
     7  H    0.155663
     8  H    0.157867
     9  H    0.153910
    10  H    0.161456
    11  C   -0.301795
    12  C   -0.299206
    13  C   -0.478975
    14  H    0.143775
    15  H    0.149999
    16  H    0.153846
    17  H    0.156906
    18  H    0.151981
    19  H    0.149395
    20  H    0.166399
    21  C   -0.173470
    22  C   -0.217727
    23  C   -0.171823
    24  C    0.157977
    25  C   -0.173283
    26  C   -0.213884
    27  H    0.225135
    28  H    0.223127
    29  H    0.275237
    30  H    0.274438
    31  H    0.229139
    32  N    0.487944
    33  O   -0.461224
    34  O   -0.460233
 Sum of Mulliken charges =  -0.00000

 Dipole moment (field-independent basis, Debye):
    X=              1.8706    Y=             -2.2671    Z=              4.2630  Tot=              5.1781
 Quadrupole moment (field-independent basis, Debye-Ang):
   XX=            -99.9656   YY=            -94.6893   ZZ=            -94.3704
   XY=              2.9590   XZ=            -12.2829   YZ=              0.3926

 Normal termination of Gaussian 16 at Thu May  6 08:57:30 2021.
