 Gaussian 16, Revision A.03,
 Gaussian 16:  EM64L-G16RevA.03 25-Dec-2016

 -------------
 #p 6-31g* mp2
 -------------

 ------------------------------------------------------
 Input file generated by CHIRIPA (05-May-2021 14:51:14)
 ------------------------------------------------------
 Symbolic Z-matrix:
 Charge =  0 Multiplicity = 1

                         Standard orientation:
 ---------------------------------------------------------------------
 Center     Atomic      Atomic             Coordinates (Angstroms)
 Number     Number       Type             X           Y           Z
 ---------------------------------------------------------------------
      1          6           0        4.291923    0.002490   -0.359554
      2          6           0        5.533342    0.489260    0.388724
      3          6           0        6.772873    0.557136   -0.503883
      4          1           0        4.493818   -0.989996   -0.785176
      5          1           0        4.097521    0.672870   -1.208196
      6          1           0        5.724538   -0.181041    1.236519
      7          1           0        5.328402    1.480620    0.812777
      8          1           0        6.606724    1.241047   -1.342490
      9          1           0        7.005110   -0.430056   -0.916339
     10          1           0        7.648646    0.907476    0.051224
     11          6           0        3.044628   -0.070709    0.519438
     12          6           0        1.803210   -0.557479   -0.228840
     13          6           0        0.563678   -0.625355    0.663767
     14          1           0        3.239030   -0.741089    1.368080
     15          1           0        2.842733    0.921777    0.945060
     16          1           0        2.008149   -1.548839   -0.652893
     17          1           0        1.612014    0.112822   -1.076635
     18          1           0        0.331441    0.361837    1.076224
     19          1           0        0.729828   -1.309266    1.502374
     20          1           0       -0.312094   -0.975695    0.108660
     21          6           0       -4.141020    0.633969   -0.069328
     22          6           0       -3.413791    1.978889   -0.051573
     23          6           0       -4.373013    3.169368   -0.030436
     24          1           0       -4.799345    0.591878   -0.947838
     25          1           0       -4.792403    0.565569    0.812951
     26          1           0       -2.762927    2.044155   -0.932897
     27          1           0       -2.756977    2.017706    0.826894
     28          1           0       -5.014061    3.131880    0.856273
     29          1           0       -5.020045    3.158480   -0.913517
     30          1           0       -3.831997    4.120686   -0.017968
     31          6           0       -3.195532   -0.565750   -0.090557
     32          6           0       -3.922761   -1.910670   -0.108311
     33          6           0       -2.963539   -3.101149   -0.129448
     34          1           0       -2.544148   -0.497350   -0.972836
     35          1           0       -2.537206   -0.523660    0.787954
     36          1           0       -4.579575   -1.949487   -0.986778
     37          1           0       -4.573624   -1.975937    0.773013
     38          1           0       -2.316506   -3.090260    0.753633
     39          1           0       -2.322491   -3.063661   -1.016157
     40          1           0       -3.504554   -4.052467   -0.141916
 ---------------------------------------------------------------------

 SCF Done:  E(RHF) =  -470.732279078     A.U. after   11 cycles
 E2 =    -0.1583482149D+01 EUMP2 =    -0.47231576122607D+03

 The electronic state is 1-A.
 Alpha  occ. eigenvalues --  -11.21595 -11.21594 -11.21573 -11.21523 -11.21375
 Alpha  occ. eigenvalues --  -11.21357 -11.21304 -11.21296 -11.21079 -11.21069
 Alpha  occ. eigenvalues --  -11.21050 -11.20879  -1.08436  -1.08369  -1.03541
 Alpha  occ. eigenvalues --   -1.03459  -0.95993  -0.95905  -0.87030  -0.86915
 Alpha  occ. eigenvalues --   -0.79659  -0.79502  -0.78273  -0.78158  -0.65054
 Alpha  occ. eigenvalues --   -0.65009  -0.60928  -0.60866  -0.59535  -0.59147
 Alpha  occ. eigenvalues --   -0.57628  -0.57493  -0.55279  -0.55191  -0.52825
 Alpha  occ. eigenvalues --   -0.52628  -0.52379  -0.52260  -0.49933  -0.49847
 Alpha  occ. eigenvalues --   -0.47995  -0.47762  -0.46631  -0.46575  -0.45799
 Alpha  occ. eigenvalues --   -0.45761  -0.45670  -0.45641  -0.43784  -0.43561
 Alpha virt. eigenvalues --    0.22028   0.23086   0.23551   0.24664   0.25631
 Alpha virt. eigenvalues --    0.26591   0.26843   0.27629   0.27842   0.29510
 Alpha virt. eigenvalues --    0.30631   0.31107   0.31513   0.31969   0.32170

 Mulliken charges:
               1
     1  C   -0.298171
     2  C   -0.299558
     3  C   -0.475659
     4  H    0.149517
     5  H    0.149322
     6  H    0.151847
     7  H    0.151842
     8  H    0.155103
     9  H    0.155129
    10  H    0.160138
    11  C   -0.298399
    12  C   -0.299708
    13  C   -0.483480
    14  H    0.149285
    15  H    0.149403
    16  H    0.151516
    17  H    0.151238
    18  H    0.153772
    19  H    0.153149
    20  H    0.172359
    21  C   -0.297427
    22  C   -0.299832
    23  C   -0.475694
    24  H    0.149296
    25  H    0.149403
    26  H    0.151741
    27  H    0.152205
    28  H    0.155204
    29  H    0.155176
    30  H    0.160105
    31  C   -0.304273
    32  C   -0.298913
    33  C   -0.477809
    34  H    0.149098
    35  H    0.157374
    36  H    0.151623
    37  H    0.151851
    38  H    0.156969
    39  H    0.154783
    40  H    0.160474
 Sum of Mulliken charges =  -0.00000

 Dipole moment (field-independent basis, Debye):
    X=             -0.0530    Y=             -0.0123    Z=              0.0063  Tot=              0.0547
 Quadrupole moment (field-independent basis, Debye-Ang):
   XX=            -86.1752   YY=            -84.7968   ZZ=            -83.9621
   XY=              0.2479   XZ=              0.5055   YZ=             -0.2340

 Normal termination of Gaussian 16 at Wed May  5 16:53:03 2021.
