 Gaussian 16, Revision A.03,
 Gaussian 16:  EM64L-G16RevA.03 25-Dec-2016

 -------------
 #p 6-31g* mp2
 -------------

 ------------------------------------------------------
 Input file generated by CHIRIPA (05-May-2021 14:55:20)
 ------------------------------------------------------
 Symbolic Z-matrix:
 Charge =  0 Multiplicity = 1

                         Standard orientation:
 ---------------------------------------------------------------------
 Center     Atomic      Atomic             Coordinates (Angstroms)
 Number     Number       Type             X           Y           Z
 ---------------------------------------------------------------------
      1          6           0        2.191088    2.211827    0.025541
      2          6           0        2.859574    1.758467   -1.116436
      3          6           0        3.457360    0.494792   -1.134493
      4          6           0        3.366982   -0.292845    0.012133
      5          6           0        2.707994    0.130668    1.165242
      6          6           0        2.117561    1.397916    1.160734
      7          1           0        1.729570    3.194868    0.030804
      8          1           0        2.918260    2.388407   -1.999485
      9          1           0        3.981092    0.118949   -2.005047
     10          1           0        2.666179   -0.519980    2.030301
     11          1           0        1.599058    1.747395    2.049027
     12          7           0        3.995939   -1.632533    0.004961
     13          8           0        3.902229   -2.307284    1.027979
     14          8           0        4.570715   -1.982461   -1.023543
     15          6           0       -3.418001    0.147064    0.048261
     16          6           0       -2.915598    1.590651    0.088676
     17          6           0       -1.395083    1.683960    0.219525
     18          1           0       -3.094461   -0.372734    0.960444
     19          1           0       -2.943812   -0.375400   -0.794099
     20          1           0       -3.391648    2.110625    0.929878
     21          1           0       -3.240535    2.107127   -0.823620
     22          1           0       -0.904668    1.189984   -0.625509
     23          1           0       -1.056639    1.193502    1.137952
     24          1           0       -1.057575    2.724737    0.246534
     25          6           0       -4.936105    0.037381   -0.082347
     26          6           0       -5.438507   -1.406206   -0.122762
     27          6           0       -6.959023   -1.499515   -0.253611
     28          1           0       -5.410295    0.559844    0.760013
     29          1           0       -5.259645    0.557179   -0.994529
     30          1           0       -5.113571   -1.922683    0.789533
     31          1           0       -4.962458   -1.926182   -0.963964
     32          1           0       -7.297467   -1.009058   -1.172038
     33          1           0       -7.449438   -1.005539    0.591423
     34          1           0       -7.296530   -2.540294   -0.280620
 ---------------------------------------------------------------------

 SCF Done:  E(RHF) =  -669.535008994     A.U. after   15 cycles
 E2 =    -0.2092002163D+01 EUMP2 =    -0.67162701115640D+03

 The electronic state is 1-A.
 Alpha  occ. eigenvalues --  -20.60728 -20.60723 -15.85783 -11.31133 -11.27712
 Alpha  occ. eigenvalues --  -11.27697 -11.27436 -11.26719 -11.26696 -11.22088
 Alpha  occ. eigenvalues --  -11.21798 -11.21754 -11.21745 -11.21645 -11.21233
 Alpha  occ. eigenvalues --   -1.59805  -1.39359  -1.19312  -1.08784  -1.08698
 Alpha  occ. eigenvalues --   -1.04717  -1.03903  -0.96375  -0.95538  -0.87401
 Alpha  occ. eigenvalues --   -0.86105  -0.82377  -0.79974  -0.78563  -0.77425
 Alpha  occ. eigenvalues --   -0.72001  -0.71128  -0.70421  -0.65405  -0.64964
 Alpha  occ. eigenvalues --   -0.64722  -0.62073  -0.61292  -0.59769  -0.57973
 Alpha  occ. eigenvalues --   -0.55660  -0.55210  -0.53408  -0.52944  -0.52816
 Alpha  occ. eigenvalues --   -0.52561  -0.50298  -0.48759  -0.48756  -0.48275
 Alpha  occ. eigenvalues --   -0.46989  -0.46112  -0.46021  -0.44768  -0.44169
 Alpha  occ. eigenvalues --   -0.37225  -0.36298
 Alpha virt. eigenvalues --    0.05102   0.11291   0.16553   0.20628   0.22643
 Alpha virt. eigenvalues --    0.24048   0.26142   0.26568   0.26760   0.27550
 Alpha virt. eigenvalues --    0.28624   0.29920   0.31226   0.31726   0.32516

 Mulliken charges:
               1
     1  C   -0.166180
     2  C   -0.220565
     3  C   -0.171185
     4  C    0.158283
     5  C   -0.172470
     6  C   -0.214478
     7  H    0.225839
     8  H    0.223110
     9  H    0.275309
    10  H    0.275170
    11  H    0.223478
    12  N    0.488122
    13  O   -0.460647
    14  O   -0.460729
    15  C   -0.298721
    16  C   -0.301213
    17  C   -0.473429
    18  H    0.150177
    19  H    0.151412
    20  H    0.151444
    21  H    0.152214
    22  H    0.161085
    23  H    0.152821
    24  H    0.148912
    25  C   -0.298491
    26  C   -0.300042
    27  C   -0.475917
    28  H    0.149378
    29  H    0.149751
    30  H    0.152721
    31  H    0.153096
    32  H    0.155196
    33  H    0.155073
    34  H    0.161476
 Sum of Mulliken charges =  -0.00000

 Dipole moment (field-independent basis, Debye):
    X=             -2.2840    Y=              4.6816    Z=              0.0026  Tot=              5.2091
 Quadrupole moment (field-independent basis, Debye-Ang):
   XX=           -111.0752   YY=            -98.3325   ZZ=            -89.4028
   XY=             16.9386   XZ=             -1.7363   YZ=             -0.8215

 Normal termination of Gaussian 16 at Wed May  5 23:47:32 2021.
