 Gaussian 16, Revision A.03,
 Gaussian 16:  EM64L-G16RevA.03 25-Dec-2016

 -------------
 #p 6-31g* mp2
 -------------

 ------------------------------------------------------
 Input file generated by CHIRIPA (05-May-2021 14:57:25)
 ------------------------------------------------------
 Symbolic Z-matrix:
 Charge =  0 Multiplicity = 1

                         Standard orientation:
 ---------------------------------------------------------------------
 Center     Atomic      Atomic             Coordinates (Angstroms)
 Number     Number       Type             X           Y           Z
 ---------------------------------------------------------------------
      1          6           0        5.267983    0.917029   -1.069737
      2          6           0        4.871494   -0.373609   -1.435209
      3          6           0        3.811713   -1.004066   -0.776470
      4          6           0        3.167760   -0.311589    0.247782
      5          6           0        3.539383    0.974994    0.634939
      6          6           0        4.601836    1.586032   -0.037649
      7          1           0        6.092284    1.399241   -1.586840
      8          1           0        5.387006   -0.895564   -2.236367
      9          1           0        3.484110   -2.002628   -1.039086
     10          1           0        3.006252    1.470032    1.437514
     11          1           0        4.907590    2.588423    0.248311
     12          7           0        2.044404   -0.968746    0.952489
     13          8           0        1.493327   -0.337336    1.851529
     14          8           0        1.736264   -2.102793    0.592456
     15          6           0       -2.903339    2.676149    0.089135
     16          6           0       -4.157184    2.228147   -0.339454
     17          6           0       -4.417469    0.860327   -0.465421
     18          6           0       -3.396366   -0.035786   -0.152980
     19          6           0       -2.136856    0.379473    0.276536
     20          6           0       -1.898948    1.752012    0.395223
     21          1           0       -2.709834    3.740537    0.184162
     22          1           0       -4.939094    2.943567   -0.577858
     23          1           0       -5.379089    0.486061   -0.795012
     24          1           0       -1.377294   -0.357693    0.506902
     25          1           0       -0.924245    2.097060    0.728303
     26          7           0       -3.660073   -1.486334   -0.282483
     27          8           0       -2.743692   -2.255547   -0.001070
     28          8           0       -4.778155   -1.826593   -0.662946
 ---------------------------------------------------------------------

 SCF Done:  E(RHF) =  -868.338594721     A.U. after   16 cycles
 E2 =    -0.2599493451D+01 EUMP2 =    -0.87093808817202D+03

 The electronic state is 1-A.
 Alpha  occ. eigenvalues --  -20.61400 -20.61307 -20.59883 -20.59829 -15.86372
 Alpha  occ. eigenvalues --  -15.84910 -11.31646 -11.30321 -11.28244 -11.28153
 Alpha  occ. eigenvalues --  -11.27911 -11.27210 -11.27150 -11.26989 -11.26764
 Alpha  occ. eigenvalues --  -11.26757 -11.26035 -11.25907  -1.60417  -1.58942
 Alpha  occ. eigenvalues --   -1.39969  -1.38486  -1.19806  -1.18528  -1.09216
 Alpha  occ. eigenvalues --   -1.07937  -1.05191  -1.03922  -0.96062  -0.94746
 Alpha  occ. eigenvalues --   -0.86593  -0.85332  -0.82893  -0.81560  -0.77962
 Alpha  occ. eigenvalues --   -0.76579  -0.72564  -0.71749  -0.71122  -0.70906
 Alpha  occ. eigenvalues --   -0.70272  -0.69645  -0.65455  -0.65187  -0.64178
 Alpha  occ. eigenvalues --   -0.63937  -0.62538  -0.61235  -0.55686  -0.54487
 Alpha  occ. eigenvalues --   -0.53527  -0.53278  -0.52285  -0.52011  -0.49352
 Alpha  occ. eigenvalues --   -0.49309  -0.47912  -0.47865  -0.45385  -0.43881
 Alpha  occ. eigenvalues --   -0.37777  -0.36790  -0.36567  -0.35535
 Alpha virt. eigenvalues --    0.04520   0.05929   0.10859   0.12104   0.16029
 Alpha virt. eigenvalues --    0.17383   0.20946   0.22202   0.26776   0.27455
 Alpha virt. eigenvalues --    0.28434   0.29083   0.30721   0.31440   0.32482

 Mulliken charges:
               1
     1  C   -0.170266
     2  C   -0.218390
     3  C   -0.170046
     4  C    0.158227
     5  C   -0.173043
     6  C   -0.218370
     7  H    0.227141
     8  H    0.225925
     9  H    0.279261
    10  H    0.272158
    11  H    0.223566
    12  N    0.486183
    13  O   -0.469546
    14  O   -0.448669
    15  C   -0.171554
    16  C   -0.219575
    17  C   -0.171660
    18  C    0.157096
    19  C   -0.175650
    20  C   -0.220759
    21  H    0.220904
    22  H    0.219703
    23  H    0.273087
    24  H    0.292556
    25  H    0.223437
    26  N    0.486819
    27  O   -0.452670
    28  O   -0.465866
 Sum of Mulliken charges =  -0.00000

 Dipole moment (field-independent basis, Debye):
    X=              5.3143    Y=              7.1241    Z=             -2.0503  Tot=              9.1213
 Quadrupole moment (field-independent basis, Debye-Ang):
   XX=            -82.8405   YY=           -104.0497   ZZ=           -105.4566
   XY=            -12.7287   XZ=             -8.0897   YZ=              2.8863

 Normal termination of Gaussian 16 at Thu May  6 18:03:51 2021.
