 Gaussian 16, Revision A.03,
 Gaussian 16:  EM64L-G16RevA.03 25-Dec-2016

 -------------
 #p 6-31g* mp2
 -------------

 ------------------------------------------------------
 Input file generated by CHIRIPA (05-May-2021 14:55:20)
 ------------------------------------------------------
 Symbolic Z-matrix:
 Charge =  0 Multiplicity = 1

                         Standard orientation:
 ---------------------------------------------------------------------
 Center     Atomic      Atomic             Coordinates (Angstroms)
 Number     Number       Type             X           Y           Z
 ---------------------------------------------------------------------
      1          6           0        0.623528    0.789571    0.810914
      2          6           0        1.784298    1.360698    1.342842
      3          6           0        3.044954    0.886866    0.967637
      4          6           0        3.108250   -0.164197    0.054101
      5          6           0        1.970044   -0.754060   -0.493474
      6          6           0        0.719935   -0.264127   -0.103933
      7          1           0       -0.351683    1.163909    1.107951
      8          1           0        1.712456    2.179129    2.053514
      9          1           0        3.959729    1.310630    1.363906
     10          1           0        2.073583   -1.568707   -1.199908
     11          1           0       -0.179842   -0.709599   -0.518663
     12          7           0        4.437267   -0.674345   -0.350700
     13          8           0        4.466080   -1.601351   -1.157215
     14          8           0        5.424973   -0.137532    0.146196
     15          6           0       -3.500163    0.807150    0.063893
     16          6           0       -3.040026    1.694135   -1.093482
     17          6           0       -2.647209    3.100623   -0.640401
     18          1           0       -4.353160    1.283760    0.566073
     19          1           0       -2.695316    0.741906    0.809117
     20          1           0       -3.844988    1.756564   -1.836956
     21          1           0       -2.188148    1.215266   -1.593085
     22          1           0       -1.828058    3.057066    0.084647
     23          1           0       -3.494313    3.601439   -0.160611
     24          1           0       -2.321495    3.717708   -1.483595
     25          6           0       -3.896221   -0.602045   -0.373183
     26          6           0       -4.356357   -1.489031    0.784191
     27          6           0       -4.749174   -2.895518    0.331110
     28          1           0       -4.701068   -0.536801   -1.118407
     29          1           0       -3.043224   -1.078655   -0.875364
     30          1           0       -5.208236   -1.010161    1.283794
     31          1           0       -3.551395   -1.551459    1.527665
     32          1           0       -3.902070   -3.396335   -0.148680
     33          1           0       -5.568326   -2.851961   -0.393937
     34          1           0       -5.074889   -3.512604    1.174304
 ---------------------------------------------------------------------

 SCF Done:  E(RHF) =  -669.535111590     A.U. after   15 cycles
 E2 =    -0.2092680290D+01 EUMP2 =    -0.67162779187973D+03

 The electronic state is 1-A.
 Alpha  occ. eigenvalues --  -20.60759 -20.60754 -15.85813 -11.31185 -11.27756
 Alpha  occ. eigenvalues --  -11.27750 -11.27469 -11.26770 -11.26758 -11.22719
 Alpha  occ. eigenvalues --  -11.22637 -11.22515 -11.22456 -11.22139 -11.21791
 Alpha  occ. eigenvalues --   -1.59835  -1.39388  -1.19357  -1.09544  -1.08747
 Alpha  occ. eigenvalues --   -1.04761  -1.04522  -0.96976  -0.95586  -0.87985
 Alpha  occ. eigenvalues --   -0.86158  -0.82424  -0.80584  -0.79354  -0.77465
 Alpha  occ. eigenvalues --   -0.72031  -0.71158  -0.70524  -0.66246  -0.65003
 Alpha  occ. eigenvalues --   -0.64708  -0.62114  -0.61910  -0.60340  -0.58577
 Alpha  occ. eigenvalues --   -0.56297  -0.55279  -0.53612  -0.53396  -0.53076
 Alpha  occ. eigenvalues --   -0.52853  -0.50939  -0.48887  -0.48793  -0.48786
 Alpha  occ. eigenvalues --   -0.47626  -0.46858  -0.46810  -0.44806  -0.44792
 Alpha  occ. eigenvalues --   -0.37326  -0.36364
 Alpha virt. eigenvalues --    0.05051   0.11229   0.16468   0.17663   0.22192
 Alpha virt. eigenvalues --    0.23691   0.24474   0.25203   0.26794   0.28554
 Alpha virt. eigenvalues --    0.29502   0.30639   0.30876   0.31109   0.31914

 Mulliken charges:
               1
     1  C   -0.176829
     2  C   -0.219866
     3  C   -0.170604
     4  C    0.158617
     5  C   -0.171315
     6  C   -0.225027
     7  H    0.234986
     8  H    0.223885
     9  H    0.275601
    10  H    0.275796
    11  H    0.227079
    12  N    0.487997
    13  O   -0.460438
    14  O   -0.460381
    15  C   -0.303397
    16  C   -0.303282
    17  C   -0.475834
    18  H    0.155840
    19  H    0.140689
    20  H    0.158097
    21  H    0.150932
    22  H    0.147219
    23  H    0.158696
    24  H    0.166432
    25  C   -0.299721
    26  C   -0.300487
    27  C   -0.476131
    28  H    0.155118
    29  H    0.144717
    30  H    0.154814
    31  H    0.150874
    32  H    0.155073
    33  H    0.157330
    34  H    0.163519
 Sum of Mulliken charges =  -0.00000

 Dipole moment (field-independent basis, Debye):
    X=             -4.9356    Y=              1.8145    Z=              1.3686  Tot=              5.4338
 Quadrupole moment (field-independent basis, Debye-Ang):
   XX=           -121.3278   YY=            -94.1363   ZZ=            -93.2844
   XY=              7.4440   XZ=              6.0033   YZ=              1.8049

 Normal termination of Gaussian 16 at Thu May  6 06:10:08 2021.
