 Gaussian 16, Revision A.03,
 Gaussian 16:  EM64L-G16RevA.03 25-Dec-2016

 -------------
 #p 6-31g* mp2
 -------------

 ------------------------------------------------------
 Input file generated by CHIRIPA (05-May-2021 14:57:21)
 ------------------------------------------------------
 Symbolic Z-matrix:
 Charge =  0 Multiplicity = 1

                         Standard orientation:
 ---------------------------------------------------------------------
 Center     Atomic      Atomic             Coordinates (Angstroms)
 Number     Number       Type             X           Y           Z
 ---------------------------------------------------------------------
      1          6           0       -1.406541   -1.753034    0.084127
      2          6           0       -1.680818   -0.897904    1.156529
      3          6           0       -2.757631   -0.008203    1.097761
      4          6           0       -3.543051   -0.000161   -0.053907
      5          6           0       -3.295348   -0.839733   -1.138828
      6          6           0       -2.213260   -1.721275   -1.058115
      7          1           0       -0.567998   -2.441007    0.138304
      8          1           0       -1.056006   -0.920386    2.044870
      9          1           0       -2.992525    0.664766    1.913455
     10          1           0       -3.936060   -0.794321   -2.011093
     11          1           0       -2.002617   -2.384232   -1.892479
     12          7           0       -4.685817    0.937407   -0.127739
     13          8           0       -5.362688    0.925073   -1.153570
     14          8           0       -4.883007    1.666854    0.841621
     15          6           0        2.821042   -2.282806    0.415587
     16          6           0        3.768374   -1.912931   -0.544764
     17          6           0        4.071991   -0.565389   -0.760396
     18          6           0        3.406302    0.390332    0.005597
     19          6           0        2.457607    0.053440    0.969843
     20          6           0        2.169830   -1.300173    1.168499
     21          1           0        2.591337   -3.331967    0.576503
     22          1           0        4.275674   -2.673902   -1.130951
     23          1           0        4.801108   -0.251139   -1.497317
     24          1           0        1.968346    0.834723    1.538737
     25          1           0        1.433671   -1.584497    1.915008
     26          7           0        3.719343    1.820128   -0.213697
     27          8           0        3.118990    2.642946    0.474184
     28          8           0        4.559131    2.090908   -1.069309
 ---------------------------------------------------------------------

 SCF Done:  E(RHF) =  -868.335720695     A.U. after   16 cycles
 E2 =    -0.2601456185D+01 EUMP2 =    -0.87093717687979D+03

 The electronic state is 1-A.
 Alpha  occ. eigenvalues --  -20.61344 -20.61338 -20.60983 -20.60977 -15.86407
 Alpha  occ. eigenvalues --  -15.86045 -11.31997 -11.31535 -11.28637 -11.28564
 Alpha  occ. eigenvalues --  -11.28457 -11.28176 -11.28128 -11.27972 -11.27797
 Alpha  occ. eigenvalues --  -11.27631 -11.27300 -11.27162  -1.60414  -1.60055
 Alpha  occ. eigenvalues --   -1.39961  -1.39605  -1.20214  -1.19749  -1.09587
 Alpha  occ. eigenvalues --   -1.09131  -1.05660  -1.05183  -0.96368  -0.95937
 Alpha  occ. eigenvalues --   -0.87073  -0.86587  -0.83201  -0.82773  -0.78210
 Alpha  occ. eigenvalues --   -0.77778  -0.72623  -0.72263  -0.71739  -0.71379
 Alpha  occ. eigenvalues --   -0.71345  -0.70896  -0.65878  -0.65840  -0.65399
 Alpha  occ. eigenvalues --   -0.65147  -0.63023  -0.62485  -0.56183  -0.55763
 Alpha  occ. eigenvalues --   -0.53969  -0.53796  -0.53444  -0.53272  -0.49399
 Alpha  occ. eigenvalues --   -0.49361  -0.49033  -0.49005  -0.45316  -0.44983
 Alpha  occ. eigenvalues --   -0.38280  -0.37839  -0.37128  -0.36728
 Alpha virt. eigenvalues --    0.04327   0.04772   0.10254   0.10850   0.15731
 Alpha virt. eigenvalues --    0.16212   0.18249   0.22177   0.24469   0.26083
 Alpha virt. eigenvalues --    0.28080   0.29101   0.29666   0.31257   0.32128

 Mulliken charges:
               1
     1  C   -0.165196
     2  C   -0.220943
     3  C   -0.168920
     4  C    0.158999
     5  C   -0.169136
     6  C   -0.219167
     7  H    0.218816
     8  H    0.213872
     9  H    0.277436
    10  H    0.277396
    11  H    0.223763
    12  N    0.488131
    13  O   -0.459107
    14  O   -0.458928
    15  C   -0.175813
    16  C   -0.218036
    17  C   -0.169325
    18  C    0.159274
    19  C   -0.167328
    20  C   -0.220985
    21  H    0.224485
    22  H    0.226001
    23  H    0.278768
    24  H    0.277030
    25  H    0.216405
    26  N    0.488049
    27  O   -0.457610
    28  O   -0.457927
 Sum of Mulliken charges =  -0.00000

 Dipole moment (field-independent basis, Debye):
    X=              3.0167    Y=             -8.1289    Z=              0.8438  Tot=              8.7115
 Quadrupole moment (field-independent basis, Debye-Ang):
   XX=           -138.2296   YY=           -109.2634   ZZ=            -98.7677
   XY=             -6.4044   XZ=             -0.1588   YZ=              3.6033

 Normal termination of Gaussian 16 at Thu May  6 21:04:06 2021.
