 Gaussian 16, Revision A.03,
 Gaussian 16:  EM64L-G16RevA.03 25-Dec-2016

 -------------
 #p 6-31g* mp2
 -------------

 ------------------------------------------------------
 Input file generated by CHIRIPA (05-May-2021 14:57:21)
 ------------------------------------------------------
 Symbolic Z-matrix:
 Charge =  0 Multiplicity = 1

                         Standard orientation:
 ---------------------------------------------------------------------
 Center     Atomic      Atomic             Coordinates (Angstroms)
 Number     Number       Type             X           Y           Z
 ---------------------------------------------------------------------
      1          6           0        5.012063    1.443783   -1.221362
      2          6           0        4.923877    0.070632   -1.472758
      3          6           0        4.081032   -0.738962   -0.705478
      4          6           0        3.337277   -0.139536    0.309808
      5          6           0        3.403375    1.225515    0.584687
      6          6           0        4.252869    2.015834   -0.195251
      7          1           0        5.669388    2.065208   -1.822320
      8          1           0        5.512308   -0.376357   -2.268997
      9          1           0        3.993558   -1.804705   -0.878563
     10          1           0        2.804472    1.642366    1.385292
     11          1           0        4.319343    3.081958    0.002243
     12          7           0        2.441475   -0.986414    1.128793
     13          8           0        1.796633   -0.434063    2.017457
     14          8           0        2.401150   -2.186512    0.866541
     15          6           0       -5.795197    1.002271   -0.020232
     16          6           0       -4.715111    1.633179    0.605781
     17          6           0       -3.430668    1.086820    0.526750
     18          6           0       -3.261567   -0.096940   -0.189775
     19          6           0       -4.317618   -0.749170   -0.824315
     20          6           0       -5.593359   -0.184796   -0.732027
     21          1           0       -6.789603    1.433692    0.046312
     22          1           0       -4.868901    2.555168    1.159251
     23          1           0       -2.576797    1.554387    1.001833
     24          1           0       -4.133130   -1.667227   -1.368883
     25          1           0       -6.430312   -0.676954   -1.219198
     26          7           0       -1.906391   -0.684881   -0.280460
     27          8           0       -1.783738   -1.728643   -0.917762
     28          8           0       -0.992517   -0.090813    0.287481
 ---------------------------------------------------------------------

 SCF Done:  E(RHF) =  -868.336480574     A.U. after   16 cycles
 E2 =    -0.2600419014D+01 EUMP2 =    -0.87093689958796D+03

 The electronic state is 1-A.
 Alpha  occ. eigenvalues --  -20.60117 -20.60062 -20.59315 -20.59272 -15.85140
 Alpha  occ. eigenvalues --  -15.84362 -11.30718 -11.30091 -11.27316 -11.27307
 Alpha  occ. eigenvalues --  -11.27109 -11.26725 -11.26706 -11.26570 -11.26386
 Alpha  occ. eigenvalues --  -11.26376 -11.25855 -11.25833  -1.59157  -1.58325
 Alpha  occ. eigenvalues --   -1.38707  -1.37886  -1.18913  -1.18306  -1.08272
 Alpha  occ. eigenvalues --   -1.07637  -1.04349  -1.03781  -0.95071  -0.94415
 Alpha  occ. eigenvalues --   -0.85738  -0.85162  -0.81902  -0.81263  -0.76912
 Alpha  occ. eigenvalues --   -0.76232  -0.71401  -0.70611  -0.70480  -0.70027
 Alpha  occ. eigenvalues --   -0.69565  -0.69444  -0.64562  -0.64359  -0.63970
 Alpha  occ. eigenvalues --   -0.63811  -0.61694  -0.61134  -0.54852  -0.54298
 Alpha  occ. eigenvalues --   -0.52666  -0.52447  -0.52073  -0.51896  -0.48152
 Alpha  occ. eigenvalues --   -0.48106  -0.47370  -0.47326  -0.44075  -0.43170
 Alpha  occ. eigenvalues --   -0.36910  -0.36306  -0.35962  -0.35399
 Alpha virt. eigenvalues --    0.05624   0.06369   0.11689   0.12254   0.17079
 Alpha virt. eigenvalues --    0.17766   0.21786   0.22259   0.27678   0.28131
 Alpha virt. eigenvalues --    0.28702   0.29198   0.31318   0.31758   0.32955

 Mulliken charges:
               1
     1  C   -0.172368
     2  C   -0.218819
     3  C   -0.170182
     4  C    0.164172
     5  C   -0.168834
     6  C   -0.219117
     7  H    0.221167
     8  H    0.220005
     9  H    0.275464
    10  H    0.273654
    11  H    0.218670
    12  N    0.494221
    13  O   -0.457018
    14  O   -0.460878
    15  C   -0.171519
    16  C   -0.218645
    17  C   -0.170800
    18  C    0.159186
    19  C   -0.171163
    20  C   -0.218619
    21  H    0.223815
    22  H    0.221717
    23  H    0.276274
    24  H    0.275381
    25  H    0.221982
    26  N    0.488667
    27  O   -0.460425
    28  O   -0.455988
 Sum of Mulliken charges =  -0.00000

 Dipole moment (field-independent basis, Debye):
    X=             -1.7508    Y=              4.9017    Z=             -2.4463  Tot=              5.7512
 Quadrupole moment (field-independent basis, Debye-Ang):
   XX=            -54.9206   YY=           -100.8514   ZZ=           -105.1693
   XY=              3.2153   XZ=             -8.5024   YZ=              5.8534

 Normal termination of Gaussian 16 at Wed May  5 19:15:11 2021.
