 Gaussian 16, Revision A.03,
 Gaussian 16:  EM64L-G16RevA.03 25-Dec-2016

 -------------
 #p 6-31g* mp2
 -------------

 ------------------------------------------------------
 Input file generated by CHIRIPA (05-May-2021 14:51:13)
 ------------------------------------------------------
 Symbolic Z-matrix:
 Charge =  0 Multiplicity = 1

                         Standard orientation:
 ---------------------------------------------------------------------
 Center     Atomic      Atomic             Coordinates (Angstroms)
 Number     Number       Type             X           Y           Z
 ---------------------------------------------------------------------
      1          6           0       -2.828039    0.601616    0.235059
      2          6           0       -3.077231    1.258497   -1.123026
      3          6           0       -3.600784    2.689793   -1.000238
      4          1           0       -3.762292    0.603500    0.813083
      5          1           0       -2.108638    1.208828    0.801761
      6          1           0       -3.794895    0.649489   -1.687547
      7          1           0       -2.142322    1.254877   -1.697960
      8          1           0       -2.884581    3.316915   -0.459523
      9          1           0       -4.546544    2.708088   -0.449052
     10          1           0       -3.772018    3.140322   -1.982868
     11          6           0       -2.304424   -0.829562    0.128822
     12          6           0       -2.055232   -1.486443    1.486907
     13          6           0       -1.531678   -2.917739    1.364118
     14          1           0       -3.023825   -1.436774   -0.437880
     15          1           0       -1.370171   -0.831446   -0.449202
     16          1           0       -2.990141   -1.482822    2.061841
     17          1           0       -1.337568   -0.877435    2.051428
     18          1           0       -0.585919   -2.936034    0.812933
     19          1           0       -2.247882   -3.544861    0.823404
     20          1           0       -1.360445   -3.368268    2.346749
     21          6           0        2.321184   -0.607562   -0.129302
     22          6           0        2.456312   -1.390660   -1.435627
     23          6           0        1.961942   -2.832430   -1.314414
     24          1           0        2.883517   -1.124343    0.660422
     25          1           0        1.268051   -0.609920    0.184226
     26          1           0        3.508660   -1.385651   -1.747324
     27          1           0        1.893751   -0.871853   -2.222379
     28          1           0        0.905790   -2.854654   -1.026926
     29          1           0        2.529875   -3.371372   -0.549173
     30          1           0        2.067719   -3.373918   -2.259644
     31          6           0        2.811279    0.835508   -0.234578
     32          6           0        2.676150    1.618605    1.071746
     33          6           0        3.170521    3.060376    0.950533
     34          1           0        3.864413    0.837866   -0.548107
     35          1           0        2.248947    1.352289   -1.024303
     36          1           0        3.238713    1.099799    1.858498
     37          1           0        1.623803    1.613598    1.383443
     38          1           0        2.602588    3.599318    0.185292
     39          1           0        4.226673    3.082600    0.663045
     40          1           0        3.064744    3.601864    1.895764
 ---------------------------------------------------------------------

 SCF Done:  E(RHF) =  -470.733149784     A.U. after   11 cycles
 E2 =    -0.1583945387D+01 EUMP2 =    -0.47231709517114D+03

 The electronic state is 1-A.
 Alpha  occ. eigenvalues --  -11.21665 -11.21657 -11.21653 -11.21625 -11.21472
 Alpha  occ. eigenvalues --  -11.21463 -11.21412 -11.21404 -11.21118 -11.21110
 Alpha  occ. eigenvalues --  -11.21100 -11.21039  -1.08514  -1.08461  -1.03604
 Alpha  occ. eigenvalues --   -1.03547  -0.96052  -0.95994  -0.87082  -0.86997
 Alpha  occ. eigenvalues --   -0.79694  -0.79585  -0.78353  -0.78252  -0.65330
 Alpha  occ. eigenvalues --   -0.64927  -0.61127  -0.60834  -0.59429  -0.59349
 Alpha  occ. eigenvalues --   -0.57730  -0.57555  -0.55452  -0.55187  -0.52722
 Alpha  occ. eigenvalues --   -0.52696  -0.52579  -0.52329  -0.50137  -0.49789
 Alpha  occ. eigenvalues --   -0.48130  -0.47818  -0.46825  -0.46541  -0.46082
 Alpha  occ. eigenvalues --   -0.45813  -0.45772  -0.45410  -0.43841  -0.43820
 Alpha virt. eigenvalues --    0.19068   0.22702   0.23751   0.24463   0.25773
 Alpha virt. eigenvalues --    0.26501   0.26753   0.27856   0.28721   0.30082
 Alpha virt. eigenvalues --    0.30707   0.31364   0.31636   0.31752   0.31776

 Mulliken charges:
               1
     1  C   -0.298300
     2  C   -0.299570
     3  C   -0.475762
     4  H    0.150226
     5  H    0.149113
     6  H    0.152223
     7  H    0.151383
     8  H    0.155181
     9  H    0.155399
    10  H    0.160407
    11  C   -0.302695
    12  C   -0.299728
    13  C   -0.483464
    14  H    0.150055
    15  H    0.151910
    16  H    0.152259
    17  H    0.152243
    18  H    0.162979
    19  H    0.154956
    20  H    0.160623
    21  C   -0.304267
    22  C   -0.299340
    23  C   -0.482710
    24  H    0.150168
    25  H    0.154050
    26  H    0.152394
    27  H    0.151693
    28  H    0.161666
    29  H    0.155470
    30  H    0.160946
    31  C   -0.298084
    32  C   -0.299689
    33  C   -0.475773
    34  H    0.150054
    35  H    0.149428
    36  H    0.152310
    37  H    0.151120
    38  H    0.155209
    39  H    0.155447
    40  H    0.160469
 Sum of Mulliken charges =  -0.00000

 Dipole moment (field-independent basis, Debye):
    X=              0.0125    Y=             -0.0090    Z=             -0.0022  Tot=              0.0155
 Quadrupole moment (field-independent basis, Debye-Ang):
   XX=            -83.0858   YY=            -86.7472   ZZ=            -84.7220
   XY=              0.0964   XZ=              0.2215   YZ=             -0.0709

 Normal termination of Gaussian 16 at Thu May  6 02:22:23 2021.
