 Gaussian 16, Revision A.03,
 Gaussian 16:  EM64L-G16RevA.03 25-Dec-2016

 -------------
 #p 6-31g* mp2
 -------------

 ------------------------------------------------------
 Input file generated by CHIRIPA (05-May-2021 14:51:14)
 ------------------------------------------------------
 Symbolic Z-matrix:
 Charge =  0 Multiplicity = 1

                         Standard orientation:
 ---------------------------------------------------------------------
 Center     Atomic      Atomic             Coordinates (Angstroms)
 Number     Number       Type             X           Y           Z
 ---------------------------------------------------------------------
      1          6           0       -2.973364   -0.212900   -0.206913
      2          6           0       -2.211479   -1.479470    0.184642
      3          6           0       -0.735855   -1.428260   -0.212482
      4          1           0       -2.889183   -0.062695   -1.291947
      5          1           0       -2.495107    0.655533    0.266891
      6          1           0       -2.691860   -2.345408   -0.288646
      7          1           0       -2.297643   -1.626782    1.268842
      8          1           0       -0.235945   -0.582663    0.270898
      9          1           0       -0.632402   -1.305373   -1.295439
     10          1           0       -0.210245   -2.343625    0.076831
     11          6           0       -4.449855   -0.249017    0.183467
     12          6           0       -5.211740    1.017553   -0.208089
     13          6           0       -6.687364    0.966344    0.189035
     14          1           0       -4.928112   -1.117449   -0.290338
     15          1           0       -4.534036   -0.399222    1.268500
     16          1           0       -5.125576    1.164865   -1.292289
     17          1           0       -4.731359    1.883491    0.265199
     18          1           0       -6.790817    0.843456    1.271993
     19          1           0       -7.187274    0.120747   -0.294345
     20          1           0       -7.212973    1.881709   -0.100277
     21          6           0        3.431625    0.907796   -0.204913
     22          6           0        4.230544    2.095011    0.333821
     23          6           0        3.658111    3.442144   -0.108160
     24          1           0        3.409862    0.956305   -1.302236
     25          1           0        2.389341    0.992800    0.132451
     26          1           0        5.271323    2.007061   -0.003311
     27          1           0        4.250569    2.043564    1.429982
     28          1           0        2.626776    3.555758    0.241184
     29          1           0        3.653331    3.519048   -1.200252
     30          1           0        4.244467    4.276993    0.288165
     31          6           0        3.991594   -0.445879    0.228360
     32          6           0        3.192675   -1.633095   -0.310374
     33          6           0        3.765108   -2.980228    0.131608
     34          1           0        5.033878   -0.530884   -0.109004
     35          1           0        4.013357   -0.494389    1.325682
     36          1           0        3.172650   -1.581647   -1.406535
     37          1           0        2.151896   -1.545144    0.026758
     38          1           0        3.769888   -3.057132    1.223699
     39          1           0        4.796442   -3.093842   -0.217737
     40          1           0        3.178752   -3.815077   -0.264719
 ---------------------------------------------------------------------

 SCF Done:  E(RHF) =  -470.732914799     A.U. after   11 cycles
 E2 =    -0.1582945624D+01 EUMP2 =    -0.47231586042285D+03

 The electronic state is 1-A.
 Alpha  occ. eigenvalues --  -11.21631 -11.21618 -11.21566 -11.21431 -11.21402
 Alpha  occ. eigenvalues --  -11.21371 -11.21338 -11.21267 -11.21123 -11.21084
 Alpha  occ. eigenvalues --  -11.21048 -11.20988  -1.08460  -1.08352  -1.03571
 Alpha  occ. eigenvalues --   -1.03446  -0.96022  -0.95912  -0.87058  -0.86916
 Alpha  occ. eigenvalues --   -0.79709  -0.79450  -0.78289  -0.78132  -0.65102
 Alpha  occ. eigenvalues --   -0.64980  -0.60986  -0.60849  -0.59444  -0.59222
 Alpha  occ. eigenvalues --   -0.57645  -0.57498  -0.55305  -0.55209  -0.52775
 Alpha  occ. eigenvalues --   -0.52594  -0.52440  -0.52324  -0.49980  -0.49841
 Alpha  occ. eigenvalues --   -0.47970  -0.47809  -0.46713  -0.46513  -0.45893
 Alpha  occ. eigenvalues --   -0.45751  -0.45681  -0.45499  -0.43775  -0.43679
 Alpha virt. eigenvalues --    0.21740   0.23020   0.23873   0.24530   0.25395
 Alpha virt. eigenvalues --    0.26715   0.27028   0.27247   0.27841   0.29263
 Alpha virt. eigenvalues --    0.30678   0.31314   0.31583   0.31791   0.32254

 Mulliken charges:
               1
     1  C   -0.298545
     2  C   -0.300186
     3  C   -0.478300
     4  H    0.149864
     5  H    0.149370
     6  H    0.152134
     7  H    0.151872
     8  H    0.155592
     9  H    0.156868
    10  H    0.161443
    11  C   -0.298331
    12  C   -0.299638
    13  C   -0.475720
    14  H    0.149617
    15  H    0.149627
    16  H    0.152028
    17  H    0.151930
    18  H    0.155176
    19  H    0.155215
    20  H    0.160334
    21  C   -0.299437
    22  C   -0.299590
    23  C   -0.475577
    24  H    0.149686
    25  H    0.150074
    26  H    0.151992
    27  H    0.151677
    28  H    0.154846
    29  H    0.155204
    30  H    0.160098
    31  C   -0.297569
    32  C   -0.310109
    33  C   -0.475513
    34  H    0.148938
    35  H    0.148794
    36  H    0.150805
    37  H    0.166684
    38  H    0.154433
    39  H    0.154770
    40  H    0.159447
 Sum of Mulliken charges =  -0.00000

 Dipole moment (field-independent basis, Debye):
    X=             -0.0574    Y=             -0.0060    Z=             -0.0126  Tot=              0.0591
 Quadrupole moment (field-independent basis, Debye-Ang):
   XX=            -85.9119   YY=            -85.8200   ZZ=            -83.3520
   XY=              0.5874   XZ=             -0.1154   YZ=              0.6322

 Normal termination of Gaussian 16 at Wed May  5 23:15:47 2021.
