 Gaussian 16, Revision A.03,
 Gaussian 16:  EM64L-G16RevA.03 25-Dec-2016

 -------------
 #p 6-31g* mp2
 -------------

 ------------------------------------------------------
 Input file generated by CHIRIPA (05-May-2021 14:53:13)
 ------------------------------------------------------
 Symbolic Z-matrix:
 Charge =  0 Multiplicity = 1

                         Standard orientation:
 ---------------------------------------------------------------------
 Center     Atomic      Atomic             Coordinates (Angstroms)
 Number     Number       Type             X           Y           Z
 ---------------------------------------------------------------------
      1          6           0       -5.615318   -0.205108    0.194882
      2          6           0       -6.478090    0.862580   -0.478654
      3          6           0       -7.963290    0.719737   -0.144628
      4          1           0       -5.967641   -1.199418   -0.111974
      5          1           0       -5.754629   -0.146268    1.283241
      6          1           0       -6.336135    0.802652   -1.565334
      7          1           0       -6.123550    1.854468   -0.170310
      8          1           0       -8.124878    0.801194    0.935120
      9          1           0       -8.338671   -0.256598   -0.467831
     10          1           0       -8.561585    1.493022   -0.636494
     11          6           0       -4.128123   -0.075530   -0.129447
     12          6           0       -3.265350   -1.143218    0.544089
     13          6           0       -1.780151   -1.000375    0.210063
     14          1           0       -3.988812   -0.134370   -1.217806
     15          1           0       -3.775799    0.918780    0.177409
     16          1           0       -3.619890   -2.135106    0.235745
     17          1           0       -3.407306   -1.083290    1.630769
     18          1           0       -1.404770   -0.024040    0.533266
     19          1           0       -1.618562   -1.081832   -0.869685
     20          1           0       -1.181855   -1.773660    0.701929
     21          6           0        6.318307    0.333006   -0.092609
     22          6           0        5.721017   -0.915936   -0.292378
     23          6           0        4.329991   -1.051471   -0.257391
     24          6           0        3.563154    0.088029   -0.019078
     25          6           0        4.128588    1.345988    0.183678
     26          6           0        5.521591    1.457999    0.144363
     27          1           0        7.399657    0.429155   -0.121469
     28          1           0        6.337263   -1.791345   -0.476619
     29          1           0        3.841416   -2.006353   -0.408762
     30          1           0        3.488018    2.200472    0.365183
     31          1           0        5.982712    2.429203    0.299851
     32          7           0        2.089491   -0.043004    0.020251
     33          8           0        1.436082    0.976234    0.232025
     34          8           0        1.615746   -1.162464   -0.161440
 ---------------------------------------------------------------------

 SCF Done:  E(RHF) =  -669.536048058     A.U. after   15 cycles
 E2 =    -0.2091759514D+01 EUMP2 =    -0.67162780757206D+03

 The electronic state is 1-A.
 Alpha  occ. eigenvalues --  -20.60970 -20.60965 -15.85978 -11.31312 -11.27870
 Alpha  occ. eigenvalues --  -11.27867 -11.27607 -11.26877 -11.26867 -11.20816
 Alpha  occ. eigenvalues --  -11.20434 -11.20411 -11.20122 -11.19972 -11.18705
 Alpha  occ. eigenvalues --   -1.60005  -1.39565  -1.19475  -1.08878  -1.07284
 Alpha  occ. eigenvalues --   -1.04872  -1.02245  -0.95723  -0.94637  -0.86272
 Alpha  occ. eigenvalues --   -0.85638  -0.82552  -0.78357  -0.77606  -0.77017
 Alpha  occ. eigenvalues --   -0.72189  -0.71320  -0.70583  -0.65130  -0.64873
 Alpha  occ. eigenvalues --   -0.63935  -0.62218  -0.59659  -0.58146  -0.56246
 Alpha  occ. eigenvalues --   -0.55378  -0.53946  -0.53203  -0.52963  -0.51365
 Alpha  occ. eigenvalues --   -0.51090  -0.49027  -0.48858  -0.48505  -0.46607
 Alpha  occ. eigenvalues --   -0.45432  -0.44979  -0.44525  -0.44452  -0.42446
 Alpha  occ. eigenvalues --   -0.37454  -0.36472
 Alpha virt. eigenvalues --    0.04923   0.11183   0.16422   0.21320   0.23896
 Alpha virt. eigenvalues --    0.25637   0.27237   0.27732   0.28194   0.28548
 Alpha virt. eigenvalues --    0.29462   0.30892   0.32383   0.32692   0.32777

 Mulliken charges:
               1
     1  C   -0.296885
     2  C   -0.298692
     3  C   -0.474999
     4  H    0.147326
     5  H    0.147445
     6  H    0.150733
     7  H    0.151115
     8  H    0.154045
     9  H    0.153962
    10  H    0.157788
    11  C   -0.296735
    12  C   -0.303156
    13  C   -0.468869
    14  H    0.147411
    15  H    0.149613
    16  H    0.144768
    17  H    0.145663
    18  H    0.167794
    19  H    0.151020
    20  H    0.162993
    21  C   -0.170591
    22  C   -0.218551
    23  C   -0.170840
    24  C    0.158628
    25  C   -0.170741
    26  C   -0.218563
    27  H    0.226026
    28  H    0.223870
    29  H    0.275842
    30  H    0.275795
    31  H    0.223854
    32  N    0.488681
    33  O   -0.459055
    34  O   -0.456693
 Sum of Mulliken charges =  -0.00000

 Dipole moment (field-independent basis, Debye):
    X=              5.7070    Y=              0.5023    Z=             -0.1488  Tot=              5.7310
 Quadrupole moment (field-independent basis, Debye-Ang):
   XX=            -61.4304   YY=            -89.6395   ZZ=            -94.9781
   XY=              1.5829   XZ=             -0.3832   YZ=              1.6019

 Normal termination of Gaussian 16 at Thu May  6 17:02:17 2021.
