 Gaussian 16, Revision A.03,
 Gaussian 16:  EM64L-G16RevA.03 25-Dec-2016

 -------------
 #p 6-31g* mp2
 -------------

 ------------------------------------------------------
 Input file generated by CHIRIPA (05-May-2021 14:57:23)
 ------------------------------------------------------
 Symbolic Z-matrix:
 Charge =  0 Multiplicity = 1

                         Standard orientation:
 ---------------------------------------------------------------------
 Center     Atomic      Atomic             Coordinates (Angstroms)
 Number     Number       Type             X           Y           Z
 ---------------------------------------------------------------------
      1          6           0       -2.162711    2.440957    1.252260
      2          6           0       -3.104494    2.474370    0.218603
      3          6           0       -3.504490    1.294550   -0.415886
      4          6           0       -2.939790    0.093488    0.010557
      5          6           0       -1.999328    0.027559    1.037433
      6          6           0       -1.614101    1.219811    1.657662
      7          1           0       -1.857721    3.362298    1.739608
      8          1           0       -3.532227    3.421286   -0.098322
      9          1           0       -4.231699    1.291619   -1.218741
     10          1           0       -1.590589   -0.931572    1.331401
     11          1           0       -0.882501    1.190843    2.460139
     12          7           0       -3.355430   -1.162115   -0.653599
     13          8           0       -2.843031   -2.207420   -0.259364
     14          8           0       -4.185739   -1.077177   -1.555825
     15          6           0        1.469782   -2.166233    0.839396
     16          6           0        2.597283   -1.711034    1.530813
     17          6           0        3.381156   -0.677839    1.008705
     18          6           0        3.006780   -0.120047   -0.212771
     19          6           0        1.889179   -0.551702   -0.925464
     20          6           0        1.119945   -1.586136   -0.384378
     21          1           0        0.866536   -2.969324    1.252354
     22          1           0        2.871360   -2.159680    2.481415
     23          1           0        4.259109   -0.306143    1.522960
     24          1           0        1.641133   -0.084810   -1.870929
     25          1           0        0.244845   -1.937625   -0.923544
     26          7           0        3.828882    0.974406   -0.775549
     27          8           0        3.477807    1.449222   -1.853479
     28          8           0        4.808754    1.336699   -0.128068
 ---------------------------------------------------------------------

 SCF Done:  E(RHF) =  -868.339552203     A.U. after   16 cycles
 E2 =    -0.2600631057D+01 EUMP2 =    -0.87094018326014D+03

 The electronic state is 1-A.
 Alpha  occ. eigenvalues --  -20.61607 -20.61546 -20.60950 -20.60942 -15.86597
 Alpha  occ. eigenvalues --  -15.85997 -11.31688 -11.31345 -11.28254 -11.28206
 Alpha  occ. eigenvalues --  -11.27908 -11.27883 -11.27822 -11.27561 -11.27161
 Alpha  occ. eigenvalues --  -11.27141 -11.26938 -11.26743  -1.60640  -1.60025
 Alpha  occ. eigenvalues --   -1.40205  -1.39578  -1.19837  -1.19494  -1.09273
 Alpha  occ. eigenvalues --   -1.08890  -1.05196  -1.04867  -0.96155  -0.95728
 Alpha  occ. eigenvalues --   -0.86614  -0.86249  -0.82997  -0.82546  -0.78095
 Alpha  occ. eigenvalues --   -0.77600  -0.72821  -0.72212  -0.71956  -0.71351
 Alpha  occ. eigenvalues --   -0.70940  -0.70560  -0.65488  -0.65214  -0.65114
 Alpha  occ. eigenvalues --   -0.64802  -0.62566  -0.62176  -0.55688  -0.55337
 Alpha  occ. eigenvalues --   -0.53631  -0.53331  -0.53091  -0.52917  -0.49600
 Alpha  occ. eigenvalues --   -0.49541  -0.48972  -0.48967  -0.45652  -0.44987
 Alpha  occ. eigenvalues --   -0.37825  -0.37520  -0.36941  -0.36243
 Alpha virt. eigenvalues --    0.04403   0.04866   0.10533   0.11461   0.15934
 Alpha virt. eigenvalues --    0.16311   0.20681   0.21672   0.26400   0.27267
 Alpha virt. eigenvalues --    0.27649   0.28778   0.30784   0.31077   0.32075

 Mulliken charges:
               1
     1  C   -0.169209
     2  C   -0.218219
     3  C   -0.170525
     4  C    0.154937
     5  C   -0.168573
     6  C   -0.217985
     7  H    0.229109
     8  H    0.226194
     9  H    0.276535
    10  H    0.269209
    11  H    0.225271
    12  N    0.488063
    13  O   -0.469584
    14  O   -0.454861
    15  C   -0.181380
    16  C   -0.220327
    17  C   -0.173562
    18  C    0.158050
    19  C   -0.171432
    20  C   -0.224908
    21  H    0.231523
    22  H    0.223117
    23  H    0.274826
    24  H    0.276859
    25  H    0.240034
    26  N    0.487779
    27  O   -0.459704
    28  O   -0.461238
 Sum of Mulliken charges =  -0.00000

 Dipole moment (field-independent basis, Debye):
    X=             -1.5712    Y=              0.7081    Z=              4.2505  Tot=              4.5866
 Quadrupole moment (field-independent basis, Debye-Ang):
   XX=           -128.1089   YY=           -102.4404   ZZ=           -101.3960
   XY=            -26.7498   XZ=              4.6054   YZ=             -0.9108

 Normal termination of Gaussian 16 at Thu May  6 14:35:48 2021.
