 Gaussian 16, Revision A.03,
 Gaussian 16:  EM64L-G16RevA.03 25-Dec-2016

 -------------
 #p 6-31g* mp2
 -------------

 ------------------------------------------------------
 Input file generated by CHIRIPA (05-May-2021 14:53:17)
 ------------------------------------------------------
 Symbolic Z-matrix:
 Charge =  0 Multiplicity = 1

                         Standard orientation:
 ---------------------------------------------------------------------
 Center     Atomic      Atomic             Coordinates (Angstroms)
 Number     Number       Type             X           Y           Z
 ---------------------------------------------------------------------
      1          6           0        4.827863    0.266703   -0.289112
      2          6           0        6.061183   -0.351543    0.370189
      3          6           0        7.225955    0.632299    0.484883
      4          1           0        5.099336    0.633839   -1.288341
      5          1           0        4.511732    1.144589    0.291208
      6          1           0        6.374067   -1.228816   -0.210423
      7          1           0        5.786696   -0.717421    1.367890
      8          1           0        6.937185    1.503248    1.082094
      9          1           0        7.527893    0.988947   -0.505186
     10          1           0        8.097122    0.169565    0.959021
     11          6           0        3.655015   -0.704546   -0.410891
     12          6           0        2.421694   -0.086301   -1.070193
     13          6           0        1.256922   -1.070142   -1.184887
     14          1           0        3.971145   -1.582432   -0.991212
     15          1           0        3.383541   -1.071682    0.588338
     16          1           0        2.696181    0.279578   -2.067893
     17          1           0        2.108810    0.790973   -0.489581
     18          1           0        0.954984   -1.426790   -0.194818
     19          1           0        1.545692   -1.941091   -1.782098
     20          1           0        0.385756   -0.607408   -1.659025
     21          6           0       -0.979700    0.624337    1.117973
     22          6           0       -1.621679    1.559125    0.299099
     23          6           0       -2.914817    1.318464   -0.174638
     24          6           0       -3.539259    0.127209    0.191793
     25          6           0       -2.926011   -0.823658    1.006083
     26          6           0       -1.632764   -0.561980    1.468234
     27          1           0        0.024883    0.819451    1.481483
     28          1           0       -1.116927    2.481293    0.025466
     29          1           0       -3.435084    2.024926   -0.809972
     30          1           0       -3.454727   -1.733858    1.261841
     31          1           0       -1.136633   -1.289753    2.104037
     32          7           0       -4.908304   -0.138693   -0.303599
     33          8           0       -5.436864   -1.195842    0.033590
     34          8           0       -5.426878    0.715078   -1.019694
 ---------------------------------------------------------------------

 SCF Done:  E(RHF) =  -669.534950842     A.U. after   15 cycles
 E2 =    -0.2092429731D+01 EUMP2 =    -0.67162738057333D+03

 The electronic state is 1-A.
 Alpha  occ. eigenvalues --  -20.60762 -20.60757 -15.85818 -11.31186 -11.27781
 Alpha  occ. eigenvalues --  -11.27768 -11.27517 -11.26779 -11.26766 -11.22378
 Alpha  occ. eigenvalues --  -11.22150 -11.22098 -11.22002 -11.21610 -11.21545
 Alpha  occ. eigenvalues --   -1.59838  -1.39392  -1.19374  -1.09096  -1.08765
 Alpha  occ. eigenvalues --   -1.04779  -1.04145  -0.96575  -0.95594  -0.87581
 Alpha  occ. eigenvalues --   -0.86178  -0.82430  -0.80213  -0.78905  -0.77473
 Alpha  occ. eigenvalues --   -0.72037  -0.71162  -0.70503  -0.65740  -0.65029
 Alpha  occ. eigenvalues --   -0.64783  -0.62128  -0.61566  -0.59940  -0.58184
 Alpha  occ. eigenvalues --   -0.55936  -0.55251  -0.53417  -0.52999  -0.52879
 Alpha  occ. eigenvalues --   -0.52869  -0.50502  -0.48795  -0.48790  -0.48521
 Alpha  occ. eigenvalues --   -0.47278  -0.46437  -0.46383  -0.44797  -0.44393
 Alpha  occ. eigenvalues --   -0.37281  -0.36374
 Alpha virt. eigenvalues --    0.05051   0.11159   0.16477   0.19744   0.22648
 Alpha virt. eigenvalues --    0.24011   0.25666   0.26043   0.27229   0.27722
 Alpha virt. eigenvalues --    0.28630   0.30511   0.31108   0.31171   0.32049

 Mulliken charges:
               1
     1  C   -0.298039
     2  C   -0.299904
     3  C   -0.475955
     4  H    0.151679
     5  H    0.146603
     6  H    0.153607
     7  H    0.151176
     8  H    0.154722
     9  H    0.156306
    10  H    0.161820
    11  C   -0.297844
    12  C   -0.301100
    13  C   -0.474536
    14  H    0.153075
    15  H    0.145475
    16  H    0.155694
    17  H    0.141080
    18  H    0.148963
    19  H    0.157282
    20  H    0.165869
    21  C   -0.165164
    22  C   -0.220590
    23  C   -0.171116
    24  C    0.158148
    25  C   -0.170895
    26  C   -0.218233
    27  H    0.226544
    28  H    0.223583
    29  H    0.275739
    30  H    0.275778
    31  H    0.223036
    32  N    0.488134
    33  O   -0.460387
    34  O   -0.460550
 Sum of Mulliken charges =  -0.00000

 Dipole moment (field-independent basis, Debye):
    X=              4.8852    Y=              0.9040    Z=              1.6837  Tot=              5.2456
 Quadrupole moment (field-independent basis, Debye-Ang):
   XX=           -129.9975   YY=            -91.1573   ZZ=            -92.6172
   XY=             -3.4247   XZ=             -5.9340   YZ=             -1.8261

 Normal termination of Gaussian 16 at Thu May  6 12:16:00 2021.
