 Gaussian 16, Revision A.03,
 Gaussian 16:  EM64L-G16RevA.03 25-Dec-2016

 -------------
 #p 6-31g* mp2
 -------------

 ------------------------------------------------------
 Input file generated by CHIRIPA (05-May-2021 14:51:11)
 ------------------------------------------------------
 Symbolic Z-matrix:
 Charge =  0 Multiplicity = 1

                         Standard orientation:
 ---------------------------------------------------------------------
 Center     Atomic      Atomic             Coordinates (Angstroms)
 Number     Number       Type             X           Y           Z
 ---------------------------------------------------------------------
      1          6           0        2.728130   -0.204067    0.872214
      2          6           0        2.189783   -1.624363    0.696357
      3          6           0        1.174838   -2.009398    1.773125
      4          1           0        3.192019   -0.114788    1.864071
      5          1           0        1.887864    0.503789    0.855279
      6          1           0        3.030947   -2.329208    0.712233
      7          1           0        1.727291   -1.710326   -0.295272
      8          1           0        0.317053   -1.329346    1.754791
      9          1           0        1.628116   -1.951745    2.768020
     10          1           0        0.802982   -3.028515    1.628271
     11          6           0        3.743840    0.195479   -0.196629
     12          6           0        4.282187    1.615776   -0.020772
     13          6           0        5.297132    2.000810   -1.097540
     14          1           0        4.584106   -0.512377   -0.179694
     15          1           0        3.279951    0.106201   -1.188486
     16          1           0        4.744678    1.701739    0.970857
     17          1           0        3.441022    2.320621   -0.036648
     18          1           0        4.843854    1.943157   -2.092435
     19          1           0        6.154917    1.320759   -1.079206
     20          1           0        5.668988    3.019928   -0.952686
     21          6           0       -3.914312    0.313894   -0.172104
     22          6           0       -3.816112    1.751912    0.338239
     23          6           0       -5.181355    2.357595    0.665432
     24          1           0       -4.550835    0.291906   -1.067256
     25          1           0       -4.418177   -0.302863    0.584946
     26          1           0       -3.311345    2.365481   -0.418965
     27          1           0       -3.179593    1.770508    1.232169
     28          1           0       -5.688481    1.769926    1.437487
     29          1           0       -5.820982    2.368281   -0.223029
     30          1           0       -5.087783    3.385844    1.028487
     31          6           0       -2.557658   -0.305307   -0.503481
     32          6           0       -2.655857   -1.743324   -1.013824
     33          6           0       -1.290615   -2.349008   -1.341017
     34          1           0       -2.053793    0.311451   -1.260531
     35          1           0       -1.921135   -0.283317    0.391671
     36          1           0       -3.292377   -1.761920   -1.907754
     37          1           0       -3.160624   -2.356893   -0.256620
     38          1           0       -0.650988   -2.359693   -0.452556
     39          1           0       -0.783489   -1.761339   -2.113072
     40          1           0       -1.384188   -3.377256   -1.704072
 ---------------------------------------------------------------------

 SCF Done:  E(RHF) =  -470.732710157     A.U. after   11 cycles
 E2 =    -0.1583666831D+01 EUMP2 =    -0.47231637698866D+03

 The electronic state is 1-A.
 Alpha  occ. eigenvalues --  -11.21624 -11.21598 -11.21586 -11.21556 -11.21435
 Alpha  occ. eigenvalues --  -11.21384 -11.21374 -11.21324 -11.21121 -11.21086
 Alpha  occ. eigenvalues --  -11.21060 -11.20992  -1.08458  -1.08406  -1.03590
 Alpha  occ. eigenvalues --   -1.03480  -0.96054  -0.95926  -0.87039  -0.86974
 Alpha  occ. eigenvalues --   -0.79620  -0.79575  -0.78271  -0.78221  -0.65175
 Alpha  occ. eigenvalues --   -0.64976  -0.61192  -0.60735  -0.59380  -0.59334
 Alpha  occ. eigenvalues --   -0.57714  -0.57488  -0.55463  -0.55083  -0.52708
 Alpha  occ. eigenvalues --   -0.52666  -0.52448  -0.52340  -0.49988  -0.49856
 Alpha  occ. eigenvalues --   -0.48018  -0.47812  -0.46634  -0.46590  -0.45892
 Alpha  occ. eigenvalues --   -0.45759  -0.45651  -0.45617  -0.43794  -0.43780
 Alpha virt. eigenvalues --    0.20701   0.23145   0.23596   0.25158   0.25518
 Alpha virt. eigenvalues --    0.26339   0.26982   0.27571   0.28260   0.29201
 Alpha virt. eigenvalues --    0.30579   0.31248   0.31621   0.31770   0.32276

 Mulliken charges:
               1
     1  C   -0.298068
     2  C   -0.304259
     3  C   -0.483050
     4  H    0.149336
     5  H    0.149766
     6  H    0.152026
     7  H    0.157779
     8  H    0.156993
     9  H    0.157216
    10  H    0.160750
    11  C   -0.298308
    12  C   -0.299683
    13  C   -0.475689
    14  H    0.149493
    15  H    0.149813
    16  H    0.151867
    17  H    0.151996
    18  H    0.155130
    19  H    0.155167
    20  H    0.160189
    21  C   -0.298169
    22  C   -0.299701
    23  C   -0.475720
    24  H    0.149896
    25  H    0.149795
    26  H    0.151783
    27  H    0.151831
    28  H    0.155319
    29  H    0.155229
    30  H    0.160309
    31  C   -0.301486
    32  C   -0.298899
    33  C   -0.486419
    34  H    0.149175
    35  H    0.151487
    36  H    0.151782
    37  H    0.151940
    38  H    0.169767
    39  H    0.153738
    40  H    0.159877
 Sum of Mulliken charges =  -0.00000

 Dipole moment (field-independent basis, Debye):
    X=              0.0048    Y=             -0.0129    Z=              0.0093  Tot=              0.0167
 Quadrupole moment (field-independent basis, Debye-Ang):
   XX=            -85.6152   YY=            -85.0446   ZZ=            -84.1465
   XY=             -0.1333   XZ=              1.2608   YZ=             -0.4472

 Normal termination of Gaussian 16 at Wed May  5 23:04:08 2021.
