 Gaussian 16, Revision A.03,
 Gaussian 16:  EM64L-G16RevA.03 25-Dec-2016

 -------------
 #p 6-31g* mp2
 -------------

 ------------------------------------------------------
 Input file generated by CHIRIPA (05-May-2021 14:55:24)
 ------------------------------------------------------
 Symbolic Z-matrix:
 Charge =  0 Multiplicity = 1

                         Standard orientation:
 ---------------------------------------------------------------------
 Center     Atomic      Atomic             Coordinates (Angstroms)
 Number     Number       Type             X           Y           Z
 ---------------------------------------------------------------------
      1          6           0       -2.406168    2.530979    0.182250
      2          6           0       -3.587337    2.314067   -0.534905
      3          6           0       -4.148414    1.035686   -0.608959
      4          6           0       -3.498940   -0.007604    0.049082
      5          6           0       -2.321050    0.176653    0.771517
      6          6           0       -1.777902    1.463462    0.832027
      7          1           0       -1.977274    3.527329    0.234516
      8          1           0       -4.077432    3.141237   -1.040515
      9          1           0       -5.061897    0.839650   -1.157171
     10          1           0       -1.855417   -0.667698    1.265153
     11          1           0       -0.860493    1.628972    1.389710
     12          7           0       -4.083437   -1.365430   -0.022146
     13          8           0       -3.491900   -2.267865    0.566354
     14          8           0       -5.122035   -1.501548   -0.665126
     15          6           0        4.940177    0.184110    0.092554
     16          6           0        6.292948   -0.355438   -0.373153
     17          6           0        7.453128    0.577603   -0.024999
     18          1           0        4.769323    1.169455   -0.362254
     19          1           0        4.970977    0.342627    1.179438
     20          1           0        6.259153   -0.514197   -1.458635
     21          1           0        6.460516   -1.339697    0.082664
     22          1           0        7.515389    0.727475    1.057712
     23          1           0        7.312883    1.557666   -0.492344
     24          1           0        8.410618    0.172536   -0.367039
     25          6           0        3.770500   -0.737536   -0.248256
     26          6           0        2.417728   -0.197988    0.217451
     27          6           0        1.257549   -1.131029   -0.130704
     28          1           0        3.739701   -0.896053   -1.335142
     29          1           0        3.941354   -1.722880    0.206551
     30          1           0        2.250161    0.786272   -0.238367
     31          1           0        2.451524   -0.039229    1.302932
     32          1           0        1.397794   -2.111091    0.336641
     33          1           0        1.195289   -1.280900   -1.213415
     34          1           0        0.300058   -0.725962    0.211336
 ---------------------------------------------------------------------

 SCF Done:  E(RHF) =  -669.534751497     A.U. after   15 cycles
 E2 =    -0.2092099077D+01 EUMP2 =    -0.67162685057368D+03

 The electronic state is 1-A.
 Alpha  occ. eigenvalues --  -20.60759 -20.60752 -15.85813 -11.31200 -11.27778
 Alpha  occ. eigenvalues --  -11.27761 -11.27521 -11.26797 -11.26785 -11.22082
 Alpha  occ. eigenvalues --  -11.21847 -11.21733 -11.21671 -11.21392 -11.21299
 Alpha  occ. eigenvalues --   -1.59833  -1.39386  -1.19385  -1.08772  -1.08762
 Alpha  occ. eigenvalues --   -1.04804  -1.03862  -0.96301  -0.95601  -0.87316
 Alpha  occ. eigenvalues --   -0.86183  -0.82439  -0.79935  -0.78578  -0.77483
 Alpha  occ. eigenvalues --   -0.72032  -0.71157  -0.70501  -0.65392  -0.65043
 Alpha  occ. eigenvalues --   -0.64792  -0.62220  -0.61251  -0.59664  -0.57922
 Alpha  occ. eigenvalues --   -0.55561  -0.55288  -0.53369  -0.52948  -0.52790
 Alpha  occ. eigenvalues --   -0.52587  -0.50217  -0.48793  -0.48784  -0.48244
 Alpha  occ. eigenvalues --   -0.46964  -0.46116  -0.46039  -0.44788  -0.44123
 Alpha  occ. eigenvalues --   -0.37361  -0.36341
 Alpha virt. eigenvalues --    0.05015   0.11229   0.16408   0.20687   0.22669
 Alpha virt. eigenvalues --    0.24005   0.26307   0.26396   0.27085   0.28049
 Alpha virt. eigenvalues --    0.28917   0.30347   0.31125   0.31581   0.32295

 Mulliken charges:
               1
     1  C   -0.171197
     2  C   -0.218395
     3  C   -0.171254
     4  C    0.157051
     5  C   -0.170861
     6  C   -0.217722
     7  H    0.225812
     8  H    0.223556
     9  H    0.275756
    10  H    0.277176
    11  H    0.225486
    12  N    0.488143
    13  O   -0.459881
    14  O   -0.460538
    15  C   -0.298328
    16  C   -0.299977
    17  C   -0.475840
    18  H    0.148447
    19  H    0.148967
    20  H    0.152733
    21  H    0.153112
    22  H    0.155134
    23  H    0.154731
    24  H    0.161333
    25  C   -0.298537
    26  C   -0.300659
    27  C   -0.479494
    28  H    0.151431
    29  H    0.152013
    30  H    0.148780
    31  H    0.148071
    32  H    0.159801
    33  H    0.159721
    34  H    0.155431
 Sum of Mulliken charges =  -0.00000

 Dipole moment (field-independent basis, Debye):
    X=              2.0913    Y=              4.7455    Z=              0.1999  Tot=              5.1897
 Quadrupole moment (field-independent basis, Debye-Ang):
   XX=           -107.2564   YY=            -94.7172   ZZ=            -92.9750
   XY=            -19.2100   XZ=              1.5210   YZ=             -1.4390

 Normal termination of Gaussian 16 at Wed May  5 22:23:04 2021.
