 Gaussian 16, Revision A.03,
 Gaussian 16:  EM64L-G16RevA.03 25-Dec-2016

 -------------
 #p 6-31g* mp2
 -------------

 ------------------------------------------------------
 Input file generated by CHIRIPA (05-May-2021 14:51:14)
 ------------------------------------------------------
 Symbolic Z-matrix:
 Charge =  0 Multiplicity = 1

                         Standard orientation:
 ---------------------------------------------------------------------
 Center     Atomic      Atomic             Coordinates (Angstroms)
 Number     Number       Type             X           Y           Z
 ---------------------------------------------------------------------
      1          6           0       -4.395336    0.000065    0.097310
      2          6           0       -4.555216   -1.424892   -0.433650
      3          6           0       -5.858749   -2.082272    0.020713
      4          1           0       -4.435441   -0.017816    1.195043
      5          1           0       -5.248697    0.606310   -0.236810
      6          1           0       -3.701102   -2.027917   -0.099783
      7          1           0       -4.514533   -1.403640   -1.530240
      8          1           0       -6.722299   -1.505003   -0.325181
      9          1           0       -5.904247   -2.132827    1.113404
     10          1           0       -5.952545   -3.100233   -0.370207
     11          6           0       -3.097037    0.670528   -0.348367
     12          6           0       -2.937157    2.095485    0.182594
     13          6           0       -1.633623    2.752866   -0.271769
     14          1           0       -2.243675    0.064283   -0.014246
     15          1           0       -3.056931    0.688410   -1.446099
     16          1           0       -2.977839    2.074233    1.279184
     17          1           0       -3.791270    2.698510   -0.151274
     18          1           0       -1.588125    2.803420   -1.364461
     19          1           0       -0.770073    2.175596    0.074124
     20          1           0       -1.539827    3.770827    0.119150
     21          6           0        3.034149   -0.502473   -0.094672
     22          6           0        1.976785   -0.146765    0.951004
     23          6           0        0.557342   -0.487132    0.495893
     24          1           0        2.809794    0.029450   -1.029373
     25          1           0        2.968419   -1.575474   -0.322141
     26          1           0        2.045409    0.924976    1.177451
     27          1           0        2.203792   -0.679447    1.883383
     28          1           0        0.465683   -1.558214    0.288575
     29          1           0        0.306399    0.055325   -0.421369
     30          1           0       -0.182548   -0.224645    1.258469
     31          6           0        4.458223   -0.168121    0.345729
     32          6           0        5.515587   -0.523829   -0.699947
     33          6           0        6.935030   -0.183461   -0.244836
     34          1           0        4.523954    0.904881    0.573197
     35          1           0        4.682578   -0.700043    1.280430
     36          1           0        5.288580    0.008854   -1.632328
     37          1           0        5.446963   -1.595570   -0.926394
     38          1           0        7.185973   -0.725918    0.672425
     39          1           0        7.026690    0.887621   -0.037518
     40          1           0        7.674920   -0.445948   -1.007413
 ---------------------------------------------------------------------

 SCF Done:  E(RHF) =  -470.731926309     A.U. after   11 cycles
 E2 =    -0.1583817199D+01 EUMP2 =    -0.47231574350820D+03

 The electronic state is 1-A.
 Alpha  occ. eigenvalues --  -11.21666 -11.21619 -11.21533 -11.21518 -11.21439
 Alpha  occ. eigenvalues --  -11.21378 -11.21293 -11.21177 -11.21141 -11.21084
 Alpha  occ. eigenvalues --  -11.21021 -11.20961  -1.08475  -1.08332  -1.03602
 Alpha  occ. eigenvalues --   -1.03438  -0.96046  -0.95897  -0.87075  -0.86920
 Alpha  occ. eigenvalues --   -0.79722  -0.79472  -0.78302  -0.78107  -0.65145
 Alpha  occ. eigenvalues --   -0.64957  -0.61140  -0.60756  -0.59432  -0.59224
 Alpha  occ. eigenvalues --   -0.57641  -0.57522  -0.55436  -0.55091  -0.52804
 Alpha  occ. eigenvalues --   -0.52592  -0.52458  -0.52318  -0.50076  -0.49785
 Alpha  occ. eigenvalues --   -0.47996  -0.47789  -0.46766  -0.46459  -0.45901
 Alpha  occ. eigenvalues --   -0.45753  -0.45662  -0.45449  -0.43740  -0.43685
 Alpha virt. eigenvalues --    0.21487   0.22924   0.23665   0.25107   0.26240
 Alpha virt. eigenvalues --    0.26491   0.27081   0.27487   0.27788   0.29453
 Alpha virt. eigenvalues --    0.30741   0.31180   0.31564   0.31781   0.32277

 Mulliken charges:
               1
     1  C   -0.297460
     2  C   -0.299537
     3  C   -0.475607
     4  H    0.148781
     5  H    0.148954
     6  H    0.151943
     7  H    0.151750
     8  H    0.155059
     9  H    0.154964
    10  H    0.159956
    11  C   -0.309014
    12  C   -0.298500
    13  C   -0.482539
    14  H    0.163761
    15  H    0.148157
    16  H    0.150639
    17  H    0.151462
    18  H    0.153928
    19  H    0.163551
    20  H    0.159362
    21  C   -0.298718
    22  C   -0.301892
    23  C   -0.480979
    24  H    0.150282
    25  H    0.149663
    26  H    0.152927
    27  H    0.152291
    28  H    0.156213
    29  H    0.160171
    30  H    0.160012
    31  C   -0.298398
    32  C   -0.299679
    33  C   -0.475735
    34  H    0.149749
    35  H    0.149667
    36  H    0.152094
    37  H    0.151938
    38  H    0.155174
    39  H    0.155274
    40  H    0.160335
 Sum of Mulliken charges =  -0.00000

 Dipole moment (field-independent basis, Debye):
    X=              0.0788    Y=             -0.0366    Z=              0.0001  Tot=              0.0869
 Quadrupole moment (field-independent basis, Debye-Ang):
   XX=            -86.8349   YY=            -84.3504   ZZ=            -84.0447
   XY=             -0.9156   XZ=              0.4245   YZ=             -0.5674

 Normal termination of Gaussian 16 at Wed May  5 18:24:59 2021.
