 Gaussian 16, Revision A.03,
 Gaussian 16:  EM64L-G16RevA.03 25-Dec-2016

 -------------
 #p 6-31g* mp2
 -------------

 ------------------------------------------------------
 Input file generated by CHIRIPA (05-May-2021 14:55:22)
 ------------------------------------------------------
 Symbolic Z-matrix:
 Charge =  0 Multiplicity = 1

                         Standard orientation:
 ---------------------------------------------------------------------
 Center     Atomic      Atomic             Coordinates (Angstroms)
 Number     Number       Type             X           Y           Z
 ---------------------------------------------------------------------
      1          6           0       -1.221271    1.245887    1.453851
      2          6           0       -2.320014    1.857685    0.841488
      3          6           0       -3.281359    1.089895    0.177515
      4          6           0       -3.111851   -0.293403    0.145195
      5          6           0       -2.028141   -0.932367    0.745684
      6          6           0       -1.079092   -0.144735    1.404082
      7          1           0       -0.479250    1.850032    1.967477
      8          1           0       -2.433007    2.937456    0.878543
      9          1           0       -4.141671    1.537574   -0.305047
     10          1           0       -1.942647   -2.010893    0.691919
     11          1           0       -0.226811   -0.622586    1.878761
     12          7           0       -4.123076   -1.116731   -0.554773
     13          8           0       -3.950823   -2.333596   -0.569041
     14          8           0       -5.068780   -0.529600   -1.075887
     15          6           0        3.080972    0.427658   -0.574152
     16          6           0        2.899812    1.945825   -0.555755
     17          6           0        1.516650    2.382031   -1.039886
     18          1           0        2.914565    0.057260   -1.594966
     19          1           0        2.308370   -0.034470    0.055863
     20          1           0        3.673377    2.405038   -1.184514
     21          1           0        3.066857    2.312675    0.465094
     22          1           0        0.733597    1.951016   -0.407703
     23          1           0        1.343561    2.043905   -2.066683
     24          1           0        1.408813    3.470964   -1.018564
     25          6           0        4.458713   -0.023926   -0.092876
     26          6           0        4.639872   -1.542091   -0.111273
     27          6           0        6.023034   -1.978298    0.372857
     28          1           0        5.231314    0.438202   -0.722892
     29          1           0        4.625119    0.346473    0.927937
     30          1           0        4.472826   -1.908942   -1.132122
     31          1           0        3.866308   -2.001306    0.517486
     32          1           0        6.196122   -1.640172    1.399654
     33          1           0        6.806088   -1.547284   -0.259326
     34          1           0        6.130871   -3.067231    0.351535
 ---------------------------------------------------------------------

 SCF Done:  E(RHF) =  -669.535032273     A.U. after   15 cycles
 E2 =    -0.2092485369D+01 EUMP2 =    -0.67162751764169D+03

 The electronic state is 1-A.
 Alpha  occ. eigenvalues --  -20.60801 -20.60796 -15.85856 -11.31248 -11.27831
 Alpha  occ. eigenvalues --  -11.27821 -11.27574 -11.26859 -11.26833 -11.22196
 Alpha  occ. eigenvalues --  -11.22077 -11.21979 -11.21887 -11.21523 -11.21466
 Alpha  occ. eigenvalues --   -1.59876  -1.39429  -1.19437  -1.08979  -1.08831
 Alpha  occ. eigenvalues --   -1.04837  -1.04040  -0.96486  -0.95657  -0.87497
 Alpha  occ. eigenvalues --   -0.86236  -0.82484  -0.80104  -0.78784  -0.77518
 Alpha  occ. eigenvalues --   -0.72075  -0.71199  -0.70562  -0.65626  -0.65088
 Alpha  occ. eigenvalues --   -0.64831  -0.62179  -0.61459  -0.59851  -0.58097
 Alpha  occ. eigenvalues --   -0.55875  -0.55294  -0.53314  -0.53160  -0.52932
 Alpha  occ. eigenvalues --   -0.52767  -0.50402  -0.48835  -0.48827  -0.48406
 Alpha  occ. eigenvalues --   -0.47151  -0.46317  -0.46264  -0.44829  -0.44305
 Alpha  occ. eigenvalues --   -0.37331  -0.36435
 Alpha virt. eigenvalues --    0.04984   0.11119   0.16395   0.20189   0.22775
 Alpha virt. eigenvalues --    0.23947   0.25385   0.26494   0.27320   0.28207
 Alpha virt. eigenvalues --    0.28736   0.30523   0.31119   0.31600   0.31704

 Mulliken charges:
               1
     1  C   -0.173308
     2  C   -0.216885
     3  C   -0.170422
     4  C    0.158774
     5  C   -0.170411
     6  C   -0.218112
     7  H    0.227794
     8  H    0.224551
     9  H    0.276102
    10  H    0.276115
    11  H    0.224139
    12  N    0.488071
    13  O   -0.460212
    14  O   -0.460177
    15  C   -0.297586
    16  C   -0.299701
    17  C   -0.484099
    18  H    0.153587
    19  H    0.142843
    20  H    0.154667
    21  H    0.146719
    22  H    0.159267
    23  H    0.159211
    24  H    0.157393
    25  C   -0.298597
    26  C   -0.299241
    27  C   -0.475951
    28  H    0.151751
    29  H    0.147781
    30  H    0.154337
    31  H    0.148601
    32  H    0.154643
    33  H    0.156534
    34  H    0.161820
 Sum of Mulliken charges =  -0.00000

 Dipole moment (field-independent basis, Debye):
    X=              3.5427    Y=              2.8662    Z=              2.4169  Tot=              5.1582
 Quadrupole moment (field-independent basis, Debye-Ang):
   XX=           -116.5870   YY=            -93.5679   ZZ=            -93.6059
   XY=            -12.3694   XZ=             -7.4047   YZ=             -1.2495

 Normal termination of Gaussian 16 at Thu May  6 07:49:18 2021.
