 Gaussian 16, Revision A.03,
 Gaussian 16:  EM64L-G16RevA.03 25-Dec-2016

 -------------
 #p 6-31g* mp2
 -------------

 ------------------------------------------------------
 Input file generated by CHIRIPA (05-May-2021 14:53:17)
 ------------------------------------------------------
 Symbolic Z-matrix:
 Charge =  0 Multiplicity = 1

                         Standard orientation:
 ---------------------------------------------------------------------
 Center     Atomic      Atomic             Coordinates (Angstroms)
 Number     Number       Type             X           Y           Z
 ---------------------------------------------------------------------
      1          6           0        3.660619   -0.004822    0.684985
      2          6           0        2.741223    1.204937    0.514168
      3          6           0        1.411326    1.045531    1.251566
      4          1           0        3.144084   -0.904025    0.322258
      5          1           0        3.850639   -0.163920    1.755487
      6          1           0        2.554111    1.362542   -0.555769
      7          1           0        3.260080    2.101395    0.877167
      8          1           0        1.579709    0.911041    2.324953
      9          1           0        0.869729    0.167991    0.883876
     10          1           0        0.769567    1.921673    1.115985
     11          6           0        4.994021    0.139566   -0.046396
     12          6           0        5.913416   -1.070194    0.124421
     13          6           0        7.243314   -0.910788   -0.612977
     14          1           0        4.804001    0.298663   -1.116899
     15          1           0        5.510556    1.038769    0.316330
     16          1           0        5.394560   -1.966651   -0.238578
     17          1           0        6.100529   -1.227798    1.194358
     18          1           0        7.784911   -0.033247   -0.245287
     19          1           0        7.074931   -0.776298   -1.686365
     20          1           0        7.885072   -1.786929   -0.477397
     21          6           0       -1.350047    1.179198   -1.100850
     22          6           0       -2.446522    1.893954   -0.607508
     23          6           0       -3.576970    1.221883   -0.133212
     24          6           0       -3.577037   -0.171724   -0.167139
     25          6           0       -2.500228   -0.912083   -0.652567
     26          6           0       -1.380346   -0.219074   -1.121767
     27          1           0       -0.475991    1.709412   -1.467315
     28          1           0       -2.425777    2.979914   -0.590052
     29          1           0       -4.439623    1.750313    0.254099
     30          1           0       -2.550263   -1.994161   -0.657215
     31          1           0       -0.530254   -0.776774   -1.504339
     32          7           0       -4.768199   -0.894298    0.332280
     33          8           0       -4.743473   -2.122456    0.291624
     34          8           0       -5.704001   -0.218811    0.754925
 ---------------------------------------------------------------------

 SCF Done:  E(RHF) =  -669.534743044     A.U. after   15 cycles
 E2 =    -0.2092288023D+01 EUMP2 =    -0.67162703106701D+03

 The electronic state is 1-A.
 Alpha  occ. eigenvalues --  -20.60752 -20.60746 -15.85808 -11.31171 -11.27773
 Alpha  occ. eigenvalues --  -11.27769 -11.27502 -11.26763 -11.26753 -11.22410
 Alpha  occ. eigenvalues --  -11.22087 -11.22063 -11.21949 -11.21699 -11.21486
 Alpha  occ. eigenvalues --   -1.59828  -1.39382  -1.19365  -1.09068  -1.08754
 Alpha  occ. eigenvalues --   -1.04775  -1.04142  -0.96579  -0.95581  -0.87584
 Alpha  occ. eigenvalues --   -0.86171  -0.82421  -0.80208  -0.78866  -0.77466
 Alpha  occ. eigenvalues --   -0.72027  -0.71152  -0.70482  -0.65713  -0.65018
 Alpha  occ. eigenvalues --   -0.64779  -0.62132  -0.61541  -0.59964  -0.58193
 Alpha  occ. eigenvalues --   -0.55905  -0.55251  -0.53437  -0.52994  -0.52901
 Alpha  occ. eigenvalues --   -0.52862  -0.50480  -0.48786  -0.48780  -0.48517
 Alpha  occ. eigenvalues --   -0.47260  -0.46402  -0.46335  -0.44788  -0.44398
 Alpha  occ. eigenvalues --   -0.37258  -0.36365
 Alpha virt. eigenvalues --    0.05069   0.11148   0.16496   0.19805   0.22659
 Alpha virt. eigenvalues --    0.24037   0.25801   0.26049   0.27302   0.27472
 Alpha virt. eigenvalues --    0.28940   0.30113   0.30944   0.31118   0.31815

 Mulliken charges:
               1
     1  C   -0.297712
     2  C   -0.301373
     3  C   -0.477712
     4  H    0.147148
     5  H    0.153090
     6  H    0.142462
     7  H    0.154721
     8  H    0.159203
     9  H    0.157533
    10  H    0.156321
    11  C   -0.298381
    12  C   -0.300014
    13  C   -0.475983
    14  H    0.147777
    15  H    0.151048
    16  H    0.151780
    17  H    0.153518
    18  H    0.155937
    19  H    0.154923
    20  H    0.161891
    21  C   -0.164029
    22  C   -0.220741
    23  C   -0.169949
    24  C    0.158166
    25  C   -0.171517
    26  C   -0.220080
    27  H    0.227418
    28  H    0.223325
    29  H    0.275730
    30  H    0.275629
    31  H    0.222815
    32  N    0.488165
    33  O   -0.460577
    34  O   -0.460531
 Sum of Mulliken charges =  -0.00000

 Dipole moment (field-independent basis, Debye):
    X=              4.2773    Y=              2.5367    Z=             -1.6972  Tot=              5.2546
 Quadrupole moment (field-independent basis, Debye-Ang):
   XX=           -124.8123   YY=            -91.8397   ZZ=            -94.2065
   XY=            -12.0412   XZ=              6.1156   YZ=              1.3062

 Normal termination of Gaussian 16 at Wed May  5 20:24:01 2021.
