 Gaussian 16, Revision A.03,
 Gaussian 16:  EM64L-G16RevA.03 25-Dec-2016

 -------------
 #p 6-31g* mp2
 -------------

 ------------------------------------------------------
 Input file generated by CHIRIPA (05-May-2021 14:53:17)
 ------------------------------------------------------
 Symbolic Z-matrix:
 Charge =  0 Multiplicity = 1

                         Standard orientation:
 ---------------------------------------------------------------------
 Center     Atomic      Atomic             Coordinates (Angstroms)
 Number     Number       Type             X           Y           Z
 ---------------------------------------------------------------------
      1          6           0       -3.556465   -0.153836   -0.206876
      2          6           0       -3.228243   -1.631914    0.006528
      3          6           0       -4.444527   -2.540054   -0.177121
      4          1           0       -4.347787    0.144447    0.494396
      5          1           0       -3.966903   -0.018715   -1.217162
      6          1           0       -2.817255   -1.763990    1.015617
      7          1           0       -2.437475   -1.926663   -0.695203
      8          1           0       -4.852585   -2.437737   -1.187874
      9          1           0       -5.234523   -2.274140    0.532666
     10          1           0       -4.187343   -3.592206   -0.019986
     11          6           0       -2.350647    0.766641   -0.026724
     12          6           0       -2.678869    2.244719   -0.240127
     13          6           0       -1.462585    3.152859   -0.056478
     14          1           0       -1.940208    0.631520    0.983562
     15          1           0       -1.559325    0.468359   -0.727995
     16          1           0       -3.469637    2.539469    0.461603
     17          1           0       -3.089857    2.376796   -1.249217
     18          1           0       -0.672589    2.886945   -0.766266
     19          1           0       -1.054527    3.050542    0.954275
     20          1           0       -1.719769    4.205011   -0.213614
     21          6           0        2.457430   -2.756566    0.006424
     22          6           0        3.056831   -1.985474   -0.994904
     23          6           0        2.980090   -0.590017   -0.958059
     24          6           0        2.292968    0.003975    0.099451
     25          6           0        1.685373   -0.736908    1.111977
     26          6           0        1.774817   -2.130925    1.054820
     27          1           0        2.521979   -3.840031   -0.030087
     28          1           0        3.587606   -2.468641   -1.810301
     29          1           0        3.434950    0.031089   -1.720126
     30          1           0        1.163109   -0.226662    1.912169
     31          1           0        1.308354   -2.727233    1.833842
     32          7           0        2.205001    1.480521    0.149208
     33          8           0        1.593871    1.979681    1.091544
     34          8           0        2.748846    2.110718   -0.755070
 ---------------------------------------------------------------------

 SCF Done:  E(RHF) =  -669.535719378     A.U. after   15 cycles
 E2 =    -0.2092521898D+01 EUMP2 =    -0.67162824127614D+03

 The electronic state is 1-A.
 Alpha  occ. eigenvalues --  -20.60861 -20.60837 -15.85877 -11.31229 -11.27795
 Alpha  occ. eigenvalues --  -11.27792 -11.27532 -11.26804 -11.26792 -11.21665
 Alpha  occ. eigenvalues --  -11.21220 -11.21171 -11.21034 -11.20887 -11.19768
 Alpha  occ. eigenvalues --   -1.59910  -1.39467  -1.19396  -1.08796  -1.08139
 Alpha  occ. eigenvalues --   -1.04795  -1.03120  -0.95649  -0.95516  -0.86539
 Alpha  occ. eigenvalues --   -0.86193  -0.82473  -0.79232  -0.77916  -0.77509
 Alpha  occ. eigenvalues --   -0.72110  -0.71229  -0.70506  -0.65053  -0.64808
 Alpha  occ. eigenvalues --   -0.64772  -0.62144  -0.60519  -0.59005  -0.57135
 Alpha  occ. eigenvalues --   -0.55301  -0.54802  -0.53134  -0.52890  -0.52221
 Alpha  occ. eigenvalues --   -0.51931  -0.49470  -0.48875  -0.48863  -0.47502
 Alpha  occ. eigenvalues --   -0.46293  -0.45553  -0.45349  -0.44647  -0.43394
 Alpha  occ. eigenvalues --   -0.37371  -0.36389
 Alpha virt. eigenvalues --    0.04987   0.11236   0.16463   0.21182   0.23047
 Alpha virt. eigenvalues --    0.24619   0.26146   0.27178   0.27718   0.28507
 Alpha virt. eigenvalues --    0.28865   0.30737   0.31607   0.31934   0.32394

 Mulliken charges:
               1
     1  C   -0.297720
     2  C   -0.298502
     3  C   -0.475197
     4  H    0.149662
     5  H    0.149752
     6  H    0.146720
     7  H    0.150690
     8  H    0.156035
     9  H    0.155863
    10  H    0.157151
    11  C   -0.296504
    12  C   -0.301344
    13  C   -0.474831
    14  H    0.146792
    15  H    0.146465
    16  H    0.148689
    17  H    0.148576
    18  H    0.157666
    19  H    0.170303
    20  H    0.155817
    21  C   -0.170732
    22  C   -0.218672
    23  C   -0.171288
    24  C    0.158083
    25  C   -0.168956
    26  C   -0.218151
    27  H    0.225796
    28  H    0.223511
    29  H    0.275581
    30  H    0.275376
    31  H    0.223751
    32  N    0.488582
    33  O   -0.458389
    34  O   -0.460572
 Sum of Mulliken charges =  -0.00000

 Dipole moment (field-independent basis, Debye):
    X=              0.4760    Y=             -5.1003    Z=             -0.1240  Tot=              5.1240
 Quadrupole moment (field-independent basis, Debye-Ang):
   XX=            -93.6135   YY=            -95.9097   ZZ=            -90.4697
   XY=            -12.5292   XZ=             -3.3401   YZ=             -0.5949

 Normal termination of Gaussian 16 at Wed May  5 17:14:52 2021.
