 Gaussian 16, Revision A.03,
 Gaussian 16:  EM64L-G16RevA.03 25-Dec-2016

 -------------
 #p 6-31g* mp2
 -------------

 ------------------------------------------------------
 Input file generated by CHIRIPA (05-May-2021 14:57:23)
 ------------------------------------------------------
 Symbolic Z-matrix:
 Charge =  0 Multiplicity = 1

                         Standard orientation:
 ---------------------------------------------------------------------
 Center     Atomic      Atomic             Coordinates (Angstroms)
 Number     Number       Type             X           Y           Z
 ---------------------------------------------------------------------
      1          6           0        5.111568    1.055849   -0.059769
      2          6           0        4.914069    0.046417    0.888156
      3          6           0        3.701148   -0.646482    0.945278
      4          6           0        2.702809   -0.302517    0.035169
      5          6           0        2.869241    0.698294   -0.920848
      6          6           0        4.090324    1.377998   -0.959659
      7          1           0        6.056964    1.588985   -0.097030
      8          1           0        5.705409   -0.205895    1.588274
      9          1           0        3.521478   -1.432284    1.668915
     10          1           0        2.061729    0.927396   -1.605578
     11          1           0        4.240898    2.161482   -1.696900
     12          7           0        1.414424   -1.029074    0.085948
     13          8           0        0.550644   -0.707117   -0.726988
     14          8           0        1.292763   -1.906749    0.937724
     15          6           0       -3.081478    2.611550    0.635992
     16          6           0       -3.378919    1.610160    1.566190
     17          6           0       -3.290163    0.261165    1.209987
     18          6           0       -2.899071   -0.052033   -0.090876
     19          6           0       -2.596183    0.922761   -1.040257
     20          6           0       -2.691747    2.265265   -0.661974
     21          1           0       -3.153071    3.656962    0.921275
     22          1           0       -3.681848    1.876148    2.574918
     23          1           0       -3.514660   -0.534298    1.910172
     24          1           0       -2.296931    0.626606   -2.038335
     25          1           0       -2.460147    3.040839   -1.386469
     26          7           0       -2.801506   -1.476719   -0.479659
     27          8           0       -2.454654   -1.726471   -1.632029
     28          8           0       -3.073732   -2.316659    0.375343
 ---------------------------------------------------------------------

 SCF Done:  E(RHF) =  -868.336991436     A.U. after   16 cycles
 E2 =    -0.2601603510D+01 EUMP2 =    -0.87093859494583D+03

 The electronic state is 1-A.
 Alpha  occ. eigenvalues --  -20.60663 -20.60655 -20.59170 -20.59130 -15.85697
 Alpha  occ. eigenvalues --  -15.84218 -11.31174 -11.29922 -11.27777 -11.27737
 Alpha  occ. eigenvalues --  -11.27518 -11.26808 -11.26779 -11.26590 -11.26563
 Alpha  occ. eigenvalues --  -11.26484 -11.25739 -11.25727  -1.59720  -1.58179
 Alpha  occ. eigenvalues --   -1.39275  -1.37741  -1.19356  -1.18163  -1.08731
 Alpha  occ. eigenvalues --   -1.07502  -1.04778  -1.03655  -0.95549  -0.94283
 Alpha  occ. eigenvalues --   -0.86170  -0.85035  -0.82384  -0.81146  -0.77416
 Alpha  occ. eigenvalues --   -0.76099  -0.71964  -0.71044  -0.70485  -0.70465
 Alpha  occ. eigenvalues --   -0.69396  -0.69330  -0.65008  -0.64782  -0.63842
 Alpha  occ. eigenvalues --   -0.63705  -0.62127  -0.61010  -0.55275  -0.54199
 Alpha  occ. eigenvalues --   -0.53100  -0.52874  -0.51938  -0.51782  -0.48712
 Alpha  occ. eigenvalues --   -0.48656  -0.47253  -0.47181  -0.44653  -0.43052
 Alpha  occ. eigenvalues --   -0.37345  -0.36388  -0.36148  -0.35262
 Alpha virt. eigenvalues --    0.05118   0.06519   0.11268   0.12387   0.16606
 Alpha virt. eigenvalues --    0.17891   0.21372   0.22309   0.27260   0.28050
 Alpha virt. eigenvalues --    0.28362   0.29274   0.30916   0.31780   0.32490

 Mulliken charges:
               1
     1  C   -0.171152
     2  C   -0.218541
     3  C   -0.170863
     4  C    0.159065
     5  C   -0.170502
     6  C   -0.218566
     7  H    0.225166
     8  H    0.223545
     9  H    0.276728
    10  H    0.273051
    11  H    0.222108
    12  N    0.489686
    13  O   -0.463023
    14  O   -0.455390
    15  C   -0.172973
    16  C   -0.220013
    17  C   -0.171130
    18  C    0.168786
    19  C   -0.161080
    20  C   -0.222203
    21  H    0.219304
    22  H    0.218482
    23  H    0.274366
    24  H    0.274544
    25  H    0.216025
    26  N    0.495457
    27  O   -0.456622
    28  O   -0.464253
 Sum of Mulliken charges =  -0.00000

 Dipole moment (field-independent basis, Debye):
    X=              4.4146    Y=              7.2105    Z=              1.1136  Tot=              8.5276
 Quadrupole moment (field-independent basis, Debye-Ang):
   XX=            -79.5800   YY=           -106.7979   ZZ=            -98.5389
   XY=             -9.0049   XZ=             -3.9422   YZ=             -4.3381

 Normal termination of Gaussian 16 at Thu May  6 21:11:31 2021.
