 Gaussian 16, Revision A.03,
 Gaussian 16:  EM64L-G16RevA.03 25-Dec-2016

 -------------
 #p 6-31g* mp2
 -------------

 ------------------------------------------------------
 Input file generated by CHIRIPA (05-May-2021 14:55:21)
 ------------------------------------------------------
 Symbolic Z-matrix:
 Charge =  0 Multiplicity = 1

                         Standard orientation:
 ---------------------------------------------------------------------
 Center     Atomic      Atomic             Coordinates (Angstroms)
 Number     Number       Type             X           Y           Z
 ---------------------------------------------------------------------
      1          6           0        1.893713    1.757133    1.850582
      2          6           0        2.403780    2.038911    0.578987
      3          6           0        2.447730    1.046143   -0.404389
      4          6           0        1.971080   -0.223162   -0.080412
      5          6           0        1.457018   -0.534882    1.177308
      6          6           0        1.422790    0.473399    2.145165
      7          1           0        1.863347    2.534364    2.608463
      8          1           0        2.770195    3.034978    0.347391
      9          1           0        2.837429    1.236952   -1.396933
     10          1           0        1.099026   -1.537276    1.378473
     11          1           0        1.026122    0.251701    3.131851
     12          7           0        2.012461   -1.282372   -1.113253
     13          8           0        1.586396   -2.392640   -0.802754
     14          8           0        2.470178   -0.982257   -2.213736
     15          6           0       -2.155052   -0.604083   -0.012592
     16          6           0       -3.043096   -1.682469    0.609056
     17          6           0       -2.310316   -3.009649    0.807604
     18          1           0       -1.775249   -0.963010   -0.978960
     19          1           0       -1.277227   -0.446855    0.629357
     20          1           0       -3.919681   -1.836633   -0.033166
     21          1           0       -3.420984   -1.320857    1.573967
     22          1           0       -1.445720   -2.877576    1.466111
     23          1           0       -1.947250   -3.396284   -0.150153
     24          1           0       -2.963686   -3.766250    1.253161
     25          6           0       -2.873453    0.728476   -0.217328
     26          6           0       -1.985408    1.806862   -0.838976
     27          6           0       -2.718188    3.134042   -1.037524
     28          1           0       -3.751277    0.571247   -0.859277
     29          1           0       -3.253256    1.087402    0.749040
     30          1           0       -1.607521    1.445250   -1.803887
     31          1           0       -1.108824    1.961026   -0.196754
     32          1           0       -3.081254    3.520677   -0.079767
     33          1           0       -3.582785    3.001969   -1.696031
     34          1           0       -2.064818    3.890644   -1.483082
 ---------------------------------------------------------------------

 SCF Done:  E(RHF) =  -669.535067546     A.U. after   15 cycles
 E2 =    -0.2094532639D+01 EUMP2 =    -0.67162960018539D+03

 The electronic state is 1-A.
 Alpha  occ. eigenvalues --  -20.60814 -20.60799 -15.85857 -11.31231 -11.27839
 Alpha  occ. eigenvalues --  -11.27821 -11.27606 -11.26859 -11.26850 -11.21568
 Alpha  occ. eigenvalues --  -11.21467 -11.21332 -11.21161 -11.21158 -11.20846
 Alpha  occ. eigenvalues --   -1.59878  -1.39431  -1.19444  -1.08825  -1.08345
 Alpha  occ. eigenvalues --   -1.04860  -1.03454  -0.95900  -0.95657  -0.86914
 Alpha  occ. eigenvalues --   -0.86245  -0.82490  -0.79515  -0.78186  -0.77512
 Alpha  occ. eigenvalues --   -0.72079  -0.71194  -0.70556  -0.65105  -0.65017
 Alpha  occ. eigenvalues --   -0.64825  -0.62206  -0.60852  -0.59273  -0.57516
 Alpha  occ. eigenvalues --   -0.55355  -0.55208  -0.53264  -0.52942  -0.52581
 Alpha  occ. eigenvalues --   -0.52306  -0.49849  -0.48841  -0.48833  -0.47832
 Alpha  occ. eigenvalues --   -0.46559  -0.45694  -0.45594  -0.44789  -0.43699
 Alpha  occ. eigenvalues --   -0.37403  -0.36361
 Alpha virt. eigenvalues --    0.04978   0.11167   0.16430   0.20613   0.22984
 Alpha virt. eigenvalues --    0.23809   0.25981   0.27042   0.27580   0.27664
 Alpha virt. eigenvalues --    0.29070   0.30545   0.31429   0.31795   0.32032

 Mulliken charges:
               1
     1  C   -0.170788
     2  C   -0.218626
     3  C   -0.169772
     4  C    0.162717
     5  C   -0.175502
     6  C   -0.219384
     7  H    0.226226
     8  H    0.224049
     9  H    0.276027
    10  H    0.280269
    11  H    0.223925
    12  N    0.487944
    13  O   -0.460099
    14  O   -0.460640
    15  C   -0.305781
    16  C   -0.300082
    17  C   -0.474558
    18  H    0.155971
    19  H    0.149943
    20  H    0.152939
    21  H    0.147272
    22  H    0.145986
    23  H    0.168019
    24  H    0.158899
    25  C   -0.296779
    26  C   -0.303583
    27  C   -0.475172
    28  H    0.150393
    29  H    0.145914
    30  H    0.154407
    31  H    0.152504
    32  H    0.152769
    33  H    0.156628
    34  H    0.157965
 Sum of Mulliken charges =  -0.00000

 Dipole moment (field-independent basis, Debye):
    X=             -0.0283    Y=              3.6444    Z=              3.5385  Tot=              5.0797
 Quadrupole moment (field-independent basis, Debye-Ang):
   XX=            -95.4503   YY=            -95.6315   ZZ=            -92.8673
   XY=              9.7640   XZ=              6.2270   YZ=             -2.7320

 Normal termination of Gaussian 16 at Thu May  6 04:35:27 2021.
