 Gaussian 16, Revision A.03,
 Gaussian 16:  EM64L-G16RevA.03 25-Dec-2016

 -------------
 #p 6-31g* mp2
 -------------

 ------------------------------------------------------
 Input file generated by CHIRIPA (05-May-2021 14:57:23)
 ------------------------------------------------------
 Symbolic Z-matrix:
 Charge =  0 Multiplicity = 1

                         Standard orientation:
 ---------------------------------------------------------------------
 Center     Atomic      Atomic             Coordinates (Angstroms)
 Number     Number       Type             X           Y           Z
 ---------------------------------------------------------------------
      1          6           0       -1.748284   -1.665313    0.483150
      2          6           0       -1.802204   -0.508109    1.267047
      3          6           0       -2.843170    0.411042    1.105492
      4          6           0       -3.817832    0.140186    0.146347
      5          6           0       -3.791752   -1.003730   -0.649936
      6          6           0       -2.741479   -1.909000   -0.471157
      7          1           0       -0.936022   -2.373940    0.615339
      8          1           0       -1.032253   -0.316263    2.008946
      9          1           0       -2.909303    1.314881    1.698889
     10          1           0       -4.573782   -1.167622   -1.381364
     11          1           0       -2.702160   -2.806864   -1.081354
     12          7           0       -4.924782    1.105902   -0.033801
     13          8           0       -5.771216    0.844187   -0.885676
     14          8           0       -4.925016    2.106261    0.680286
     15          6           0        5.683240    1.441746    0.208637
     16          6           0        4.667286    1.892326   -0.640677
     17          6           0        3.528168    1.112367   -0.861178
     18          6           0        3.437415   -0.118573   -0.213227
     19          6           0        4.432646   -0.595010    0.638721
     20          6           0        5.562889    0.201702    0.844505
     21          1           0        6.564687    2.054144    0.374212
     22          1           0        4.758055    2.854940   -1.135834
     23          1           0        2.726659    1.436915   -1.513612
     24          1           0        4.313747   -1.559023    1.118263
     25          1           0        6.350321   -0.150770    1.504626
     26          7           0        2.236179   -0.953148   -0.438871
     27          8           0        2.180215   -2.033866    0.143842
     28          8           0        1.373360   -0.510767   -1.194171
 ---------------------------------------------------------------------

 SCF Done:  E(RHF) =  -868.340326364     A.U. after   15 cycles
 E2 =    -0.2598903915D+01 EUMP2 =    -0.87093923027893D+03

 The electronic state is 1-A.
 Alpha  occ. eigenvalues --  -20.61843 -20.61793 -20.59907 -20.59899 -15.86815
 Alpha  occ. eigenvalues --  -15.84954 -11.31903 -11.30020 -11.28448 -11.28411
 Alpha  occ. eigenvalues --  -11.28115 -11.27385 -11.27358 -11.26638 -11.26603
 Alpha  occ. eigenvalues --  -11.26073 -11.25494 -11.25434  -1.60880  -1.58990
 Alpha  occ. eigenvalues --   -1.40434  -1.38552  -1.20047  -1.18165  -1.09496
 Alpha  occ. eigenvalues --   -1.07561  -1.05401  -1.03559  -0.96376  -0.94453
 Alpha  occ. eigenvalues --   -0.86812  -0.84947  -0.83212  -0.81329  -0.78295
 Alpha  occ. eigenvalues --   -0.76459  -0.73040  -0.72188  -0.71180  -0.71143
 Alpha  occ. eigenvalues --   -0.70312  -0.69157  -0.65697  -0.65395  -0.63809
 Alpha  occ. eigenvalues --   -0.63565  -0.62747  -0.60948  -0.55911  -0.53904
 Alpha  occ. eigenvalues --   -0.53745  -0.53483  -0.51869  -0.51655  -0.49821
 Alpha  occ. eigenvalues --   -0.49763  -0.47950  -0.47907  -0.45893  -0.44027
 Alpha  occ. eigenvalues --   -0.38012  -0.36993  -0.35988  -0.35181
 Alpha virt. eigenvalues --    0.04193   0.06123   0.10666   0.12501   0.15756
 Alpha virt. eigenvalues --    0.17721   0.20860   0.22733   0.26793   0.27731
 Alpha virt. eigenvalues --    0.28382   0.29762   0.30495   0.31917   0.32490

 Mulliken charges:
               1
     1  C   -0.160200
     2  C   -0.220148
     3  C   -0.172283
     4  C    0.156241
     5  C   -0.171572
     6  C   -0.219372
     7  H    0.242563
     8  H    0.217801
     9  H    0.269924
    10  H    0.271547
    11  H    0.222142
    12  N    0.488410
    13  O   -0.463634
    14  O   -0.464983
    15  C   -0.169716
    16  C   -0.218598
    17  C   -0.170632
    18  C    0.157016
    19  C   -0.171324
    20  C   -0.218584
    21  H    0.228272
    22  H    0.226513
    23  H    0.277880
    24  H    0.274884
    25  H    0.225291
    26  N    0.487622
    27  O   -0.469543
    28  O   -0.455514
 Sum of Mulliken charges =  -0.00000

 Dipole moment (field-independent basis, Debye):
    X=              8.6952    Y=             -0.5340    Z=              1.3199  Tot=              8.8110
 Quadrupole moment (field-independent basis, Debye-Ang):
   XX=           -105.9082   YY=           -103.0306   ZZ=           -101.5627
   XY=             24.1168   XZ=              3.0489   YZ=             -1.3511

 Normal termination of Gaussian 16 at Thu May  6 05:00:37 2021.
