 Gaussian 16, Revision A.03,
 Gaussian 16:  EM64L-G16RevA.03 25-Dec-2016

 -------------
 #p 6-31g* mp2
 -------------

 ------------------------------------------------------
 Input file generated by CHIRIPA (05-May-2021 14:53:16)
 ------------------------------------------------------
 Symbolic Z-matrix:
 Charge =  0 Multiplicity = 1

                         Standard orientation:
 ---------------------------------------------------------------------
 Center     Atomic      Atomic             Coordinates (Angstroms)
 Number     Number       Type             X           Y           Z
 ---------------------------------------------------------------------
      1          6           0       -2.940388   -0.752487    0.176893
      2          6           0       -3.654734    0.587601   -0.001600
      3          6           0       -4.814487    0.774255    0.977137
      4          1           0       -3.665726   -1.567459    0.047857
      5          1           0       -2.567043   -0.826622    1.207675
      6          1           0       -4.025416    0.659775   -1.032135
      7          1           0       -2.927572    1.399473    0.127686
      8          1           0       -4.457212    0.728655    2.011002
      9          1           0       -5.561294   -0.015246    0.844591
     10          1           0       -5.311016    1.738752    0.832007
     11          6           0       -1.778601   -0.953796   -0.794423
     12          6           0       -1.064256   -2.293883   -0.615930
     13          6           0        0.095498   -2.480537   -1.594667
     14          1           0       -2.151946   -0.879660   -1.825205
     15          1           0       -1.053263   -0.138823   -0.665387
     16          1           0       -1.791418   -3.105756   -0.745216
     17          1           0       -0.693574   -2.366057    0.414605
     18          1           0        0.842304   -1.691036   -1.462121
     19          1           0       -0.261777   -2.434937   -2.628532
     20          1           0        0.592027   -3.445035   -1.449537
     21          6           0        2.969609   -1.304871    1.341724
     22          6           0        1.860490   -0.704776    1.946919
     23          6           0        1.228555    0.388068    1.346169
     24          6           0        1.734473    0.857103    0.134830
     25          6           0        2.837649    0.280703   -0.492908
     26          6           0        3.453796   -0.811088    0.125886
     27          1           0        3.454380   -2.153409    1.815409
     28          1           0        1.482291   -1.086134    2.891151
     29          1           0        0.368264    0.871603    1.792836
     30          1           0        3.191744    0.683210   -1.434196
     31          1           0        4.314980   -1.275142   -0.346407
     32          7           0        1.073829    2.013490   -0.510708
     33          8           0        1.538888    2.407841   -1.577874
     34          8           0        0.103466    2.503618    0.062710
 ---------------------------------------------------------------------

 SCF Done:  E(RHF) =  -669.535119199     A.U. after   15 cycles
 E2 =    -0.2096422763D+01 EUMP2 =    -0.67163154196174D+03

 The electronic state is 1-A.
 Alpha  occ. eigenvalues --  -20.61031 -20.61025 -15.86040 -11.31365 -11.27949
 Alpha  occ. eigenvalues --  -11.27923 -11.27676 -11.26961 -11.26933 -11.21454
 Alpha  occ. eigenvalues --  -11.21113 -11.21033 -11.20946 -11.20915 -11.20632
 Alpha  occ. eigenvalues --   -1.60080  -1.39636  -1.19567  -1.08954  -1.08110
 Alpha  occ. eigenvalues --   -1.04956  -1.03199  -0.95793  -0.95682  -0.86707
 Alpha  occ. eigenvalues --   -0.86346  -0.82624  -0.79268  -0.77927  -0.77669
 Alpha  occ. eigenvalues --   -0.72270  -0.71414  -0.70651  -0.65213  -0.64961
 Alpha  occ. eigenvalues --   -0.64745  -0.62289  -0.60650  -0.59059  -0.57288
 Alpha  occ. eigenvalues --   -0.55449  -0.55078  -0.53206  -0.53031  -0.52369
 Alpha  occ. eigenvalues --   -0.52078  -0.49648  -0.49040  -0.49026  -0.47557
 Alpha  occ. eigenvalues --   -0.46298  -0.45651  -0.45444  -0.44717  -0.43466
 Alpha  occ. eigenvalues --   -0.37485  -0.36488
 Alpha virt. eigenvalues --    0.04800   0.11015   0.16259   0.20842   0.22996
 Alpha virt. eigenvalues --    0.24388   0.26261   0.27131   0.27887   0.28039
 Alpha virt. eigenvalues --    0.28887   0.30861   0.31425   0.31934   0.32162

 Mulliken charges:
               1
     1  C   -0.295980
     2  C   -0.306956
     3  C   -0.474986
     4  H    0.147865
     5  H    0.140438
     6  H    0.152113
     7  H    0.170464
     8  H    0.151207
     9  H    0.152198
    10  H    0.161859
    11  C   -0.302270
    12  C   -0.297923
    13  C   -0.479867
    14  H    0.151912
    15  H    0.151700
    16  H    0.150281
    17  H    0.145912
    18  H    0.159463
    19  H    0.155711
    20  H    0.154250
    21  C   -0.169868
    22  C   -0.217151
    23  C   -0.171636
    24  C    0.158736
    25  C   -0.175660
    26  C   -0.215150
    27  H    0.226837
    28  H    0.224673
    29  H    0.276276
    30  H    0.276668
    31  H    0.224871
    32  N    0.490984
    33  O   -0.457101
    34  O   -0.459870
 Sum of Mulliken charges =  -0.00000

 Dipole moment (field-independent basis, Debye):
    X=              2.5314    Y=             -3.8498    Z=              2.2538  Tot=              5.1292
 Quadrupole moment (field-independent basis, Debye-Ang):
   XX=            -85.2056   YY=           -102.6488   ZZ=            -91.5959
   XY=             -5.2286   XZ=              2.7445   YZ=              1.4558

 Normal termination of Gaussian 16 at Thu May  6 22:02:53 2021.
