 Gaussian 16, Revision A.03,
 Gaussian 16:  EM64L-G16RevA.03 25-Dec-2016

 -------------
 #p 6-31g* mp2
 -------------

 ------------------------------------------------------
 Input file generated by CHIRIPA (05-May-2021 14:57:22)
 ------------------------------------------------------
 Symbolic Z-matrix:
 Charge =  0 Multiplicity = 1

                         Standard orientation:
 ---------------------------------------------------------------------
 Center     Atomic      Atomic             Coordinates (Angstroms)
 Number     Number       Type             X           Y           Z
 ---------------------------------------------------------------------
      1          6           0        1.746479    0.572303    1.789375
      2          6           0        2.911527    1.345224    1.747222
      3          6           0        3.950534    1.016249    0.871556
      4          6           0        3.790229   -0.097305    0.048398
      5          6           0        2.641657   -0.887066    0.067099
      6          6           0        1.615493   -0.539415    0.950657
      7          1           0        0.944343    0.835113    2.472678
      8          1           0        3.016009    2.209147    2.397426
      9          1           0        4.863234    1.597253    0.818367
     10          1           0        2.566546   -1.742496   -0.593216
     11          1           0        0.711829   -1.141496    0.981239
     12          7           0        4.883380   -0.455462   -0.882808
     13          8           0        4.717633   -1.441376   -1.597747
     14          8           0        5.885241    0.256511   -0.880115
     15          6           0       -3.117824    2.432359   -0.827961
     16          6           0       -4.441550    2.006104   -0.677708
     17          6           0       -4.726058    0.681936   -0.331033
     18          6           0       -3.657653   -0.193174   -0.141344
     19          6           0       -2.328210    0.201308   -0.283671
     20          6           0       -2.067231    1.530191   -0.630811
     21          1           0       -2.905951    3.462837   -1.097447
     22          1           0       -5.259459    2.704544   -0.830195
     23          1           0       -5.741505    0.325290   -0.208208
     24          1           0       -1.534000   -0.518070   -0.125101
     25          1           0       -1.038229    1.858434   -0.746817
     26          7           0       -3.946394   -1.597508    0.225911
     27          8           0       -2.987295   -2.348947    0.387487
     28          8           0       -5.126339   -1.920194    0.345236
 ---------------------------------------------------------------------

 SCF Done:  E(RHF) =  -868.338046038     A.U. after   16 cycles
 E2 =    -0.2599745112D+01 EUMP2 =    -0.87093779115053D+03

 The electronic state is 1-A.
 Alpha  occ. eigenvalues --  -20.61428 -20.61398 -20.61069 -20.61061 -15.86466
 Alpha  occ. eigenvalues --  -15.86125 -11.31824 -11.31593 -11.28438 -11.28335
 Alpha  occ. eigenvalues --  -11.28189 -11.28172 -11.28069 -11.27960 -11.27375
 Alpha  occ. eigenvalues --  -11.27346 -11.27217 -11.27206  -1.60485  -1.60142
 Alpha  occ. eigenvalues --   -1.40043  -1.39692  -1.19979  -1.19790  -1.09365
 Alpha  occ. eigenvalues --   -1.09166  -1.05384  -1.05198  -0.96211  -0.95975
 Alpha  occ. eigenvalues --   -0.86783  -0.86587  -0.83041  -0.82798  -0.78117
 Alpha  occ. eigenvalues --   -0.77819  -0.72684  -0.72338  -0.71806  -0.71470
 Alpha  occ. eigenvalues --   -0.71093  -0.70873  -0.65629  -0.65439  -0.65431
 Alpha  occ. eigenvalues --   -0.65140  -0.62812  -0.62441  -0.55865  -0.55684
 Alpha  occ. eigenvalues --   -0.53711  -0.53535  -0.53533  -0.53194  -0.49452
 Alpha  occ. eigenvalues --   -0.49427  -0.49107  -0.49087  -0.45449  -0.45074
 Alpha  occ. eigenvalues --   -0.37941  -0.37801  -0.36985  -0.36815
 Alpha virt. eigenvalues --    0.04418   0.04706   0.10633   0.10728   0.15921
 Alpha virt. eigenvalues --    0.16132   0.19469   0.21700   0.24931   0.27136
 Alpha virt. eigenvalues --    0.27944   0.28799   0.29636   0.31037   0.31803

 Mulliken charges:
               1
     1  C   -0.174571
     2  C   -0.219697
     3  C   -0.170570
     4  C    0.158360
     5  C   -0.171065
     6  C   -0.231494
     7  H    0.228221
     8  H    0.224286
     9  H    0.276804
    10  H    0.279572
    11  H    0.232682
    12  N    0.487937
    13  O   -0.458275
    14  O   -0.459851
    15  C   -0.170713
    16  C   -0.218128
    17  C   -0.170205
    18  C    0.159882
    19  C   -0.176860
    20  C   -0.221887
    21  H    0.227701
    22  H    0.225693
    23  H    0.277302
    24  H    0.271449
    25  H    0.227066
    26  N    0.488038
    27  O   -0.464899
    28  O   -0.456778
 Sum of Mulliken charges =  -0.00000

 Dipole moment (field-independent basis, Debye):
    X=             -2.8617    Y=              6.2658    Z=              1.9564  Tot=              7.1608
 Quadrupole moment (field-independent basis, Debye-Ang):
   XX=           -134.5187   YY=           -104.4174   ZZ=           -104.9921
   XY=            -12.2864   XZ=             18.1885   YZ=              0.6919

 Normal termination of Gaussian 16 at Fri May  7 03:19:35 2021.
