 Gaussian 16, Revision A.03,
 Gaussian 16:  EM64L-G16RevA.03 25-Dec-2016

 -------------
 #p 6-31g* mp2
 -------------

 ------------------------------------------------------
 Input file generated by CHIRIPA (05-May-2021 14:51:10)
 ------------------------------------------------------
 Symbolic Z-matrix:
 Charge =  0 Multiplicity = 1

                         Standard orientation:
 ---------------------------------------------------------------------
 Center     Atomic      Atomic             Coordinates (Angstroms)
 Number     Number       Type             X           Y           Z
 ---------------------------------------------------------------------
      1          6           0       -2.870038   -0.001001   -0.622477
      2          6           0       -3.703412   -1.170080   -0.096429
      3          6           0       -3.671168   -2.384179   -1.025256
      4          1           0       -3.239222    0.286143   -1.616558
      5          1           0       -1.831214   -0.332257   -0.758527
      6          1           0       -4.740063   -0.836335    0.039900
      7          1           0       -3.332324   -1.454350    0.896597
      8          1           0       -2.645250   -2.744481   -1.152834
      9          1           0       -4.060987   -2.122954   -2.014399
     10          1           0       -4.273432   -3.208142   -0.630006
     11          6           0       -2.892360    1.220154    0.295135
     12          6           0       -2.058987    2.389233   -0.230913
     13          6           0       -2.091231    3.603332    0.697914
     14          1           0       -3.931184    1.551409    0.431185
     15          1           0       -2.523176    0.933009    1.289216
     16          1           0       -2.430074    2.673503   -1.223939
     17          1           0       -1.022336    2.055488   -0.367242
     18          1           0       -1.701412    3.342107    1.687057
     19          1           0       -3.117149    3.963633    0.825492
     20          1           0       -1.488966    4.427295    0.302664
     21          6           0        3.484183   -0.166576    0.317271
     22          6           0        4.222409    0.308215   -0.934760
     23          6           0        5.426304    1.193488   -0.611152
     24          1           0        3.153497    0.708043    0.894015
     25          1           0        4.184050   -0.718397    0.959981
     26          1           0        3.521016    0.857788   -1.575567
     27          1           0        4.551209   -0.567635   -1.508688
     28          1           0        6.147718    0.651225    0.008616
     29          1           0        5.111673    2.084747   -0.058645
     30          1           0        5.939342    1.521607   -1.520542
     31          6           0        2.278216   -1.052576    0.010071
     32          6           0        1.539990   -1.527368    1.262102
     33          6           0        0.336095   -2.412641    0.938494
     34          1           0        1.578348   -0.500755   -0.632639
     35          1           0        2.608901   -1.927195   -0.566673
     36          1           0        1.211190   -0.651518    1.836030
     37          1           0        2.241383   -2.076940    1.902909
     38          1           0        0.650725   -3.303900    0.385986
     39          1           0       -0.385321   -1.870378    0.318727
     40          1           0       -0.176944   -2.740760    1.847884
 ---------------------------------------------------------------------

 SCF Done:  E(RHF) =  -470.733232695     A.U. after   11 cycles
 E2 =    -0.1583458300D+01 EUMP2 =    -0.47231669099498D+03

 The electronic state is 1-A.
 Alpha  occ. eigenvalues --  -11.21671 -11.21650 -11.21629 -11.21580 -11.21461
 Alpha  occ. eigenvalues --  -11.21430 -11.21398 -11.21371 -11.21128 -11.21111
 Alpha  occ. eigenvalues --  -11.21091 -11.21024  -1.08492  -1.08445  -1.03592
 Alpha  occ. eigenvalues --   -1.03528  -0.96031  -0.95988  -0.87054  -0.86999
 Alpha  occ. eigenvalues --   -0.79653  -0.79594  -0.78323  -0.78241  -0.65277
 Alpha  occ. eigenvalues --   -0.64961  -0.61106  -0.60820  -0.59406  -0.59351
 Alpha  occ. eigenvalues --   -0.57635  -0.57599  -0.55361  -0.55231  -0.52719
 Alpha  occ. eigenvalues --   -0.52679  -0.52459  -0.52412  -0.50080  -0.49837
 Alpha  occ. eigenvalues --   -0.48032  -0.47872  -0.46751  -0.46602  -0.45980
 Alpha  occ. eigenvalues --   -0.45799  -0.45775  -0.45458  -0.43833  -0.43798
 Alpha virt. eigenvalues --    0.19716   0.22838   0.23956   0.24623   0.25530
 Alpha virt. eigenvalues --    0.26695   0.27059   0.27911   0.28277   0.29402
 Alpha virt. eigenvalues --    0.30877   0.31414   0.31730   0.31781   0.32219

 Mulliken charges:
               1
     1  C   -0.303346
     2  C   -0.300361
     3  C   -0.477571
     4  H    0.150209
     5  H    0.152330
     6  H    0.152057
     7  H    0.153423
     8  H    0.157584
     9  H    0.154752
    10  H    0.160294
    11  C   -0.298316
    12  C   -0.299762
    13  C   -0.475723
    14  H    0.149921
    15  H    0.149885
    16  H    0.152229
    17  H    0.151019
    18  H    0.155112
    19  H    0.155478
    20  H    0.160268
    21  C   -0.298343
    22  C   -0.299738
    23  C   -0.475757
    24  H    0.149688
    25  H    0.149775
    26  H    0.152094
    27  H    0.152050
    28  H    0.155216
    29  H    0.155270
    30  H    0.160406
    31  C   -0.299153
    32  C   -0.299427
    33  C   -0.484590
    34  H    0.149217
    35  H    0.150086
    36  H    0.151522
    37  H    0.152428
    38  H    0.155674
    39  H    0.163532
    40  H    0.160567
 Sum of Mulliken charges =  -0.00000

 Dipole moment (field-independent basis, Debye):
    X=              0.0046    Y=             -0.0089    Z=              0.0033  Tot=              0.0105
 Quadrupole moment (field-independent basis, Debye-Ang):
   XX=            -84.4826   YY=            -85.2659   ZZ=            -84.8760
   XY=             -1.4824   XZ=              0.3031   YZ=             -0.8023

 Normal termination of Gaussian 16 at Wed May  5 15:10:43 2021.
