 Gaussian 16, Revision A.03,
 Gaussian 16:  EM64L-G16RevA.03 25-Dec-2016

 -------------
 #p 6-31g* mp2
 -------------

 ------------------------------------------------------
 Input file generated by CHIRIPA (05-May-2021 14:55:20)
 ------------------------------------------------------
 Symbolic Z-matrix:
 Charge =  0 Multiplicity = 1

                         Standard orientation:
 ---------------------------------------------------------------------
 Center     Atomic      Atomic             Coordinates (Angstroms)
 Number     Number       Type             X           Y           Z
 ---------------------------------------------------------------------
      1          6           0        2.501421    2.274517    0.432587
      2          6           0        3.608229    1.696393    1.062880
      3          6           0        3.939154    0.358186    0.829992
      4          6           0        3.137856   -0.375951   -0.043081
      5          6           0        2.028806    0.171563   -0.686142
      6          6           0        1.716625    1.511602   -0.438377
      7          1           0        2.251631    3.314780    0.619278
      8          1           0        4.219504    2.286481    1.739774
      9          1           0        4.790440   -0.114513    1.304635
     10          1           0        1.438350   -0.441980   -1.355727
     11          1           0        0.856480    1.957946   -0.929266
     12          7           0        3.478270   -1.793620   -0.297504
     13          8           0        2.756374   -2.419023   -1.071051
     14          8           0        4.460535   -2.252543    0.281444
     15          6           0       -4.590853   -0.164725    0.214835
     16          6           0       -4.486965   -1.690229    0.220172
     17          6           0       -5.787691   -2.369834    0.649176
     18          1           0       -4.872895    0.180746    1.218851
     19          1           0       -5.403661    0.138120   -0.459718
     20          1           0       -3.673688   -1.990048    0.893452
     21          1           0       -4.204950   -2.032096   -0.783925
     22          1           0       -6.604897   -2.099526   -0.027365
     23          1           0       -6.070616   -2.057240    1.659543
     24          1           0       -5.691082   -3.460024    0.645907
     25          6           0       -3.298431    0.529016   -0.211894
     26          6           0       -3.402319    2.054521   -0.217231
     27          6           0       -2.101594    2.734126   -0.646235
     28          1           0       -2.485623    0.226172    0.462659
     29          1           0       -3.016390    0.183545   -1.215909
     30          1           0       -3.684334    2.396387    0.786866
     31          1           0       -4.215596    2.354340   -0.890511
     32          1           0       -1.818668    2.421530   -1.656601
     33          1           0       -1.284388    2.463818    0.030306
     34          1           0       -2.198203    3.824316   -0.642967
 ---------------------------------------------------------------------

 SCF Done:  E(RHF) =  -669.535514459     A.U. after   15 cycles
 E2 =    -0.2091226527D+01 EUMP2 =    -0.67162674098516D+03

 The electronic state is 1-A.
 Alpha  occ. eigenvalues --  -20.60724 -20.60719 -15.85776 -11.31132 -11.27703
 Alpha  occ. eigenvalues --  -11.27679 -11.27430 -11.26717 -11.26625 -11.22295
 Alpha  occ. eigenvalues --  -11.22105 -11.21898 -11.21789 -11.21700 -11.21193
 Alpha  occ. eigenvalues --   -1.59800  -1.39354  -1.19299  -1.08889  -1.08695
 Alpha  occ. eigenvalues --   -1.04697  -1.04020  -0.96505  -0.95534  -0.87542
 Alpha  occ. eigenvalues --   -0.86091  -0.82364  -0.80111  -0.78656  -0.77409
 Alpha  occ. eigenvalues --   -0.71995  -0.71123  -0.70407  -0.65518  -0.64947
 Alpha  occ. eigenvalues --   -0.64714  -0.62075  -0.61403  -0.59882  -0.58082
 Alpha  occ. eigenvalues --   -0.55805  -0.55199  -0.53258  -0.53127  -0.53011
 Alpha  occ. eigenvalues --   -0.52539  -0.50448  -0.48766  -0.48751  -0.48375
 Alpha  occ. eigenvalues --   -0.47115  -0.46206  -0.46095  -0.44762  -0.44253
 Alpha  occ. eigenvalues --   -0.37281  -0.36292
 Alpha virt. eigenvalues --    0.05114   0.11254   0.16587   0.20857   0.22540
 Alpha virt. eigenvalues --    0.23934   0.25819   0.26199   0.27225   0.28216
 Alpha virt. eigenvalues --    0.28989   0.30304   0.31152   0.31216   0.32063

 Mulliken charges:
               1
     1  C   -0.173329
     2  C   -0.218383
     3  C   -0.171294
     4  C    0.158658
     5  C   -0.173106
     6  C   -0.224054
     7  H    0.225822
     8  H    0.223075
     9  H    0.275328
    10  H    0.275760
    11  H    0.233992
    12  N    0.488070
    13  O   -0.460490
    14  O   -0.460704
    15  C   -0.298689
    16  C   -0.300451
    17  C   -0.476132
    18  H    0.150270
    19  H    0.150206
    20  H    0.153905
    21  H    0.153321
    22  H    0.155120
    23  H    0.155155
    24  H    0.162470
    25  C   -0.299875
    26  C   -0.298812
    27  C   -0.483927
    28  H    0.150698
    29  H    0.149240
    30  H    0.154349
    31  H    0.154950
    32  H    0.152964
    33  H    0.153117
    34  H    0.162777
 Sum of Mulliken charges =  -0.00000

 Dipole moment (field-independent basis, Debye):
    X=             -1.3767    Y=              4.9659    Z=              0.9209  Tot=              5.2349
 Quadrupole moment (field-independent basis, Debye-Ang):
   XX=            -99.6950   YY=            -99.5011   ZZ=            -92.6111
   XY=             16.1265   XZ=              6.2210   YZ=             -0.0089

 Normal termination of Gaussian 16 at Thu May  6 17:26:00 2021.
