 Gaussian 16, Revision A.03,
 Gaussian 16:  EM64L-G16RevA.03 25-Dec-2016

 -------------
 #p 6-31g* mp2
 -------------

 ------------------------------------------------------
 Input file generated by CHIRIPA (05-May-2021 14:51:13)
 ------------------------------------------------------
 Symbolic Z-matrix:
 Charge =  0 Multiplicity = 1

                         Standard orientation:
 ---------------------------------------------------------------------
 Center     Atomic      Atomic             Coordinates (Angstroms)
 Number     Number       Type             X           Y           Z
 ---------------------------------------------------------------------
      1          6           0        3.133412    0.833037   -0.122783
      2          6           0        3.413015   -0.665335   -0.001593
      3          6           0        4.886644   -1.011077   -0.217634
      4          1           0        3.451105    1.179720   -1.115671
      5          1           0        3.749061    1.374195    0.609010
      6          1           0        2.795997   -1.203620   -0.732453
      7          1           0        3.094443   -1.008530    0.991053
      8          1           0        5.514325   -0.500052    0.519570
      9          1           0        5.214184   -0.696250   -1.213728
     10          1           0        5.064060   -2.087222   -0.126543
     11          6           0        1.664545    1.194419    0.090664
     12          6           0        1.384942    2.692791   -0.030526
     13          6           0       -0.088687    3.038533    0.185515
     14          1           0        1.048896    0.653261   -0.641129
     15          1           0        1.346852    0.847736    1.083552
     16          1           0        1.703514    3.035986   -1.023171
     17          1           0        2.001960    3.231075    0.700334
     18          1           0       -0.416227    2.723706    1.181609
     19          1           0       -0.716368    2.527508   -0.551689
     20          1           0       -0.266103    4.114677    0.094425
     21          6           0       -3.042620   -0.780398   -0.322637
     22          6           0       -3.670530    0.443003    0.345947
     23          6           0       -4.957482    0.897835   -0.343019
     24          1           0       -2.833940   -0.548030   -1.375919
     25          1           0       -3.770402   -1.603640   -0.322427
     26          1           0       -2.941292    1.263265    0.345714
     27          1           0       -3.877563    0.207758    1.397809
     28          1           0       -5.704784    0.097850   -0.330156
     29          1           0       -4.763193    1.159353   -1.388229
     30          1           0       -5.389489    1.773626    0.151165
     31          6           0       -1.755337   -1.247058    0.354755
     32          6           0       -1.127428   -2.470459   -0.313828
     33          6           0        0.159525   -2.925290    0.375139
     34          1           0       -1.027555   -0.423815    0.354545
     35          1           0       -1.964018   -1.479427    1.408037
     36          1           0       -0.920394   -2.235215   -1.365690
     37          1           0       -1.856665   -3.290721   -0.313596
     38          1           0       -0.034764   -3.186808    1.420347
     39          1           0        0.906826   -2.125305    0.362275
     40          1           0        0.591532   -3.801082   -0.119045
 ---------------------------------------------------------------------

 SCF Done:  E(RHF) =  -470.731797745     A.U. after   11 cycles
 E2 =    -0.1585700271D+01 EUMP2 =    -0.47231749801582D+03

 The electronic state is 1-A.
 Alpha  occ. eigenvalues --  -11.21719 -11.21652 -11.21518 -11.21479 -11.21475
 Alpha  occ. eigenvalues --  -11.21449 -11.21282 -11.21189 -11.21184 -11.21110
 Alpha  occ. eigenvalues --  -11.20992 -11.20833  -1.08561  -1.08297  -1.03636
 Alpha  occ. eigenvalues --   -1.03403  -0.96079  -0.95856  -0.87124  -0.86853
 Alpha  occ. eigenvalues --   -0.79769  -0.79448  -0.78524  -0.77976  -0.65222
 Alpha  occ. eigenvalues --   -0.64903  -0.61043  -0.60819  -0.59475  -0.59233
 Alpha  occ. eigenvalues --   -0.57698  -0.57458  -0.55368  -0.55161  -0.52780
 Alpha  occ. eigenvalues --   -0.52606  -0.52550  -0.52198  -0.50058  -0.49797
 Alpha  occ. eigenvalues --   -0.48149  -0.47697  -0.46782  -0.46731  -0.46133
 Alpha  occ. eigenvalues --   -0.45837  -0.45641  -0.44840  -0.43875  -0.43656
 Alpha virt. eigenvalues --    0.20682   0.22520   0.23632   0.24276   0.25507
 Alpha virt. eigenvalues --    0.26329   0.26976   0.27681   0.28710   0.30402
 Alpha virt. eigenvalues --    0.30750   0.30979   0.31649   0.31783   0.31954

 Mulliken charges:
               1
     1  C   -0.297260
     2  C   -0.305140
     3  C   -0.474838
     4  H    0.149697
     5  H    0.149857
     6  H    0.155349
     7  H    0.154224
     8  H    0.155195
     9  H    0.155092
    10  H    0.161013
    11  C   -0.303613
    12  C   -0.299695
    13  C   -0.479540
    14  H    0.151662
    15  H    0.151930
    16  H    0.152205
    17  H    0.152573
    18  H    0.157161
    19  H    0.157029
    20  H    0.161182
    21  C   -0.297278
    22  C   -0.305443
    23  C   -0.475278
    24  H    0.148007
    25  H    0.149135
    26  H    0.158343
    27  H    0.151301
    28  H    0.154851
    29  H    0.154544
    30  H    0.160016
    31  C   -0.307483
    32  C   -0.298537
    33  C   -0.485992
    34  H    0.159765
    35  H    0.148545
    36  H    0.149734
    37  H    0.151294
    38  H    0.153522
    39  H    0.168479
    40  H    0.158392
 Sum of Mulliken charges =  -0.00000

 Dipole moment (field-independent basis, Debye):
    X=              0.1258    Y=              0.0928    Z=              0.0196  Tot=              0.1576
 Quadrupole moment (field-independent basis, Debye-Ang):
   XX=            -86.4918   YY=            -84.8879   ZZ=            -83.5679
   XY=              1.0790   XZ=             -0.4025   YZ=             -0.1213

 Normal termination of Gaussian 16 at Wed May  5 19:59:46 2021.
