 Gaussian 16, Revision A.03,
 Gaussian 16:  EM64L-G16RevA.03 25-Dec-2016

 -------------
 #p 6-31g* mp2
 -------------

 ------------------------------------------------------
 Input file generated by CHIRIPA (05-May-2021 14:55:19)
 ------------------------------------------------------
 Symbolic Z-matrix:
 Charge =  0 Multiplicity = 1

                         Standard orientation:
 ---------------------------------------------------------------------
 Center     Atomic      Atomic             Coordinates (Angstroms)
 Number     Number       Type             X           Y           Z
 ---------------------------------------------------------------------
      1          6           0       -4.431243   -2.121063   -0.127703
      2          6           0       -3.049431   -1.925313   -0.033914
      3          6           0       -2.516849   -0.633504    0.012272
      4          6           0       -3.399107    0.444649   -0.037684
      5          6           0       -4.780462    0.282137   -0.131168
      6          6           0       -5.290833   -1.018657   -0.175946
      7          1           0       -4.836339   -3.128061   -0.163034
      8          1           0       -2.379473   -2.779588    0.003727
      9          1           0       -1.451172   -0.453268    0.084845
     10          1           0       -5.423138    1.153407   -0.166849
     11          1           0       -6.364395   -1.167671   -0.248788
     12          7           0       -2.847043    1.816986    0.010466
     13          8           0       -3.645565    2.750219   -0.035099
     14          8           0       -1.626267    1.933405    0.092859
     15          6           0        3.800332   -0.219639    0.425760
     16          6           0        2.712009   -1.132354   -0.140357
     17          6           0        1.383521   -1.000952    0.605060
     18          1           0        3.949947   -0.453669    1.488676
     19          1           0        3.455100    0.822564    0.380759
     20          1           0        3.059749   -2.172396   -0.095577
     21          1           0        2.565103   -0.896253   -1.202097
     22          1           0        1.010637    0.026897    0.549504
     23          1           0        1.508094   -1.256496    1.662311
     24          1           0        0.619767   -1.662151    0.183924
     25          6           0        5.134308   -0.339649   -0.308974
     26          6           0        6.222632    0.573066    0.257142
     27          6           0        7.551120    0.441664   -0.488275
     28          1           0        5.479541   -1.381852   -0.263973
     29          1           0        4.984694   -0.105619   -1.371890
     30          1           0        6.369538    0.336965    1.318882
     31          1           0        5.874892    1.613108    0.212362
     32          1           0        7.426547    0.697208   -1.545526
     33          1           0        7.924003   -0.586185   -0.432719
     34          1           0        8.314874    1.102862   -0.067140
 ---------------------------------------------------------------------

 SCF Done:  E(RHF) =  -669.535615541     A.U. after   15 cycles
 E2 =    -0.2091640748D+01 EUMP2 =    -0.67162725628927D+03

 The electronic state is 1-A.
 Alpha  occ. eigenvalues --  -20.60760 -20.60754 -15.85804 -11.31096 -11.27693
 Alpha  occ. eigenvalues --  -11.27587 -11.27439 -11.26699 -11.26675 -11.21744
 Alpha  occ. eigenvalues --  -11.21491 -11.21404 -11.21352 -11.21290 -11.20971
 Alpha  occ. eigenvalues --   -1.59828  -1.39384  -1.19281  -1.08695  -1.08416
 Alpha  occ. eigenvalues --   -1.04680  -1.03575  -0.96055  -0.95531  -0.87090
 Alpha  occ. eigenvalues --   -0.86075  -0.82372  -0.79655  -0.78206  -0.77414
 Alpha  occ. eigenvalues --   -0.72029  -0.71146  -0.70405  -0.65044  -0.64940
 Alpha  occ. eigenvalues --   -0.64691  -0.62096  -0.60937  -0.59425  -0.57642
 Alpha  occ. eigenvalues --   -0.55353  -0.55153  -0.53022  -0.53009  -0.52537
 Alpha  occ. eigenvalues --   -0.52447  -0.49941  -0.48780  -0.48775  -0.47947
 Alpha  occ. eigenvalues --   -0.46628  -0.45756  -0.45651  -0.44803  -0.43834
 Alpha  occ. eigenvalues --   -0.37275  -0.36279
 Alpha virt. eigenvalues --    0.05108   0.11368   0.16603   0.20621   0.22989
 Alpha virt. eigenvalues --    0.24114   0.26092   0.26662   0.27283   0.27970
 Alpha virt. eigenvalues --    0.28928   0.30070   0.31494   0.31787   0.32664

 Mulliken charges:
               1
     1  C   -0.170270
     2  C   -0.224095
     3  C   -0.179136
     4  C    0.156503
     5  C   -0.169812
     6  C   -0.219505
     7  H    0.225252
     8  H    0.223328
     9  H    0.292687
    10  H    0.275199
    11  H    0.223085
    12  N    0.488358
    13  O   -0.460233
    14  O   -0.463192
    15  C   -0.300284
    16  C   -0.297982
    17  C   -0.489852
    18  H    0.149480
    19  H    0.156163
    20  H    0.150227
    21  H    0.154173
    22  H    0.176277
    23  H    0.157800
    24  H    0.145254
    25  C   -0.298584
    26  C   -0.300028
    27  C   -0.475777
    28  H    0.148178
    29  H    0.150448
    30  H    0.151743
    31  H    0.154195
    32  H    0.155489
    33  H    0.154321
    34  H    0.160588
 Sum of Mulliken charges =  -0.00000

 Dipole moment (field-independent basis, Debye):
    X=             -1.8123    Y=             -4.7147    Z=             -0.1482  Tot=              5.0532
 Quadrupole moment (field-independent basis, Debye-Ang):
   XX=            -78.1473   YY=            -98.5912   ZZ=            -95.4149
   XY=             13.7784   XZ=              1.6396   YZ=             -0.4753

 Normal termination of Gaussian 16 at Wed May  5 22:07:56 2021.
