 Gaussian 16, Revision A.03,
 Gaussian 16:  EM64L-G16RevA.03 25-Dec-2016

 -------------
 #p 6-31g* mp2
 -------------

 ------------------------------------------------------
 Input file generated by CHIRIPA (05-May-2021 14:53:13)
 ------------------------------------------------------
 Symbolic Z-matrix:
 Charge =  0 Multiplicity = 1

                         Standard orientation:
 ---------------------------------------------------------------------
 Center     Atomic      Atomic             Coordinates (Angstroms)
 Number     Number       Type             X           Y           Z
 ---------------------------------------------------------------------
      1          6           0       -3.497498    0.741698   -0.142732
      2          6           0       -3.219587    2.016382    0.654721
      3          6           0       -2.025785    2.803711    0.113663
      4          1           0       -2.601364    0.106298   -0.130283
      5          1           0       -3.677976    1.007005   -1.193653
      6          1           0       -3.041053    1.748877    1.704094
      7          1           0       -4.116551    2.648734    0.640533
      8          1           0       -2.198507    3.099051   -0.926309
      9          1           0       -1.116898    2.194082    0.143294
     10          1           0       -1.844943    3.711010    0.698439
     11          6           0       -4.688044   -0.056248    0.386051
     12          6           0       -4.965956   -1.330932   -0.411401
     13          6           0       -6.159758   -2.118261    0.129657
     14          1           0       -4.507567   -0.321556    1.436972
     15          1           0       -5.584179    0.579152    0.373602
     16          1           0       -4.068992   -1.963284   -0.397213
     17          1           0       -5.144490   -1.063427   -1.460774
     18          1           0       -7.068645   -1.508632    0.100025
     19          1           0       -5.987036   -2.413602    1.169629
     20          1           0       -6.340600   -3.025561   -0.455120
     21          6           0        0.726188   -0.282581   -0.603410
     22          6           0        1.462907    0.897975   -0.745028
     23          6           0        2.832718    0.917848   -0.466152
     24          6           0        3.436392   -0.266320   -0.045900
     25          6           0        2.729532   -1.458352    0.104765
     26          6           0        1.360734   -1.454909   -0.179712
     27          1           0       -0.337520   -0.288963   -0.822222
     28          1           0        0.972750    1.809914   -1.073902
     29          1           0        3.427016    1.817840   -0.567346
     30          1           0        3.245957   -2.351680    0.434443
     31          1           0        0.791100   -2.373207   -0.068845
     32          7           0        4.886014   -0.257623    0.252298
     33          8           0        5.394372   -1.314163    0.620987
     34          8           0        5.486420    0.805570    0.111690
 ---------------------------------------------------------------------

 SCF Done:  E(RHF) =  -669.534971836     A.U. after   15 cycles
 E2 =    -0.2092532230D+01 EUMP2 =    -0.67162750406631D+03

 The electronic state is 1-A.
 Alpha  occ. eigenvalues --  -20.60745 -20.60740 -15.85798 -11.31167 -11.27737
 Alpha  occ. eigenvalues --  -11.27723 -11.27435 -11.26746 -11.26704 -11.22602
 Alpha  occ. eigenvalues --  -11.22533 -11.22443 -11.22267 -11.22164 -11.21743
 Alpha  occ. eigenvalues --   -1.59820  -1.39374  -1.19337  -1.09413  -1.08730
 Alpha  occ. eigenvalues --   -1.04741  -1.04451  -0.96921  -0.95567  -0.87942
 Alpha  occ. eigenvalues --   -0.86136  -0.82398  -0.80534  -0.79246  -0.77444
 Alpha  occ. eigenvalues --   -0.72017  -0.71143  -0.70465  -0.66046  -0.64989
 Alpha  occ. eigenvalues --   -0.64756  -0.62140  -0.61790  -0.60279  -0.58528
 Alpha  occ. eigenvalues --   -0.56248  -0.55245  -0.53572  -0.53399  -0.53051
 Alpha  occ. eigenvalues --   -0.52783  -0.50846  -0.48846  -0.48772  -0.48753
 Alpha  occ. eigenvalues --   -0.47547  -0.46765  -0.46669  -0.44779  -0.44721
 Alpha  occ. eigenvalues --   -0.37298  -0.36335
 Alpha virt. eigenvalues --    0.05068   0.11174   0.16505   0.19774   0.22397
 Alpha virt. eigenvalues --    0.23672   0.24807   0.25896   0.26263   0.28169
 Alpha virt. eigenvalues --    0.29603   0.30010   0.30821   0.31093   0.31464

 Mulliken charges:
               1
     1  C   -0.303788
     2  C   -0.299426
     3  C   -0.484702
     4  H    0.142089
     5  H    0.151154
     6  H    0.155921
     7  H    0.156557
     8  H    0.155054
     9  H    0.152401
    10  H    0.166579
    11  C   -0.298363
    12  C   -0.299613
    13  C   -0.476270
    14  H    0.151877
    15  H    0.153432
    16  H    0.147563
    17  H    0.153125
    18  H    0.157261
    19  H    0.156459
    20  H    0.162089
    21  C   -0.177484
    22  C   -0.223073
    23  C   -0.171543
    24  C    0.158354
    25  C   -0.170759
    26  C   -0.221006
    27  H    0.236441
    28  H    0.227994
    29  H    0.275780
    30  H    0.275505
    31  H    0.223225
    32  N    0.488018
    33  O   -0.460510
    34  O   -0.460342
 Sum of Mulliken charges =  -0.00000

 Dipole moment (field-independent basis, Debye):
    X=             -5.3397    Y=              0.0216    Z=             -0.9912  Tot=              5.4310
 Quadrupole moment (field-independent basis, Debye-Ang):
   XX=           -129.6854   YY=            -89.9489   ZZ=            -94.8650
   XY=              0.5005   XZ=             -3.0597   YZ=             -1.0886

 Normal termination of Gaussian 16 at Thu May  6 01:00:21 2021.
