 Gaussian 16, Revision A.03,
 Gaussian 16:  EM64L-G16RevA.03 25-Dec-2016

 -------------
 #p 6-31g* mp2
 -------------

 ------------------------------------------------------
 Input file generated by CHIRIPA (05-May-2021 14:55:25)
 ------------------------------------------------------
 Symbolic Z-matrix:
 Charge =  0 Multiplicity = 1

                         Standard orientation:
 ---------------------------------------------------------------------
 Center     Atomic      Atomic             Coordinates (Angstroms)
 Number     Number       Type             X           Y           Z
 ---------------------------------------------------------------------
      1          6           0        0.721543   -0.719260    0.227170
      2          6           0        1.636077   -1.581500   -0.386581
      3          6           0        2.983594   -1.225668   -0.496715
      4          6           0        3.383897    0.005530    0.020197
      5          6           0        2.496803    0.886252    0.637191
      6          6           0        1.154062    0.509698    0.736200
      7          1           0       -0.323386   -1.003727    0.308403
      8          1           0        1.303009   -2.536550   -0.782802
      9          1           0        3.712841   -1.874083   -0.967007
     10          1           0        2.858668    1.831707    1.022660
     11          1           0        0.446050    1.181328    1.213355
     12          7           0        4.807925    0.393202   -0.090508
     13          8           0        5.135394    1.483449    0.372916
     14          8           0        5.569645   -0.400529   -0.638606
     15          6           0       -4.350163   -0.617996   -0.090646
     16          6           0       -3.397085   -1.748992    0.297271
     17          6           0       -4.050163   -3.128686    0.209377
     18          1           0       -5.232367   -0.649982    0.563293
     19          1           0       -4.713087   -0.788397   -1.113701
     20          1           0       -3.034989   -1.575772    1.318788
     21          1           0       -2.516957   -1.714192   -0.357542
     22          1           0       -4.395962   -3.326965   -0.810284
     23          1           0       -4.916938   -3.187760    0.875570
     24          1           0       -3.351160   -3.922401    0.490927
     25          6           0       -3.711790    0.767406   -0.007767
     26          6           0       -4.664867    1.898401   -0.395683
     27          6           0       -4.011789    3.278096   -0.307789
     28          1           0       -3.348865    0.937807    1.015290
     29          1           0       -2.829585    0.799392   -0.661706
     30          1           0       -5.544995    1.863601    0.259130
     31          1           0       -5.026963    1.725182   -1.417200
     32          1           0       -3.145015    3.337169   -0.973983
     33          1           0       -3.665989    3.476375    0.711872
     34          1           0       -4.710792    4.071812   -0.589339
 ---------------------------------------------------------------------

 SCF Done:  E(RHF) =  -669.535746857     A.U. after   15 cycles
 E2 =    -0.2091393366D+01 EUMP2 =    -0.67162714022369D+03

 The electronic state is 1-A.
 Alpha  occ. eigenvalues --  -20.60697 -20.60692 -15.85751 -11.31095 -11.27668
 Alpha  occ. eigenvalues --  -11.27662 -11.27325 -11.26665 -11.26649 -11.22917
 Alpha  occ. eigenvalues --  -11.22470 -11.22414 -11.22380 -11.22096 -11.21786
 Alpha  occ. eigenvalues --   -1.59774  -1.39328  -1.19262  -1.09474  -1.08652
 Alpha  occ. eigenvalues --   -1.04666  -1.04516  -0.96926  -0.95494  -0.87945
 Alpha  occ. eigenvalues --   -0.86059  -0.82337  -0.80623  -0.79309  -0.77387
 Alpha  occ. eigenvalues --   -0.71968  -0.71097  -0.70360  -0.66090  -0.64910
 Alpha  occ. eigenvalues --   -0.64668  -0.62017  -0.61904  -0.60325  -0.58556
 Alpha  occ. eigenvalues --   -0.56194  -0.55179  -0.53606  -0.53345  -0.52995
 Alpha  occ. eigenvalues --   -0.52753  -0.50865  -0.48911  -0.48725  -0.48712
 Alpha  occ. eigenvalues --   -0.47648  -0.46807  -0.46735  -0.44772  -0.44738
 Alpha  occ. eigenvalues --   -0.37230  -0.36278
 Alpha virt. eigenvalues --    0.05141   0.11370   0.16603   0.19847   0.22438
 Alpha virt. eigenvalues --    0.23289   0.25251   0.25479   0.26966   0.27480
 Alpha virt. eigenvalues --    0.29668   0.30181   0.30638   0.31108   0.32049

 Mulliken charges:
               1
     1  C   -0.179488
     2  C   -0.221621
     3  C   -0.170806
     4  C    0.158075
     5  C   -0.170782
     6  C   -0.221710
     7  H    0.239583
     8  H    0.222807
     9  H    0.275166
    10  H    0.275193
    11  H    0.224315
    12  N    0.488040
    13  O   -0.460702
    14  O   -0.460769
    15  C   -0.297489
    16  C   -0.307588
    17  C   -0.475224
    18  H    0.153967
    19  H    0.153291
    20  H    0.151504
    21  H    0.146166
    22  H    0.158496
    23  H    0.159702
    24  H    0.160592
    25  C   -0.301420
    26  C   -0.300001
    27  C   -0.476796
    28  H    0.146420
    29  H    0.147833
    30  H    0.154434
    31  H    0.154690
    32  H    0.155964
    33  H    0.154206
    34  H    0.163949
 Sum of Mulliken charges =  -0.00000

 Dipole moment (field-independent basis, Debye):
    X=             -5.3498    Y=             -1.3593    Z=              0.3647  Tot=              5.5318
 Quadrupole moment (field-independent basis, Debye-Ang):
   XX=           -127.9664   YY=            -91.9575   ZZ=            -93.4056
   XY=             -5.9561   XZ=              0.4971   YZ=              2.3181

 Normal termination of Gaussian 16 at Thu May  6 09:34:02 2021.
