 Gaussian 16, Revision A.03,
 Gaussian 16:  EM64L-G16RevA.03 25-Dec-2016

 -------------
 #p 6-31g* mp2
 -------------

 ------------------------------------------------------
 Input file generated by CHIRIPA (05-May-2021 14:55:21)
 ------------------------------------------------------
 Symbolic Z-matrix:
 Charge =  0 Multiplicity = 1

                         Standard orientation:
 ---------------------------------------------------------------------
 Center     Atomic      Atomic             Coordinates (Angstroms)
 Number     Number       Type             X           Y           Z
 ---------------------------------------------------------------------
      1          6           0        1.903827    1.580198    0.033148
      2          6           0        1.626820    0.209541    0.066138
      3          6           0        2.665901   -0.725545    0.044424
      4          6           0        3.976151   -0.252790   -0.010695
      5          6           0        4.284316    1.106318   -0.044613
      6          6           0        3.229354    2.023430   -0.022025
      7          1           0        1.090476    2.299614    0.050356
      8          1           0        0.598360   -0.137560    0.109000
      9          1           0        2.479841   -1.792407    0.069038
     10          1           0        5.319676    1.421966   -0.087195
     11          1           0        3.447458    3.087298   -0.047742
     12          7           0        5.084585   -1.233210   -0.034146
     13          8           0        6.230355   -0.791080   -0.082827
     14          8           0        4.786618   -2.425228   -0.003400
     15          6           0       -4.165791    0.289491    0.287492
     16          6           0       -3.560325    1.550173   -0.330629
     17          6           0       -2.180191    1.882737    0.237195
     18          1           0       -4.237375    0.420496    1.375912
     19          1           0       -3.485212   -0.556486    0.118582
     20          1           0       -4.242495    2.393240   -0.161810
     21          1           0       -3.490352    1.416225   -1.417725
     22          1           0       -1.480574    1.060433    0.055665
     23          1           0       -2.236990    2.042998    1.318717
     24          1           0       -1.765936    2.787478   -0.218543
     25          6           0       -5.545485   -0.056005   -0.270007
     26          6           0       -6.150951   -1.316689    0.348114
     27          6           0       -7.531086   -1.649253   -0.219710
     28          1           0       -6.226065    0.789971   -0.101098
     29          1           0       -5.473901   -0.187012   -1.358428
     30          1           0       -6.220924   -1.182741    1.435209
     31          1           0       -5.468782   -2.159755    0.179293
     32          1           0       -7.474286   -1.809513   -1.301233
     33          1           0       -8.230702   -0.826948   -0.038180
     34          1           0       -7.945341   -2.553995    0.236027
 ---------------------------------------------------------------------

 SCF Done:  E(RHF) =  -669.535382062     A.U. after   15 cycles
 E2 =    -0.2091224828D+01 EUMP2 =    -0.67162660689057D+03

 The electronic state is 1-A.
 Alpha  occ. eigenvalues --  -20.60703 -20.60698 -15.85757 -11.31101 -11.27676
 Alpha  occ. eigenvalues --  -11.27672 -11.27368 -11.26675 -11.26656 -11.22601
 Alpha  occ. eigenvalues --  -11.22466 -11.22205 -11.22112 -11.21996 -11.21481
 Alpha  occ. eigenvalues --   -1.59779  -1.39333  -1.19272  -1.09194  -1.08665
 Alpha  occ. eigenvalues --   -1.04679  -1.04332  -0.96815  -0.95501  -0.87845
 Alpha  occ. eigenvalues --   -0.86074  -0.82340  -0.80415  -0.78955  -0.77398
 Alpha  occ. eigenvalues --   -0.71975  -0.71103  -0.70366  -0.65832  -0.64923
 Alpha  occ. eigenvalues --   -0.64712  -0.62096  -0.61669  -0.60217  -0.58385
 Alpha  occ. eigenvalues --   -0.56103  -0.55172  -0.53498  -0.53272  -0.53003
 Alpha  occ. eigenvalues --   -0.52742  -0.50738  -0.48771  -0.48731  -0.48673
 Alpha  occ. eigenvalues --   -0.47415  -0.46509  -0.46399  -0.44744  -0.44569
 Alpha  occ. eigenvalues --   -0.37242  -0.36286
 Alpha virt. eigenvalues --    0.05145   0.11366   0.16643   0.19709   0.22354
 Alpha virt. eigenvalues --    0.23805   0.24957   0.25908   0.26361   0.27423
 Alpha virt. eigenvalues --    0.29012   0.29332   0.31024   0.31572   0.32117

 Mulliken charges:
               1
     1  C   -0.174423
     2  C   -0.223609
     3  C   -0.171228
     4  C    0.158463
     5  C   -0.170957
     6  C   -0.219219
     7  H    0.231493
     8  H    0.227481
     9  H    0.275399
    10  H    0.275227
    11  H    0.223164
    12  N    0.487986
    13  O   -0.460678
    14  O   -0.460724
    15  C   -0.298777
    16  C   -0.299811
    17  C   -0.482841
    18  H    0.151388
    19  H    0.147463
    20  H    0.156018
    21  H    0.154687
    22  H    0.148805
    23  H    0.160536
    24  H    0.158732
    25  C   -0.299014
    26  C   -0.300237
    27  C   -0.476159
    28  H    0.150996
    29  H    0.150881
    30  H    0.152758
    31  H    0.152406
    32  H    0.155946
    33  H    0.155848
    34  H    0.162000
 Sum of Mulliken charges =  -0.00000

 Dipole moment (field-independent basis, Debye):
    X=             -4.1988    Y=              3.4850    Z=              0.0902  Tot=              5.4575
 Quadrupole moment (field-independent basis, Debye-Ang):
   XX=           -123.8018   YY=            -93.6948   ZZ=            -95.1964
   XY=             17.0295   XZ=             -0.4011   YZ=              0.1129

 Normal termination of Gaussian 16 at Thu May  6 04:36:05 2021.
