 Gaussian 16, Revision A.03,
 Gaussian 16:  EM64L-G16RevA.03 25-Dec-2016

 -------------
 #p 6-31g* mp2
 -------------

 ------------------------------------------------------
 Input file generated by CHIRIPA (05-May-2021 14:53:17)
 ------------------------------------------------------
 Symbolic Z-matrix:
 Charge =  0 Multiplicity = 1

                         Standard orientation:
 ---------------------------------------------------------------------
 Center     Atomic      Atomic             Coordinates (Angstroms)
 Number     Number       Type             X           Y           Z
 ---------------------------------------------------------------------
      1          6           0        2.615915   -0.169091    0.581219
      2          6           0        2.142213   -1.309034    1.483505
      3          6           0        0.708833   -1.114308    1.978780
      4          1           0        2.541870    0.779591    1.130278
      5          1           0        1.937753   -0.085927   -0.279348
      6          1           0        2.821866   -1.390920    2.341400
      7          1           0        2.217575   -2.255136    0.932299
      8          1           0        0.014324   -1.054535    1.134574
      9          1           0        0.622048   -0.185408    2.551680
     10          1           0        0.390601   -1.940626    2.622043
     11          6           0        4.047023   -0.349423    0.078091
     12          6           0        4.520725    0.790520   -0.824195
     13          6           0        5.954105    0.595794   -1.319471
     14          1           0        4.725185   -0.432587    0.938658
     15          1           0        4.121068   -1.298105   -0.470968
     16          1           0        4.445363    1.736622   -0.272989
     17          1           0        3.841073    0.872406   -1.682090
     18          1           0        6.040891   -0.333106   -1.892370
     19          1           0        6.648614    0.536021   -0.475264
     20          1           0        6.272337    1.422112   -1.962733
     21          6           0       -2.377084    2.464674    0.836892
     22          6           0       -2.410455    2.361962   -0.557690
     23          6           0       -2.535181    1.113751   -1.174910
     24          6           0       -2.624523   -0.016150   -0.363349
     25          6           0       -2.594214    0.053567    1.028596
     26          6           0       -2.468908    1.312180    1.624196
     27          1           0       -2.279968    3.438355    1.307965
     28          1           0       -2.339341    3.255307   -1.171632
     29          1           0       -2.563609    1.005454   -2.252353
     30          1           0       -2.667194   -0.854852    1.614144
     31          1           0       -2.443263    1.388932    2.707476
     32          7           0       -2.756872   -1.343081   -1.005327
     33          8           0       -2.833817   -2.323421   -0.268002
     34          8           0       -2.781156   -1.377664   -2.233681
 ---------------------------------------------------------------------

 SCF Done:  E(RHF) =  -669.534855808     A.U. after   15 cycles
 E2 =    -0.2092606972D+01 EUMP2 =    -0.67162746277997D+03

 The electronic state is 1-A.
 Alpha  occ. eigenvalues --  -20.60807 -20.60792 -15.85848 -11.31171 -11.27770
 Alpha  occ. eigenvalues --  -11.27737 -11.27505 -11.26755 -11.26733 -11.21641
 Alpha  occ. eigenvalues --  -11.21570 -11.21413 -11.21351 -11.21092 -11.21083
 Alpha  occ. eigenvalues --   -1.59876  -1.39429  -1.19367  -1.08763  -1.08437
 Alpha  occ. eigenvalues --   -1.04765  -1.03542  -0.96011  -0.95597  -0.87038
 Alpha  occ. eigenvalues --   -0.86159  -0.82429  -0.79623  -0.78255  -0.77475
 Alpha  occ. eigenvalues --   -0.72065  -0.71206  -0.70477  -0.65072  -0.65010
 Alpha  occ. eigenvalues --   -0.64757  -0.62111  -0.60938  -0.59368  -0.57632
 Alpha  occ. eigenvalues --   -0.55348  -0.55233  -0.53275  -0.52869  -0.52676
 Alpha  occ. eigenvalues --   -0.52273  -0.49939  -0.48824  -0.48821  -0.47923
 Alpha  occ. eigenvalues --   -0.46643  -0.45798  -0.45716  -0.44819  -0.43803
 Alpha  occ. eigenvalues --   -0.37334  -0.36285
 Alpha virt. eigenvalues --    0.05042   0.11231   0.16496   0.21298   0.22843
 Alpha virt. eigenvalues --    0.24232   0.26557   0.26791   0.27506   0.28004
 Alpha virt. eigenvalues --    0.28556   0.30337   0.31604   0.31685   0.31912

 Mulliken charges:
               1
     1  C   -0.297838
     2  C   -0.300130
     3  C   -0.478507
     4  H    0.146296
     5  H    0.150724
     6  H    0.150577
     7  H    0.156713
     8  H    0.159965
     9  H    0.147785
    10  H    0.160672
    11  C   -0.298537
    12  C   -0.299504
    13  C   -0.475726
    14  H    0.149021
    15  H    0.151982
    16  H    0.149858
    17  H    0.152209
    18  H    0.156531
    19  H    0.154956
    20  H    0.159658
    21  C   -0.170740
    22  C   -0.218609
    23  C   -0.171278
    24  C    0.157810
    25  C   -0.169672
    26  C   -0.216794
    27  H    0.225574
    28  H    0.223337
    29  H    0.275463
    30  H    0.277334
    31  H    0.223657
    32  N    0.488092
    33  O   -0.460299
    34  O   -0.460580
 Sum of Mulliken charges =  -0.00000

 Dipole moment (field-independent basis, Debye):
    X=              0.4372    Y=              4.6384    Z=              2.2378  Tot=              5.1685
 Quadrupole moment (field-independent basis, Debye-Ang):
   XX=            -99.0324   YY=            -94.1514   ZZ=            -92.1513
   XY=            -12.3246   XZ=             -5.7475   YZ=             -3.5317

 Normal termination of Gaussian 16 at Thu May  6 04:24:02 2021.
