 Gaussian 16, Revision A.03,
 Gaussian 16:  EM64L-G16RevA.03 25-Dec-2016

 -------------
 #p 6-31g* mp2
 -------------

 ------------------------------------------------------
 Input file generated by CHIRIPA (05-May-2021 14:51:11)
 ------------------------------------------------------
 Symbolic Z-matrix:
 Charge =  0 Multiplicity = 1

                         Standard orientation:
 ---------------------------------------------------------------------
 Center     Atomic      Atomic             Coordinates (Angstroms)
 Number     Number       Type             X           Y           Z
 ---------------------------------------------------------------------
      1          6           0        4.325262   -0.106244   -0.362683
      2          6           0        5.561555   -0.153227    0.535848
      3          6           0        6.865543    0.021336   -0.243212
      4          1           0        4.405300   -0.891295   -1.127035
      5          1           0        4.307111    0.852212   -0.899738
      6          1           0        5.576632   -1.110741    1.072090
      7          1           0        5.478474    0.631903    1.298268
      8          1           0        6.876480    0.983537   -0.765372
      9          1           0        6.975195   -0.769008   -0.992834
     10          1           0        7.736544   -0.015487    0.418499
     11          6           0        3.013922   -0.279306    0.401622
     12          6           0        1.777630   -0.232322   -0.496909
     13          6           0        0.473641   -0.406886    0.282151
     14          1           0        3.032074   -1.237762    0.938677
     15          1           0        2.933885    0.505745    1.165974
     16          1           0        1.860710   -1.017453   -1.259329
     17          1           0        1.762553    0.725191   -1.033152
     18          1           0        0.363989    0.383458    1.031773
     19          1           0        0.462705   -1.369087    0.804311
     20          1           0       -0.397360   -0.370063   -0.379560
     21          6           0       -3.850402    0.921085    0.123025
     22          6           0       -2.728241    1.902256   -0.217623
     23          6           0       -3.105039    3.355319    0.072935
     24          1           0       -4.749527    1.189505   -0.448349
     25          1           0       -4.111496    1.027818    1.185020
     26          1           0       -2.468392    1.792732   -1.278330
     27          1           0       -1.831625    1.631353    0.354484
     28          1           0       -3.344336    3.486625    1.133169
     29          1           0       -3.984721    3.648921   -0.508922
     30          1           0       -2.288537    4.039638   -0.177851
     31          6           0       -3.488782   -0.535535   -0.161965
     32          6           0       -4.610943   -1.516706    0.178684
     33          6           0       -4.234146   -2.969770   -0.111874
     34          1           0       -3.227688   -0.642267   -1.223960
     35          1           0       -2.589656   -0.803955    0.409409
     36          1           0       -5.507559   -1.245803   -0.393424
     37          1           0       -4.870791   -1.407182    1.239392
     38          1           0       -3.354463   -3.263371    0.469984
     39          1           0       -3.994849   -3.101075   -1.172109
     40          1           0       -5.050647   -3.654088    0.138913
 ---------------------------------------------------------------------

 SCF Done:  E(RHF) =  -470.732095206     A.U. after   11 cycles
 E2 =    -0.1583738063D+01 EUMP2 =    -0.47231583326922D+03

 The electronic state is 1-A.
 Alpha  occ. eigenvalues --  -11.21599 -11.21583 -11.21559 -11.21498 -11.21398
 Alpha  occ. eigenvalues --  -11.21340 -11.21339 -11.21274 -11.21069 -11.21043
 Alpha  occ. eigenvalues --  -11.21029 -11.21003  -1.08436  -1.08373  -1.03531
 Alpha  occ. eigenvalues --   -1.03475  -0.95998  -0.95921  -0.87011  -0.86954
 Alpha  occ. eigenvalues --   -0.79640  -0.79538  -0.78278  -0.78146  -0.65077
 Alpha  occ. eigenvalues --   -0.65003  -0.61007  -0.60809  -0.59416  -0.59258
 Alpha  occ. eigenvalues --   -0.57661  -0.57478  -0.55304  -0.55200  -0.52855
 Alpha  occ. eigenvalues --   -0.52529  -0.52409  -0.52325  -0.50020  -0.49807
 Alpha  occ. eigenvalues --   -0.47916  -0.47860  -0.46742  -0.46451  -0.45835
 Alpha  occ. eigenvalues --   -0.45734  -0.45701  -0.45602  -0.43766  -0.43567
 Alpha virt. eigenvalues --    0.22169   0.23044   0.23943   0.24451   0.25833
 Alpha virt. eigenvalues --    0.26399   0.26649   0.27593   0.27844   0.29380
 Alpha virt. eigenvalues --    0.30420   0.31245   0.31781   0.31877   0.32077

 Mulliken charges:
               1
     1  C   -0.298241
     2  C   -0.299592
     3  C   -0.475691
     4  H    0.149645
     5  H    0.149497
     6  H    0.151891
     7  H    0.151879
     8  H    0.155174
     9  H    0.155180
    10  H    0.160229
    11  C   -0.298698
    12  C   -0.300215
    13  C   -0.482419
    14  H    0.149403
    15  H    0.149489
    16  H    0.151948
    17  H    0.152144
    18  H    0.154419
    19  H    0.153717
    20  H    0.170486
    21  C   -0.296999
    22  C   -0.306153
    23  C   -0.475392
    24  H    0.149093
    25  H    0.149063
    26  H    0.150474
    27  H    0.160232
    28  H    0.154839
    29  H    0.154861
    30  H    0.159660
    31  C   -0.305455
    32  C   -0.299014
    33  C   -0.475690
    34  H    0.147933
    35  H    0.158675
    36  H    0.151626
    37  H    0.151793
    38  H    0.155204
    39  H    0.154914
    40  H    0.160092
 Sum of Mulliken charges =  -0.00000

 Dipole moment (field-independent basis, Debye):
    X=              0.0154    Y=             -0.0155    Z=              0.0078  Tot=              0.0232
 Quadrupole moment (field-independent basis, Debye-Ang):
   XX=            -85.9981   YY=            -85.0641   ZZ=            -84.0862
   XY=             -0.0103   XZ=              0.7242   YZ=             -0.0602

 Normal termination of Gaussian 16 at Wed May  5 15:14:28 2021.
