 Gaussian 16, Revision A.03,
 Gaussian 16:  EM64L-G16RevA.03 25-Dec-2016

 -------------
 #p 6-31g* mp2
 -------------

 ------------------------------------------------------
 Input file generated by CHIRIPA (05-May-2021 14:51:14)
 ------------------------------------------------------
 Symbolic Z-matrix:
 Charge =  0 Multiplicity = 1

                         Standard orientation:
 ---------------------------------------------------------------------
 Center     Atomic      Atomic             Coordinates (Angstroms)
 Number     Number       Type             X           Y           Z
 ---------------------------------------------------------------------
      1          6           0       -2.726089   -0.228892    0.154291
      2          6           0       -1.931688    0.212044    1.384124
      3          6           0       -0.419851    0.115772    1.177059
      4          1           0       -2.454297   -1.262888   -0.098544
      5          1           0       -2.432530    0.390392   -0.704607
      6          1           0       -2.227663   -0.406970    2.240766
      7          1           0       -2.205544    1.245046    1.634175
      8          1           0       -0.104707    0.747014    0.339910
      9          1           0       -0.126951   -0.914389    0.949947
     10          1           0        0.128635    0.435744    2.068485
     11          6           0       -4.238976   -0.138301    0.345844
     12          6           0       -5.033377   -0.579237   -0.883989
     13          6           0       -6.545213   -0.482964   -0.676924
     14          1           0       -4.532535   -0.757585    1.204742
     15          1           0       -4.510768    0.895696    0.598679
     16          1           0       -4.759521   -1.612239   -1.134040
     17          1           0       -4.737402    0.039778   -1.740631
     18          1           0       -6.838114    0.547196   -0.449812
     19          1           0       -6.860358   -1.114207    0.160225
     20          1           0       -7.093699   -0.802936   -1.568350
     21          6           0        3.930180   -0.334087    0.089121
     22          6           0        3.940983   -1.686634   -0.623959
     23          6           0        4.841056   -2.711768    0.066521
     24          1           0        4.956724    0.053697    0.141789
     25          1           0        3.596394   -0.476865    1.126231
     26          1           0        4.273325   -1.541145   -1.659815
     27          1           0        2.914267   -2.071152   -0.675104
     28          1           0        4.508000   -2.886210    1.094746
     29          1           0        5.874780   -2.353191    0.104441
     30          1           0        4.833911   -3.671340   -0.459816
     31          6           0        3.034885    0.701279   -0.589256
     32          6           0        3.024081    2.053827    0.123824
     33          6           0        2.124009    3.078960   -0.566656
     34          1           0        3.368671    0.844057   -1.626366
     35          1           0        2.008339    0.313497   -0.641923
     36          1           0        4.050798    2.438345    0.174970
     37          1           0        2.691741    1.908338    1.159680
     38          1           0        1.090284    2.720384   -0.604575
     39          1           0        2.457064    3.253402   -1.594881
     40          1           0        2.131153    4.038532   -0.040319
 ---------------------------------------------------------------------

 SCF Done:  E(RHF) =  -470.732573227     A.U. after   11 cycles
 E2 =    -0.1583701939D+01 EUMP2 =    -0.47231627516599D+03

 The electronic state is 1-A.
 Alpha  occ. eigenvalues --  -11.21674 -11.21631 -11.21540 -11.21515 -11.21459
 Alpha  occ. eigenvalues --  -11.21395 -11.21294 -11.21202 -11.21174 -11.21093
 Alpha  occ. eigenvalues --  -11.21043 -11.21026  -1.08490  -1.08337  -1.03604
 Alpha  occ. eigenvalues --   -1.03457  -0.96050  -0.95914  -0.87082  -0.86926
 Alpha  occ. eigenvalues --   -0.79682  -0.79517  -0.78313  -0.78135  -0.65161
 Alpha  occ. eigenvalues --   -0.64952  -0.61154  -0.60734  -0.59416  -0.59283
 Alpha  occ. eigenvalues --   -0.57658  -0.57528  -0.55395  -0.55144  -0.52738
 Alpha  occ. eigenvalues --   -0.52626  -0.52504  -0.52330  -0.50006  -0.49863
 Alpha  occ. eigenvalues --   -0.48080  -0.47811  -0.46754  -0.46487  -0.45949
 Alpha  occ. eigenvalues --   -0.45770  -0.45661  -0.45350  -0.43838  -0.43706
 Alpha virt. eigenvalues --    0.20853   0.22870   0.23599   0.24817   0.26013
 Alpha virt. eigenvalues --    0.26154   0.26701   0.27779   0.27820   0.29654
 Alpha virt. eigenvalues --    0.30210   0.30895   0.31782   0.32081   0.32430

 Mulliken charges:
               1
     1  C   -0.298479
     2  C   -0.300073
     3  C   -0.482164
     4  H    0.149700
     5  H    0.149434
     6  H    0.152146
     7  H    0.152406
     8  H    0.161560
     9  H    0.155107
    10  H    0.160958
    11  C   -0.298336
    12  C   -0.299722
    13  C   -0.475750
    14  H    0.149650
    15  H    0.149847
    16  H    0.151989
    17  H    0.152095
    18  H    0.155267
    19  H    0.155211
    20  H    0.160389
    21  C   -0.298062
    22  C   -0.299728
    23  C   -0.475658
    24  H    0.149038
    25  H    0.149817
    26  H    0.151716
    27  H    0.151789
    28  H    0.155055
    29  H    0.155083
    30  H    0.159914
    31  C   -0.303737
    32  C   -0.300199
    33  C   -0.478592
    34  H    0.148338
    35  H    0.157387
    36  H    0.151694
    37  H    0.153298
    38  H    0.156348
    39  H    0.155127
    40  H    0.160136
 Sum of Mulliken charges =  -0.00000

 Dipole moment (field-independent basis, Debye):
    X=             -0.0533    Y=             -0.0049    Z=              0.0149  Tot=              0.0555
 Quadrupole moment (field-independent basis, Debye-Ang):
   XX=            -85.9140   YY=            -84.5654   ZZ=            -84.5046
   XY=              0.7786   XZ=             -0.6510   YZ=             -0.1750

 Normal termination of Gaussian 16 at Wed May  5 21:39:04 2021.
