 Gaussian 16, Revision A.03,
 Gaussian 16:  EM64L-G16RevA.03 25-Dec-2016

 -------------
 #p 6-31g* mp2
 -------------

 ------------------------------------------------------
 Input file generated by CHIRIPA (05-May-2021 14:55:20)
 ------------------------------------------------------
 Symbolic Z-matrix:
 Charge =  0 Multiplicity = 1

                         Standard orientation:
 ---------------------------------------------------------------------
 Center     Atomic      Atomic             Coordinates (Angstroms)
 Number     Number       Type             X           Y           Z
 ---------------------------------------------------------------------
      1          6           0       -3.149398   -1.947647    0.946337
      2          6           0       -3.583153   -1.434486   -0.280465
      3          6           0       -3.217567   -0.145626   -0.680134
      4          6           0       -2.413652    0.605943    0.175527
      5          6           0       -1.965511    0.122707    1.403917
      6          6           0       -2.343382   -1.168785    1.783137
      7          1           0       -3.438165   -2.949887    1.248866
      8          1           0       -4.209195   -2.037100   -0.932364
      9          1           0       -3.539266    0.276387   -1.624503
     10          1           0       -1.342281    0.747232    2.032385
     11          1           0       -2.005044   -1.564720    2.736452
     12          7           0       -2.020119    1.971795   -0.236761
     13          8           0       -1.311160    2.613826    0.535126
     14          8           0       -2.428080    2.374455   -1.323991
     15          6           0        2.455632   -0.725175   -0.197469
     16          6           0        1.770883   -1.220648   -1.471679
     17          6           0        0.337356   -1.692840   -1.227081
     18          1           0        2.455991   -1.531800    0.548387
     19          1           0        1.865973    0.096862    0.231429
     20          1           0        2.362395   -2.040586   -1.898797
     21          1           0        1.772324   -0.412811   -2.214654
     22          1           0       -0.272731   -0.878650   -0.822744
     23          1           0        0.320692   -2.515674   -0.505091
     24          1           0       -0.133258   -2.042752   -2.151173
     25          6           0        3.889355   -0.249760   -0.425831
     26          6           0        4.574104    0.245713    0.848378
     27          6           0        6.007632    0.717906    0.603782
     28          1           0        4.479015   -1.071797   -0.854728
     29          1           0        3.888997    0.556865   -1.171686
     30          1           0        4.572663   -0.562124    1.591355
     31          1           0        3.982593    1.065651    1.275497
     32          1           0        6.024295    1.540739   -0.118208
     33          1           0        6.617718   -0.096285    0.199444
     34          1           0        6.478247    1.067817    1.527872
 ---------------------------------------------------------------------

 SCF Done:  E(RHF) =  -669.534508829     A.U. after   15 cycles
 E2 =    -0.2093684913D+01 EUMP2 =    -0.67162819374187D+03

 The electronic state is 1-A.
 Alpha  occ. eigenvalues --  -20.60832 -20.60825 -15.85880 -11.31189 -11.27786
 Alpha  occ. eigenvalues --  -11.27783 -11.27555 -11.26819 -11.26805 -11.21442
 Alpha  occ. eigenvalues --  -11.21423 -11.21256 -11.21177 -11.20912 -11.20890
 Alpha  occ. eigenvalues --   -1.59909  -1.39461  -1.19419  -1.08808  -1.08268
 Alpha  occ. eigenvalues --   -1.04803  -1.03375  -0.95838  -0.95638  -0.86855
 Alpha  occ. eigenvalues --   -0.86204  -0.82471  -0.79447  -0.78091  -0.77520
 Alpha  occ. eigenvalues --   -0.72099  -0.71249  -0.70513  -0.65058  -0.64897
 Alpha  occ. eigenvalues --   -0.64806  -0.62149  -0.60795  -0.59208  -0.57489
 Alpha  occ. eigenvalues --   -0.55311  -0.55253  -0.53436  -0.52895  -0.52511
 Alpha  occ. eigenvalues --   -0.51955  -0.49710  -0.48858  -0.48855  -0.47701
 Alpha  occ. eigenvalues --   -0.46454  -0.45618  -0.45539  -0.44865  -0.43636
 Alpha  occ. eigenvalues --   -0.37341  -0.36390
 Alpha virt. eigenvalues --    0.04994   0.11202   0.16478   0.21364   0.22995
 Alpha virt. eigenvalues --    0.24399   0.26643   0.27195   0.27653   0.28016
 Alpha virt. eigenvalues --    0.28416   0.30814   0.31556   0.31962   0.32072

 Mulliken charges:
               1
     1  C   -0.170321
     2  C   -0.214474
     3  C   -0.171327
     4  C    0.156713
     5  C   -0.173759
     6  C   -0.213900
     7  H    0.225950
     8  H    0.223822
     9  H    0.275668
    10  H    0.275609
    11  H    0.223798
    12  N    0.488311
    13  O   -0.461226
    14  O   -0.460294
    15  C   -0.299210
    16  C   -0.300093
    17  C   -0.477923
    18  H    0.145141
    19  H    0.152630
    20  H    0.149859
    21  H    0.155496
    22  H    0.161979
    23  H    0.149578
    24  H    0.156375
    25  C   -0.298158
    26  C   -0.300216
    27  C   -0.475725
    28  H    0.148126
    29  H    0.152876
    30  H    0.149116
    31  H    0.154840
    32  H    0.156905
    33  H    0.154062
    34  H    0.159772
 Sum of Mulliken charges =  -0.00000

 Dipole moment (field-independent basis, Debye):
    X=             -1.4947    Y=             -4.7595    Z=              1.4661  Tot=              5.1997
 Quadrupole moment (field-independent basis, Debye-Ang):
   XX=            -88.2386   YY=           -100.6357   ZZ=            -90.8187
   XY=             10.9844   XZ=             -1.2439   YZ=              0.2168

 Normal termination of Gaussian 16 at Wed May  5 22:10:09 2021.
