 Gaussian 16, Revision A.03,
 Gaussian 16:  EM64L-G16RevA.03 25-Dec-2016

 -------------
 #p 6-31g* mp2
 -------------

 ------------------------------------------------------
 Input file generated by CHIRIPA (05-May-2021 14:57:26)
 ------------------------------------------------------
 Symbolic Z-matrix:
 Charge =  0 Multiplicity = 1

                         Standard orientation:
 ---------------------------------------------------------------------
 Center     Atomic      Atomic             Coordinates (Angstroms)
 Number     Number       Type             X           Y           Z
 ---------------------------------------------------------------------
      1          6           0        4.507872    2.338285    0.146446
      2          6           0        3.136787    2.127711   -0.033285
      3          6           0        2.634637    0.835585   -0.214410
      4          6           0        3.536060   -0.227764   -0.210293
      5          6           0        4.907408   -0.050284   -0.033672
      6          6           0        5.387257    1.250534    0.145680
      7          1           0        4.889292    3.345415    0.286459
      8          1           0        2.451508    2.970586   -0.033142
      9          1           0        1.577867    0.644047   -0.355713
     10          1           0        5.565900   -0.910389   -0.038571
     11          1           0        6.452550    1.411079    0.285034
     12          7           0        3.016261   -1.600280   -0.401103
     13          8           0        3.831207   -2.520303   -0.393460
     14          8           0        1.803739   -1.730047   -0.554690
     15          6           0       -1.489522   -0.970646    1.113959
     16          6           0       -1.626005    0.414652    0.976701
     17          6           0       -2.802920    0.964391    0.459779
     18          6           0       -3.827863    0.095545    0.088442
     19          6           0       -3.722086   -1.288863    0.212999
     20          6           0       -2.536152   -1.816492    0.732342
     21          1           0       -0.571762   -1.389108    1.516456
     22          1           0       -0.814828    1.073962    1.272248
     23          1           0       -2.935234    2.033136    0.342757
     24          1           0       -4.548095   -1.920651   -0.090267
     25          1           0       -2.432951   -2.892722    0.837810
     26          7           0       -5.078583    0.665825   -0.460082
     27          8           0       -5.966879   -0.121110   -0.779928
     28          8           0       -5.146920    1.888947   -0.559784
 ---------------------------------------------------------------------

 SCF Done:  E(RHF) =  -868.338926541     A.U. after   16 cycles
 E2 =    -0.2599487300D+01 EUMP2 =    -0.87093841384038D+03

 The electronic state is 1-A.
 Alpha  occ. eigenvalues --  -20.61699 -20.61645 -20.60533 -20.60518 -15.86710
 Alpha  occ. eigenvalues --  -15.85584 -11.31969 -11.30849 -11.28550 -11.28486
 Alpha  occ. eigenvalues --  -11.28207 -11.27533 -11.27524 -11.27466 -11.27408
 Alpha  occ. eigenvalues --  -11.27051 -11.26507 -11.26275  -1.60744  -1.59608
 Alpha  occ. eigenvalues --   -1.40301  -1.39164  -1.20124  -1.19026  -1.09531
 Alpha  occ. eigenvalues --   -1.08401  -1.05513  -1.04442  -0.96388  -0.95251
 Alpha  occ. eigenvalues --   -0.86911  -0.85828  -0.83226  -0.82109  -0.78296
 Alpha  occ. eigenvalues --   -0.77202  -0.72936  -0.72064  -0.71804  -0.71217
 Alpha  occ. eigenvalues --   -0.70931  -0.70035  -0.65774  -0.65512  -0.64674
 Alpha  occ. eigenvalues --   -0.64460  -0.62862  -0.61804  -0.55990  -0.54814
 Alpha  occ. eigenvalues --   -0.53842  -0.53604  -0.52729  -0.52533  -0.49694
 Alpha  occ. eigenvalues --   -0.49675  -0.48564  -0.48552  -0.45725  -0.44594
 Alpha  occ. eigenvalues --   -0.38082  -0.37116  -0.36913  -0.36060
 Alpha virt. eigenvalues --    0.04194   0.05386   0.10520   0.11473   0.15705
 Alpha virt. eigenvalues --    0.16911   0.19973   0.22044   0.25675   0.27268
 Alpha virt. eigenvalues --    0.28397   0.29097   0.30423   0.31465   0.31835

 Mulliken charges:
               1
     1  C   -0.169886
     2  C   -0.218960
     3  C   -0.177681
     4  C    0.158152
     5  C   -0.170152
     6  C   -0.218213
     7  H    0.228514
     8  H    0.223941
     9  H    0.274982
    10  H    0.277255
    11  H    0.226243
    12  N    0.488351
    13  O   -0.456172
    14  O   -0.466430
    15  C   -0.160763
    16  C   -0.225322
    17  C   -0.170966
    18  C    0.157297
    19  C   -0.170035
    20  C   -0.218787
    21  H    0.236270
    22  H    0.212945
    23  H    0.271701
    24  H    0.275458
    25  H    0.227538
    26  N    0.488368
    27  O   -0.460408
    28  O   -0.463241
 Sum of Mulliken charges =  -0.00000

 Dipole moment (field-independent basis, Debye):
    X=              6.5482    Y=              2.6236    Z=              2.6084  Tot=              7.5210
 Quadrupole moment (field-independent basis, Debye-Ang):
   XX=           -120.4216   YY=           -102.7135   ZZ=           -106.4013
   XY=             25.7793   XZ=             -4.4566   YZ=             -0.9448

 Normal termination of Gaussian 16 at Thu May  6 08:22:45 2021.
