 Gaussian 16, Revision A.03,
 Gaussian 16:  EM64L-G16RevA.03 25-Dec-2016

 -------------
 #p 6-31g* mp2
 -------------

 ------------------------------------------------------
 Input file generated by CHIRIPA (05-May-2021 14:55:23)
 ------------------------------------------------------
 Symbolic Z-matrix:
 Charge =  0 Multiplicity = 1

                         Standard orientation:
 ---------------------------------------------------------------------
 Center     Atomic      Atomic             Coordinates (Angstroms)
 Number     Number       Type             X           Y           Z
 ---------------------------------------------------------------------
      1          6           0        1.235845    0.817315   -0.280292
      2          6           0        1.654305   -0.489126   -0.553465
      3          6           0        3.005790   -0.835330   -0.463023
      4          6           0        3.915870    0.154422   -0.095007
      5          6           0        3.530006    1.464720    0.183413
      6          6           0        2.173378    1.788356    0.086629
      7          1           0        0.183981    1.077489   -0.353012
      8          1           0        0.928425   -1.245311   -0.838646
      9          1           0        3.357154   -1.839093   -0.668989
     10          1           0        4.276997    2.196809    0.465314
     11          1           0        1.851269    2.803757    0.299357
     12          7           0        5.349349   -0.200143    0.004097
     13          8           0        6.131376    0.690161    0.330330
     14          8           0        5.663739   -1.361642   -0.246336
     15          6           0       -4.088794   -0.313943    0.585155
     16          6           0       -2.986637   -1.198922    0.002018
     17          6           0       -1.750564   -1.271938    0.899004
     18          1           0       -3.691118    0.697312    0.746903
     19          1           0       -4.374269   -0.699374    1.573761
     20          1           0       -2.704294   -0.812748   -0.985791
     21          1           0       -3.387037   -2.208139   -0.158538
     22          1           0       -2.011165   -1.678073    1.881727
     23          1           0       -1.324542   -0.274755    1.049773
     24          1           0       -0.975287   -1.909716    0.463063
     25          6           0       -5.331021   -0.230974   -0.300122
     26          6           0       -6.433177    0.654005    0.283014
     27          6           0       -7.669251    0.727020   -0.613971
     28          1           0       -5.045545    0.154456   -1.288729
     29          1           0       -5.728695   -1.242229   -0.461869
     30          1           0       -6.032776    1.663220    0.443571
     31          1           0       -6.715520    0.267831    1.270825
     32          1           0       -8.095272   -0.270163   -0.764740
     33          1           0       -7.408649    1.133155   -1.596694
     34          1           0       -8.444528    1.364799   -0.178030
 ---------------------------------------------------------------------

 SCF Done:  E(RHF) =  -669.534411042     A.U. after   15 cycles
 E2 =    -0.2091990009D+01 EUMP2 =    -0.67162640105051D+03

 The electronic state is 1-A.
 Alpha  occ. eigenvalues --  -20.60722 -20.60717 -15.85775 -11.31134 -11.27703
 Alpha  occ. eigenvalues --  -11.27687 -11.27420 -11.26720 -11.26673 -11.22652
 Alpha  occ. eigenvalues --  -11.22268 -11.22252 -11.22203 -11.22082 -11.21573
 Alpha  occ. eigenvalues --   -1.59798  -1.39352  -1.19304  -1.09260  -1.08701
 Alpha  occ. eigenvalues --   -1.04711  -1.04369  -0.96832  -0.95535  -0.87850
 Alpha  occ. eigenvalues --   -0.86098  -0.82374  -0.80440  -0.79030  -0.77420
 Alpha  occ. eigenvalues --   -0.71994  -0.71121  -0.70444  -0.65902  -0.64956
 Alpha  occ. eigenvalues --   -0.64754  -0.62125  -0.61747  -0.60186  -0.58423
 Alpha  occ. eigenvalues --   -0.56182  -0.55166  -0.53612  -0.53267  -0.52997
 Alpha  occ. eigenvalues --   -0.52681  -0.50737  -0.48797  -0.48749  -0.48690
 Alpha  occ. eigenvalues --   -0.47473  -0.46575  -0.46485  -0.44759  -0.44607
 Alpha  occ. eigenvalues --   -0.37258  -0.36301
 Alpha virt. eigenvalues --    0.05090   0.11297   0.16496   0.19322   0.22538
 Alpha virt. eigenvalues --    0.24049   0.25183   0.25925   0.26776   0.27365
 Alpha virt. eigenvalues --    0.29240   0.29919   0.31308   0.31430   0.32366

 Mulliken charges:
               1
     1  C   -0.171670
     2  C   -0.217576
     3  C   -0.172135
     4  C    0.158715
     5  C   -0.171020
     6  C   -0.219210
     7  H    0.226519
     8  H    0.226268
     9  H    0.275347
    10  H    0.275348
    11  H    0.222983
    12  N    0.488061
    13  O   -0.460616
    14  O   -0.460550
    15  C   -0.298017
    16  C   -0.302363
    17  C   -0.479742
    18  H    0.146769
    19  H    0.152940
    20  H    0.147631
    21  H    0.156737
    22  H    0.163237
    23  H    0.151344
    24  H    0.156399
    25  C   -0.298763
    26  C   -0.300126
    27  C   -0.476121
    28  H    0.149239
    29  H    0.151679
    30  H    0.151623
    31  H    0.153338
    32  H    0.156302
    33  H    0.155467
    34  H    0.161963
 Sum of Mulliken charges =  -0.00000

 Dipole moment (field-independent basis, Debye):
    X=             -5.2781    Y=              1.2035    Z=             -0.2911  Tot=              5.4214
 Quadrupole moment (field-independent basis, Debye-Ang):
   XX=           -134.6792   YY=            -89.3017   ZZ=            -95.1755
   XY=              5.9114   XZ=             -1.4133   YZ=              0.8759

 Normal termination of Gaussian 16 at Thu May  6 07:53:27 2021.
