 Gaussian 16, Revision A.03,
 Gaussian 16:  EM64L-G16RevA.03 25-Dec-2016

 -------------
 #p 6-31g* mp2
 -------------

 ------------------------------------------------------
 Input file generated by CHIRIPA (05-May-2021 14:55:22)
 ------------------------------------------------------
 Symbolic Z-matrix:
 Charge =  0 Multiplicity = 1

                         Standard orientation:
 ---------------------------------------------------------------------
 Center     Atomic      Atomic             Coordinates (Angstroms)
 Number     Number       Type             X           Y           Z
 ---------------------------------------------------------------------
      1          6           0        1.228755   -0.123289    1.762588
      2          6           0        1.221009    0.698136    0.630456
      3          6           0        2.286952    0.671008   -0.273743
      4          6           0        3.349203   -0.193441   -0.013664
      5          6           0        3.386098   -1.023967    1.105333
      6          6           0        2.309370   -0.980209    1.996001
      7          1           0        0.396516   -0.095756    2.459736
      8          1           0        0.383120    1.364619    0.446638
      9          1           0        2.306701    1.296234   -1.158119
     10          1           0        4.235373   -1.677943    1.261748
     11          1           0        2.318084   -1.619259    2.874399
     12          7           0        4.483378   -0.230963   -0.963736
     13          8           0        5.407381   -1.001330   -0.711959
     14          8           0        4.426867    0.510705   -1.942191
     15          6           0       -4.127089   -0.503249   -0.341609
     16          6           0       -5.582837   -0.970995   -0.342255
     17          6           0       -5.725337   -2.459511   -0.661329
     18          1           0       -3.680557   -0.713711   -1.323066
     19          1           0       -3.560260   -1.092460    0.392509
     20          1           0       -6.147053   -0.380135   -1.075166
     21          1           0       -6.026011   -0.759221    0.639256
     22          1           0       -5.187162   -3.064664    0.075393
     23          1           0       -5.308892   -2.683423   -1.648769
     24          1           0       -6.774078   -2.772527   -0.656498
     25          6           0       -3.968341    0.982625   -0.024266
     26          6           0       -2.512593    1.450372   -0.023620
     27          6           0       -2.370093    2.938888    0.295454
     28          1           0       -4.535170    1.571837   -0.758384
     29          1           0       -4.414873    1.193087    0.957192
     30          1           0       -2.069420    1.238597   -1.005131
     31          1           0       -1.948377    0.859511    0.709292
     32          1           0       -2.786537    3.162799    1.282895
     33          1           0       -2.908268    3.544039   -0.441268
     34          1           0       -1.321352    3.251903    0.290623
 ---------------------------------------------------------------------

 SCF Done:  E(RHF) =  -669.534952035     A.U. after   15 cycles
 E2 =    -0.2091970747D+01 EUMP2 =    -0.67162692278160D+03

 The electronic state is 1-A.
 Alpha  occ. eigenvalues --  -20.60715 -20.60710 -15.85766 -11.31120 -11.27683
 Alpha  occ. eigenvalues --  -11.27661 -11.27421 -11.26710 -11.26614 -11.22768
 Alpha  occ. eigenvalues --  -11.22248 -11.22221 -11.22161 -11.22058 -11.21526
 Alpha  occ. eigenvalues --   -1.59790  -1.39344  -1.19284  -1.09260  -1.08684
 Alpha  occ. eigenvalues --   -1.04693  -1.04364  -0.96796  -0.95524  -0.87802
 Alpha  occ. eigenvalues --   -0.86091  -0.82357  -0.80473  -0.79034  -0.77397
 Alpha  occ. eigenvalues --   -0.71986  -0.71113  -0.70405  -0.65901  -0.64935
 Alpha  occ. eigenvalues --   -0.64740  -0.62142  -0.61719  -0.60142  -0.58392
 Alpha  occ. eigenvalues --   -0.56049  -0.55186  -0.53520  -0.53249  -0.53012
 Alpha  occ. eigenvalues --   -0.52696  -0.50715  -0.48801  -0.48742  -0.48699
 Alpha  occ. eigenvalues --   -0.47490  -0.46559  -0.46464  -0.44752  -0.44607
 Alpha  occ. eigenvalues --   -0.37264  -0.36276
 Alpha virt. eigenvalues --    0.05119   0.11320   0.16603   0.19683   0.22432
 Alpha virt. eigenvalues --    0.23748   0.25028   0.25927   0.26462   0.28172
 Alpha virt. eigenvalues --    0.28937   0.29831   0.30847   0.31556   0.31962

 Mulliken charges:
               1
     1  C   -0.175215
     2  C   -0.225540
     3  C   -0.174508
     4  C    0.159068
     5  C   -0.171536
     6  C   -0.218278
     7  H    0.225055
     8  H    0.240391
     9  H    0.275448
    10  H    0.275258
    11  H    0.222963
    12  N    0.488034
    13  O   -0.460692
    14  O   -0.460576
    15  C   -0.298690
    16  C   -0.300397
    17  C   -0.476090
    18  H    0.152272
    19  H    0.147841
    20  H    0.153564
    21  H    0.152118
    22  H    0.154982
    23  H    0.156802
    24  H    0.162042
    25  C   -0.298025
    26  C   -0.306331
    27  C   -0.480627
    28  H    0.153320
    29  H    0.150768
    30  H    0.155662
    31  H    0.143659
    32  H    0.158834
    33  H    0.162787
    34  H    0.155640
 Sum of Mulliken charges =  -0.00000

 Dipole moment (field-independent basis, Debye):
    X=             -4.2609    Y=              0.1465    Z=              3.2791  Tot=              5.3786
 Quadrupole moment (field-independent basis, Debye-Ang):
   XX=           -120.3632   YY=            -93.7101   ZZ=            -92.7895
   XY=             -1.0293   XZ=             12.9993   YZ=             -3.4411

 Normal termination of Gaussian 16 at Wed May  5 22:16:27 2021.
