 Gaussian 16, Revision A.03,
 Gaussian 16:  EM64L-G16RevA.03 25-Dec-2016

 -------------
 #p 6-31g* mp2
 -------------

 ------------------------------------------------------
 Input file generated by CHIRIPA (05-May-2021 14:51:10)
 ------------------------------------------------------
 Symbolic Z-matrix:
 Charge =  0 Multiplicity = 1

                         Standard orientation:
 ---------------------------------------------------------------------
 Center     Atomic      Atomic             Coordinates (Angstroms)
 Number     Number       Type             X           Y           Z
 ---------------------------------------------------------------------
      1          6           0       -3.985521    0.434199    0.258422
      2          6           0       -2.545147   -0.066351    0.371381
      3          6           0       -1.552201    1.054708    0.679728
      4          1           0       -4.040124    1.200576   -0.526836
      5          1           0       -4.269289    0.928493    1.197860
      6          1           0       -2.264645   -0.560773   -0.567491
      7          1           0       -2.494004   -0.831762    1.156330
      8          1           0       -1.804450    1.543130    1.626521
      9          1           0       -1.573787    1.815658   -0.107095
     10          1           0       -0.528681    0.674677    0.756169
     11          6           0       -4.989901   -0.674896   -0.049566
     12          6           0       -6.430275   -0.174347   -0.162524
     13          6           0       -7.423221   -1.295405   -0.470872
     14          1           0       -4.706133   -1.169190   -0.989004
     15          1           0       -4.935298   -1.441273    0.735692
     16          1           0       -6.481418    0.591065   -0.947474
     17          1           0       -6.710777    0.320076    0.776348
     18          1           0       -7.401635   -2.056355    0.315951
     19          1           0       -7.170972   -1.783827   -1.417664
     20          1           0       -8.446741   -0.915374   -0.547312
     21          6           0        5.173627   -0.151530   -0.301996
     22          6           0        5.501416   -1.497872    0.344459
     23          6           0        6.876911   -2.028777   -0.060445
     24          1           0        5.221053   -0.255404   -1.394656
     25          1           0        5.946041    0.578730   -0.023623
     26          1           0        4.727866   -2.225014    0.066074
     27          1           0        5.453017   -1.390827    1.435704
     28          1           0        7.662874   -1.324977    0.232012
     29          1           0        6.933602   -2.163905   -1.145400
     30          1           0        7.090749   -2.992073    0.413045
     31          6           0        3.801795    0.392227    0.093140
     32          6           0        3.474006    1.738568   -0.553315
     33          6           0        2.098511    2.269474   -0.148412
     34          1           0        3.029380   -0.338032   -0.185234
     35          1           0        3.754370    0.496101    1.185800
     36          1           0        3.522405    1.631524   -1.644560
     37          1           0        4.247557    2.465712   -0.274930
     38          1           0        2.041821    2.404602    0.936543
     39          1           0        1.312549    1.565675   -0.440869
     40          1           0        1.884673    3.232770   -0.621901
 ---------------------------------------------------------------------

 SCF Done:  E(RHF) =  -470.732880031     A.U. after   11 cycles
 E2 =    -0.1582355061D+01 EUMP2 =    -0.47231523509196D+03

 The electronic state is 1-A.
 Alpha  occ. eigenvalues --  -11.21594 -11.21589 -11.21566 -11.21553 -11.21393
 Alpha  occ. eigenvalues --  -11.21384 -11.21334 -11.21324 -11.21065 -11.21062
 Alpha  occ. eigenvalues --  -11.20975 -11.20956  -1.08415  -1.08402  -1.03527
 Alpha  occ. eigenvalues --   -1.03476  -0.96010  -0.95891  -0.87067  -0.86869
 Alpha  occ. eigenvalues --   -0.79653  -0.79478  -0.78237  -0.78208  -0.65054
 Alpha  occ. eigenvalues --   -0.65027  -0.60959  -0.60854  -0.59410  -0.59267
 Alpha  occ. eigenvalues --   -0.57676  -0.57450  -0.55339  -0.55144  -0.52872
 Alpha  occ. eigenvalues --   -0.52633  -0.52380  -0.52150  -0.49992  -0.49771
 Alpha  occ. eigenvalues --   -0.47949  -0.47798  -0.46658  -0.46530  -0.45775
 Alpha  occ. eigenvalues --   -0.45753  -0.45703  -0.45674  -0.43758  -0.43702
 Alpha virt. eigenvalues --    0.22317   0.23018   0.23596   0.24876   0.26519
 Alpha virt. eigenvalues --    0.26690   0.26946   0.27466   0.27715   0.29017
 Alpha virt. eigenvalues --    0.31130   0.31342   0.31629   0.31877   0.31958

 Mulliken charges:
               1
     1  C   -0.298409
     2  C   -0.299923
     3  C   -0.478784
     4  H    0.149614
     5  H    0.149539
     6  H    0.151214
     7  H    0.151709
     8  H    0.154858
     9  H    0.155733
    10  H    0.164800
    11  C   -0.298217
    12  C   -0.299616
    13  C   -0.475683
    14  H    0.149369
    15  H    0.149588
    16  H    0.151913
    17  H    0.151924
    18  H    0.155152
    19  H    0.155123
    20  H    0.160213
    21  C   -0.298162
    22  C   -0.299650
    23  C   -0.475698
    24  H    0.149613
    25  H    0.149607
    26  H    0.151866
    27  H    0.151916
    28  H    0.155187
    29  H    0.155158
    30  H    0.160217
    31  C   -0.298350
    32  C   -0.299823
    33  C   -0.479325
    34  H    0.148799
    35  H    0.149564
    36  H    0.151503
    37  H    0.151574
    38  H    0.155127
    39  H    0.161141
    40  H    0.159618
 Sum of Mulliken charges =  -0.00000

 Dipole moment (field-independent basis, Debye):
    X=             -0.0037    Y=              0.0119    Z=              0.0064  Tot=              0.0141
 Quadrupole moment (field-independent basis, Debye-Ang):
   XX=            -86.4297   YY=            -85.3114   ZZ=            -83.2062
   XY=              0.0996   XZ=              0.2196   YZ=             -0.0150

 Normal termination of Gaussian 16 at Wed May  5 16:42:38 2021.
