 Gaussian 16, Revision A.03,
 Gaussian 16:  EM64L-G16RevA.03 25-Dec-2016

 -------------
 #p 6-31g* mp2
 -------------

 ------------------------------------------------------
 Input file generated by CHIRIPA (05-May-2021 14:51:11)
 ------------------------------------------------------
 Symbolic Z-matrix:
 Charge =  0 Multiplicity = 1

                         Standard orientation:
 ---------------------------------------------------------------------
 Center     Atomic      Atomic             Coordinates (Angstroms)
 Number     Number       Type             X           Y           Z
 ---------------------------------------------------------------------
      1          6           0        4.068079    0.002595    0.077469
      2          6           0        5.100257   -0.199219   -1.032425
      3          6           0        6.145120    0.916122   -1.077929
      4          1           0        3.567824    0.969937   -0.067243
      5          1           0        4.586443    0.060362    1.044607
      6          1           0        4.579983   -0.257972   -1.997038
      7          1           0        5.597978   -1.166278   -0.885163
      8          1           0        6.690095    0.972364   -0.130068
      9          1           0        5.666315    1.885830   -1.248260
     10          1           0        6.873045    0.751885   -1.878561
     11          6           0        3.016839   -1.104306    0.135706
     12          6           0        1.984660   -0.902492    1.245599
     13          6           0        0.939797   -2.017833    1.291103
     14          1           0        2.498474   -1.162073   -0.831432
     15          1           0        3.517093   -2.071648    0.280418
     16          1           0        1.486939    0.064567    1.098337
     17          1           0        2.504935   -0.843739    2.210212
     18          1           0        1.418603   -2.987541    1.461435
     19          1           0        0.394823   -2.074075    0.343242
     20          1           0        0.211872   -1.853596    2.091735
     21          6           0       -4.280701    0.356753   -0.079135
     22          6           0       -4.613765   -0.880623   -0.913375
     23          6           0       -6.094425   -1.256406   -0.848359
     24          1           0       -4.568912    0.175391    0.965369
     25          1           0       -4.890036    1.201409   -0.429367
     26          1           0       -4.002980   -1.722349   -0.562583
     27          1           0       -4.324551   -0.696366   -1.955977
     28          1           0       -6.716914   -0.435029   -1.217748
     29          1           0       -6.393515   -1.466842    0.183563
     30          1           0       -6.310325   -2.143601   -1.451792
     31          6           0       -2.804216    0.744959   -0.134039
     32          6           0       -2.471153    1.982335    0.700199
     33          6           0       -0.990493    2.358117    0.635185
     34          1           0       -2.194882   -0.099698    0.216193
     35          1           0       -2.516006    0.926320   -1.178543
     36          1           0       -2.760366    1.798076    1.742803
     37          1           0       -3.081938    2.824061    0.349408
     38          1           0       -0.691403    2.568554   -0.396737
     39          1           0       -0.368004    1.536740    1.004575
     40          1           0       -0.774593    3.245312    1.238618
 ---------------------------------------------------------------------

 SCF Done:  E(RHF) =  -470.733393462     A.U. after   11 cycles
 E2 =    -0.1582832524D+01 EUMP2 =    -0.47231622598625D+03

 The electronic state is 1-A.
 Alpha  occ. eigenvalues --  -11.21616 -11.21598 -11.21597 -11.21585 -11.21405
 Alpha  occ. eigenvalues --  -11.21391 -11.21346 -11.21330 -11.21116 -11.21088
 Alpha  occ. eigenvalues --  -11.21067 -11.21055  -1.08439  -1.08417  -1.03556
 Alpha  occ. eigenvalues --   -1.03514  -0.95996  -0.95976  -0.87024  -0.86981
 Alpha  occ. eigenvalues --   -0.79647  -0.79552  -0.78263  -0.78218  -0.65129
 Alpha  occ. eigenvalues --   -0.64997  -0.61073  -0.60811  -0.59380  -0.59325
 Alpha  occ. eigenvalues --   -0.57646  -0.57549  -0.55317  -0.55235  -0.52683
 Alpha  occ. eigenvalues --   -0.52680  -0.52442  -0.52395  -0.50055  -0.49821
 Alpha  occ. eigenvalues --   -0.48040  -0.47818  -0.46759  -0.46478  -0.45866
 Alpha  occ. eigenvalues --   -0.45752  -0.45712  -0.45558  -0.43790  -0.43783
 Alpha virt. eigenvalues --    0.20803   0.23123   0.23629   0.24867   0.25910
 Alpha virt. eigenvalues --    0.26409   0.26997   0.27352   0.28648   0.29001
 Alpha virt. eigenvalues --    0.30454   0.31484   0.31689   0.31786   0.32185

 Mulliken charges:
               1
     1  C   -0.298631
     2  C   -0.299664
     3  C   -0.475726
     4  H    0.150436
     5  H    0.149439
     6  H    0.151936
     7  H    0.151832
     8  H    0.155147
     9  H    0.155313
    10  H    0.160168
    11  C   -0.297587
    12  C   -0.308280
    13  C   -0.476777
    14  H    0.149764
    15  H    0.149515
    16  H    0.159637
    17  H    0.152096
    18  H    0.155641
    19  H    0.156189
    20  H    0.159503
    21  C   -0.298214
    22  C   -0.299784
    23  C   -0.475701
    24  H    0.149716
    25  H    0.149506
    26  H    0.152281
    27  H    0.151759
    28  H    0.155124
    29  H    0.155236
    30  H    0.160275
    31  C   -0.300321
    32  C   -0.298967
    33  C   -0.483869
    34  H    0.151686
    35  H    0.149220
    36  H    0.151993
    37  H    0.151999
    38  H    0.154675
    39  H    0.162816
    40  H    0.160620
 Sum of Mulliken charges =  -0.00000

 Dipole moment (field-independent basis, Debye):
    X=              0.0048    Y=             -0.0008    Z=              0.0022  Tot=              0.0053
 Quadrupole moment (field-independent basis, Debye-Ang):
   XX=            -86.1843   YY=            -84.8588   ZZ=            -83.7411
   XY=             -1.4235   XZ=              0.6054   YZ=             -0.7322

 Normal termination of Gaussian 16 at Wed May  5 23:07:06 2021.
