 Gaussian 16, Revision A.03,
 Gaussian 16:  EM64L-G16RevA.03 25-Dec-2016

 -------------
 #p 6-31g* mp2
 -------------

 ------------------------------------------------------
 Input file generated by CHIRIPA (05-May-2021 14:57:25)
 ------------------------------------------------------
 Symbolic Z-matrix:
 Charge =  0 Multiplicity = 1

                         Standard orientation:
 ---------------------------------------------------------------------
 Center     Atomic      Atomic             Coordinates (Angstroms)
 Number     Number       Type             X           Y           Z
 ---------------------------------------------------------------------
      1          6           0       -2.667771    1.992553   -0.078665
      2          6           0       -2.253628    0.732870    0.366537
      3          6           0       -3.140512   -0.347861    0.364407
      4          6           0       -4.440059   -0.132327   -0.091678
      5          6           0       -4.882605    1.110705   -0.541470
      6          6           0       -3.978627    2.177125   -0.530451
      7          1           0       -1.972179    2.826532   -0.073557
      8          1           0       -1.236200    0.586602    0.717952
      9          1           0       -2.846301   -1.333672    0.703574
     10          1           0       -5.903154    1.225676   -0.885970
     11          1           0       -4.303024    3.154299   -0.876777
     12          7           0       -5.388012   -1.268873   -0.098638
     13          8           0       -6.527574   -1.052955   -0.505352
     14          8           0       -4.973507   -2.354096    0.302752
     15          6           0        2.107421    0.829422    1.010859
     16          6           0        3.091355    1.717921    0.564805
     17          6           0        4.301034    1.239118    0.052974
     18          6           0        4.494232   -0.140491    0.001556
     19          6           0        3.533272   -1.051092    0.438194
     20          6           0        2.331126   -0.549817    0.946244
     21          1           0        1.170639    1.210098    1.406993
     22          1           0        2.920369    2.789561    0.613787
     23          1           0        5.079844    1.904581   -0.299210
     24          1           0        3.732651   -2.114055    0.376735
     25          1           0        1.568780   -1.242183    1.291937
     26          7           0        5.770878   -0.659273   -0.538294
     27          8           0        5.916660   -1.879186   -0.572930
     28          8           0        6.601557    0.163840   -0.916573
 ---------------------------------------------------------------------

 SCF Done:  E(RHF) =  -868.336250443     A.U. after   16 cycles
 E2 =    -0.2599807003D+01 EUMP2 =    -0.87093605744592D+03

 The electronic state is 1-A.
 Alpha  occ. eigenvalues --  -20.61307 -20.61299 -20.61270 -20.61264 -15.86366
 Alpha  occ. eigenvalues --  -15.86329 -11.31867 -11.31862 -11.28509 -11.28439
 Alpha  occ. eigenvalues --  -11.28433 -11.28421 -11.28367 -11.28277 -11.27632
 Alpha  occ. eigenvalues --  -11.27568 -11.27550 -11.27458  -1.60378  -1.60341
 Alpha  occ. eigenvalues --   -1.39928  -1.39889  -1.20069  -1.20062  -1.09469
 Alpha  occ. eigenvalues --   -1.09438  -1.05501  -1.05484  -0.96268  -0.96246
 Alpha  occ. eigenvalues --   -0.86918  -0.86883  -0.83107  -0.83061  -0.78113
 Alpha  occ. eigenvalues --   -0.78064  -0.72583  -0.72546  -0.71703  -0.71665
 Alpha  occ. eigenvalues --   -0.71287  -0.71177  -0.65745  -0.65728  -0.65613
 Alpha  occ. eigenvalues --   -0.65430  -0.62874  -0.62803  -0.56159  -0.55972
 Alpha  occ. eigenvalues --   -0.53831  -0.53799  -0.53597  -0.53577  -0.49353
 Alpha  occ. eigenvalues --   -0.49328  -0.49318  -0.49287  -0.45305  -0.45255
 Alpha  occ. eigenvalues --   -0.38111  -0.38046  -0.37097  -0.37068
 Alpha virt. eigenvalues --    0.04433   0.04456   0.10511   0.10576   0.15759
 Alpha virt. eigenvalues --    0.15908   0.17776   0.21991   0.24782   0.26154
 Alpha virt. eigenvalues --    0.27645   0.28931   0.29891   0.30875   0.31998

 Mulliken charges:
               1
     1  C   -0.170648
     2  C   -0.219218
     3  C   -0.170587
     4  C    0.159440
     5  C   -0.169726
     6  C   -0.218073
     7  H    0.222942
     8  H    0.215367
     9  H    0.275272
    10  H    0.278067
    11  H    0.225756
    12  N    0.488034
    13  O   -0.458168
    14  O   -0.459664
    15  C   -0.174449
    16  C   -0.217679
    17  C   -0.169994
    18  C    0.159663
    19  C   -0.169597
    20  C   -0.218008
    21  H    0.218196
    22  H    0.223272
    23  H    0.277737
    24  H    0.278790
    25  H    0.222051
    26  N    0.487891
    27  O   -0.457950
    28  O   -0.458718
 Sum of Mulliken charges =  -0.00000

 Dipole moment (field-independent basis, Debye):
    X=             -1.1242    Y=              5.7827    Z=              1.8111  Tot=              6.1630
 Quadrupole moment (field-independent basis, Debye-Ang):
   XX=           -170.6211   YY=           -100.4645   ZZ=           -105.6807
   XY=            -10.4177   XZ=              9.4935   YZ=             -2.9205

 Normal termination of Gaussian 16 at Fri May  7 04:59:22 2021.
