 Gaussian 16, Revision A.03,
 Gaussian 16:  EM64L-G16RevA.03 25-Dec-2016

 -------------
 #p 6-31g* mp2
 -------------

 ------------------------------------------------------
 Input file generated by CHIRIPA (05-May-2021 14:55:23)
 ------------------------------------------------------
 Symbolic Z-matrix:
 Charge =  0 Multiplicity = 1

                         Standard orientation:
 ---------------------------------------------------------------------
 Center     Atomic      Atomic             Coordinates (Angstroms)
 Number     Number       Type             X           Y           Z
 ---------------------------------------------------------------------
      1          6           0        4.861272    0.024409   -0.891766
      2          6           0        4.246679    1.116955   -0.271169
      3          6           0        2.998708    0.975161    0.342843
      4          6           0        2.391015   -0.279171    0.317350
      5          6           0        2.977830   -1.386705   -0.292819
      6          6           0        4.226006   -1.221737   -0.900595
      7          1           0        5.830805    0.143559   -1.366323
      8          1           0        4.737701    2.085909   -0.262768
      9          1           0        2.500394    1.804205    0.830477
     10          1           0        2.463759   -2.340166   -0.284921
     11          1           0        4.700947   -2.071980   -1.381805
     12          7           0        1.069736   -0.441549    0.964076
     13          8           0        0.555124   -1.557121    0.927877
     14          8           0        0.573748    0.549826    1.494932
     15          6           0       -3.599165   -0.292709   -0.639459
     16          6           0       -3.847721   -1.490577    0.277776
     17          6           0       -4.367505   -2.714827   -0.476430
     18          1           0       -4.532964   -0.036305   -1.158326
     19          1           0       -2.877771   -0.578865   -1.417341
     20          1           0       -4.567382   -1.201834    1.054521
     21          1           0       -2.913268   -1.744039    0.794663
     22          1           0       -3.649278   -3.030457   -1.240059
     23          1           0       -5.312788   -2.485171   -0.978724
     24          1           0       -4.538341   -3.559407    0.198373
     25          6           0       -3.079307    0.938878    0.099910
     26          6           0       -2.830751    2.136745   -0.817326
     27          6           0       -2.310967    3.360995   -0.063119
     28          1           0       -3.800700    1.225033    0.877793
     29          1           0       -2.145508    0.682473    0.618776
     30          1           0       -3.765203    2.390207   -1.334213
     31          1           0       -2.111091    1.848002   -1.594070
     32          1           0       -1.365683    3.131339    0.439175
     33          1           0       -3.029194    3.676625    0.700510
     34          1           0       -2.140130    4.205575   -0.737922
 ---------------------------------------------------------------------

 SCF Done:  E(RHF) =  -669.537126648     A.U. after   15 cycles
 E2 =    -0.2091945882D+01 EUMP2 =    -0.67162907252957D+03

 The electronic state is 1-A.
 Alpha  occ. eigenvalues --  -20.61193 -20.61187 -15.86184 -11.31423 -11.27972
 Alpha  occ. eigenvalues --  -11.27968 -11.27694 -11.26958 -11.26948 -11.20537
 Alpha  occ. eigenvalues --  -11.20237 -11.20127 -11.20077 -11.20026 -11.19828
 Alpha  occ. eigenvalues --   -1.60225  -1.39783  -1.19579  -1.09000  -1.07145
 Alpha  occ. eigenvalues --   -1.04961  -1.02366  -0.95854  -0.94827  -0.86366
 Alpha  occ. eigenvalues --   -0.85853  -0.82691  -0.78423  -0.77756  -0.76930
 Alpha  occ. eigenvalues --   -0.72397  -0.71528  -0.70687  -0.65235  -0.64964
 Alpha  occ. eigenvalues --   -0.63763  -0.62308  -0.59762  -0.58202  -0.56437
 Alpha  occ. eigenvalues --   -0.55470  -0.54113  -0.53297  -0.53051  -0.51581
 Alpha  occ. eigenvalues --   -0.51261  -0.49223  -0.49171  -0.48725  -0.46756
 Alpha  occ. eigenvalues --   -0.45526  -0.45148  -0.44518  -0.44207  -0.42584
 Alpha  occ. eigenvalues --   -0.37551  -0.36557
 Alpha virt. eigenvalues --    0.04719   0.11099   0.16213   0.21198   0.24125
 Alpha virt. eigenvalues --    0.25335   0.27123   0.27676   0.28137   0.28989
 Alpha virt. eigenvalues --    0.29205   0.30836   0.31878   0.32614   0.32914

 Mulliken charges:
               1
     1  C   -0.170231
     2  C   -0.218565
     3  C   -0.170455
     4  C    0.158457
     5  C   -0.170630
     6  C   -0.218613
     7  H    0.226551
     8  H    0.224451
     9  H    0.276104
    10  H    0.276071
    11  H    0.224315
    12  N    0.488901
    13  O   -0.459052
    14  O   -0.459486
    15  C   -0.295355
    16  C   -0.304503
    17  C   -0.474482
    18  H    0.142888
    19  H    0.145506
    20  H    0.147848
    21  H    0.170289
    22  H    0.152943
    23  H    0.150412
    24  H    0.157673
    25  C   -0.312227
    26  C   -0.296447
    27  C   -0.478024
    28  H    0.144773
    29  H    0.179046
    30  H    0.146723
    31  H    0.145882
    32  H    0.163358
    33  H    0.153472
    34  H    0.152406
 Sum of Mulliken charges =  -0.00000

 Dipole moment (field-independent basis, Debye):
    X=              5.1011    Y=              0.4586    Z=             -2.0757  Tot=              5.5263
 Quadrupole moment (field-independent basis, Debye-Ang):
   XX=            -73.5082   YY=            -91.9859   ZZ=            -96.9733
   XY=             -0.3711   XZ=             -5.0958   YZ=              2.0861

 Normal termination of Gaussian 16 at Thu May  6 14:17:22 2021.
