 Gaussian 16, Revision A.03,
 Gaussian 16:  EM64L-G16RevA.03 25-Dec-2016

 -------------
 #p 6-31g* mp2
 -------------

 ------------------------------------------------------
 Input file generated by CHIRIPA (05-May-2021 14:57:24)
 ------------------------------------------------------
 Symbolic Z-matrix:
 Charge =  0 Multiplicity = 1

                         Standard orientation:
 ---------------------------------------------------------------------
 Center     Atomic      Atomic             Coordinates (Angstroms)
 Number     Number       Type             X           Y           Z
 ---------------------------------------------------------------------
      1          6           0       -3.391221    1.735984    1.557012
      2          6           0       -3.324338    1.906668    0.170320
      3          6           0       -3.040242    0.822654   -0.665593
      4          6           0       -2.827436   -0.423620   -0.078392
      5          6           0       -2.887253   -0.625604    1.299619
      6          6           0       -3.172850    0.472620    2.116250
      7          1           0       -3.612497    2.583591    2.198880
      8          1           0       -3.493487    2.886661   -0.266768
      9          1           0       -2.982444    0.926619   -1.742286
     10          1           0       -2.713994   -1.614641    1.706075
     11          1           0       -3.224161    0.337112    3.192842
     12          7           0       -2.525882   -1.578739   -0.953129
     13          8           0       -2.342319   -2.666467   -0.411105
     14          8           0       -2.478796   -1.374521   -2.164209
     15          6           0        1.492724    2.097550   -1.052529
     16          6           0        2.844647    2.308007   -0.761787
     17          6           0        3.621320    1.282233   -0.214873
     18          6           0        3.010976    0.053009    0.029620
     19          6           0        1.666472   -0.187565   -0.249166
     20          6           0        0.908980    0.852631   -0.795743
     21          1           0        0.896836    2.899998   -1.477253
     22          1           0        3.300649    3.273800   -0.960160
     23          1           0        4.670097    1.417904    0.019816
     24          1           0        1.239920   -1.161152   -0.040358
     25          1           0       -0.140715    0.686330   -1.020529
     26          7           0        3.823052   -1.040567    0.608435
     27          8           0        3.261686   -2.114366    0.814496
     28          8           0        5.005546   -0.803205    0.845088
 ---------------------------------------------------------------------

 SCF Done:  E(RHF) =  -868.337176384     A.U. after   16 cycles
 E2 =    -0.2601717402D+01 EUMP2 =    -0.87093889378567D+03

 The electronic state is 1-A.
 Alpha  occ. eigenvalues --  -20.61669 -20.61644 -20.60530 -20.60512 -15.86693
 Alpha  occ. eigenvalues --  -15.85576 -11.32111 -11.30968 -11.28699 -11.28592
 Alpha  occ. eigenvalues --  -11.28341 -11.27701 -11.27589 -11.27559 -11.27479
 Alpha  occ. eigenvalues --  -11.27331 -11.26612 -11.26489  -1.60737  -1.59600
 Alpha  occ. eigenvalues --   -1.40282  -1.39151  -1.20281  -1.19144  -1.09649
 Alpha  occ. eigenvalues --   -1.08549  -1.05665  -1.04545  -0.96472  -0.95377
 Alpha  occ. eigenvalues --   -0.87058  -0.85950  -0.83285  -0.82206  -0.78347
 Alpha  occ. eigenvalues --   -0.77243  -0.72884  -0.72102  -0.71794  -0.71328
 Alpha  occ. eigenvalues --   -0.70925  -0.70281  -0.65902  -0.65629  -0.64800
 Alpha  occ. eigenvalues --   -0.64577  -0.62991  -0.61901  -0.56112  -0.55112
 Alpha  occ. eigenvalues --   -0.54061  -0.53723  -0.52876  -0.52559  -0.49667
 Alpha  occ. eigenvalues --   -0.49648  -0.48560  -0.48544  -0.45648  -0.44551
 Alpha  occ. eigenvalues --   -0.38231  -0.37294  -0.37122  -0.36131
 Alpha virt. eigenvalues --    0.04137   0.05288   0.10250   0.11507   0.15658
 Alpha virt. eigenvalues --    0.16769   0.20547   0.21604   0.26381   0.26995
 Alpha virt. eigenvalues --    0.27778   0.28441   0.30197   0.31019   0.31848

 Mulliken charges:
               1
     1  C   -0.169966
     2  C   -0.216586
     3  C   -0.186731
     4  C    0.156140
     5  C   -0.170847
     6  C   -0.216384
     7  H    0.229103
     8  H    0.224502
     9  H    0.275269
    10  H    0.280558
    11  H    0.228627
    12  N    0.486266
    13  O   -0.453642
    14  O   -0.460340
    15  C   -0.173812
    16  C   -0.218554
    17  C   -0.171878
    18  C    0.158352
    19  C   -0.174361
    20  C   -0.218539
    21  H    0.220841
    22  H    0.221489
    23  H    0.274689
    24  H    0.280442
    25  H    0.227652
    26  N    0.487751
    27  O   -0.457944
    28  O   -0.462098
 Sum of Mulliken charges =  -0.00000

 Dipole moment (field-independent basis, Debye):
    X=             -4.1870    Y=              7.7756    Z=              1.2566  Tot=              8.9202
 Quadrupole moment (field-independent basis, Debye-Ang):
   XX=           -113.4986   YY=           -104.9340   ZZ=           -102.9187
   XY=              2.7288   XZ=            -15.2190   YZ=             -4.1519

 Normal termination of Gaussian 16 at Fri May  7 12:39:01 2021.
