 Gaussian 16, Revision A.03,
 Gaussian 16:  EM64L-G16RevA.03 25-Dec-2016

 -------------
 #p 6-31g* mp2
 -------------

 ------------------------------------------------------
 Input file generated by CHIRIPA (05-May-2021 14:57:25)
 ------------------------------------------------------
 Symbolic Z-matrix:
 Charge =  0 Multiplicity = 1

                         Standard orientation:
 ---------------------------------------------------------------------
 Center     Atomic      Atomic             Coordinates (Angstroms)
 Number     Number       Type             X           Y           Z
 ---------------------------------------------------------------------
      1          6           0        4.922807    0.339121   -1.553207
      2          6           0        4.042677    1.337341   -1.122570
      3          6           0        3.104797    1.072841   -0.120088
      4          6           0        3.074595   -0.206679    0.432367
      5          6           0        3.938107   -1.222274    0.024686
      6          6           0        4.867810   -0.935254   -0.979216
      7          1           0        5.648198    0.553338   -2.332510
      8          1           0        4.083114    2.327946   -1.566541
      9          1           0        2.411621    1.827061    0.232155
     10          1           0        3.873830   -2.200180    0.486190
     11          1           0        5.550093   -1.712431   -1.311678
     12          7           0        2.086032   -0.498614    1.494401
     13          8           0        2.079658   -1.633960    1.965132
     14          8           0        1.336288    0.413440    1.835984
     15          6           0       -2.056515    2.353229    0.135856
     16          6           0       -3.405568    2.213169    0.477852
     17          6           0       -4.070067    1.001785    0.264463
     18          6           0       -3.351697   -0.053607   -0.295343
     19          6           0       -2.007034    0.054841   -0.646639
     20          6           0       -1.362776    1.275517   -0.424311
     21          1           0       -1.548178    3.297871    0.305093
     22          1           0       -3.946847    3.048437    0.913041
     23          1           0       -5.113956    0.865918    0.519908
     24          1           0       -1.493949   -0.795686   -1.078804
     25          1           0       -0.315032    1.381413   -0.690886
     26          7           0       -4.044458   -1.340964   -0.525980
     27          8           0       -3.389209   -2.255661   -1.020567
     28          8           0       -5.229576   -1.410922   -0.207801
 ---------------------------------------------------------------------

 SCF Done:  E(RHF) =  -868.337521839     A.U. after   16 cycles
 E2 =    -0.2600292941D+01 EUMP2 =    -0.87093781477972D+03

 The electronic state is 1-A.
 Alpha  occ. eigenvalues --  -20.61432 -20.61405 -20.60192 -20.60185 -15.86456
 Alpha  occ. eigenvalues --  -15.85243 -11.31890 -11.30532 -11.28518 -11.28368
 Alpha  occ. eigenvalues --  -11.28125 -11.27486 -11.27393 -11.27098 -11.27084
 Alpha  occ. eigenvalues --  -11.26848 -11.26133 -11.26121  -1.60487  -1.59265
 Alpha  occ. eigenvalues --   -1.40041  -1.38822  -1.20041  -1.18693  -1.09413
 Alpha  occ. eigenvalues --   -1.08112  -1.05448  -1.04098  -0.96245  -0.94963
 Alpha  occ. eigenvalues --   -0.86839  -0.85512  -0.83073  -0.81807  -0.78137
 Alpha  occ. eigenvalues --   -0.76859  -0.72668  -0.71820  -0.71470  -0.71127
 Alpha  occ. eigenvalues --   -0.70580  -0.69842  -0.65685  -0.65439  -0.64367
 Alpha  occ. eigenvalues --   -0.64140  -0.62797  -0.61468  -0.55908  -0.54640
 Alpha  occ. eigenvalues --   -0.53771  -0.53531  -0.52398  -0.52224  -0.49445
 Alpha  occ. eigenvalues --   -0.49417  -0.48224  -0.48220  -0.45418  -0.44245
 Alpha  occ. eigenvalues --   -0.38000  -0.37054  -0.36652  -0.35647
 Alpha virt. eigenvalues --    0.04369   0.05694   0.10483   0.11982   0.15903
 Alpha virt. eigenvalues --    0.17222   0.20259   0.21928   0.25851   0.27194
 Alpha virt. eigenvalues --    0.28380   0.28879   0.30454   0.31096   0.32267

 Mulliken charges:
               1
     1  C   -0.170633
     2  C   -0.217616
     3  C   -0.177584
     4  C    0.158732
     5  C   -0.170339
     6  C   -0.217361
     7  H    0.228213
     8  H    0.223905
     9  H    0.269391
    10  H    0.278963
    11  H    0.226928
    12  N    0.487314
    13  O   -0.453952
    14  O   -0.463210
    15  C   -0.168847
    16  C   -0.217993
    17  C   -0.171282
    18  C    0.159108
    19  C   -0.169568
    20  C   -0.204236
    21  H    0.221320
    22  H    0.221134
    23  H    0.273775
    24  H    0.272995
    25  H    0.215947
    26  N    0.488393
    27  O   -0.461375
    28  O   -0.462124
 Sum of Mulliken charges =  -0.00000

 Dipole moment (field-independent basis, Debye):
    X=              6.2243    Y=              5.4035    Z=             -2.8583  Tot=              8.7240
 Quadrupole moment (field-independent basis, Debye-Ang):
   XX=            -95.8300   YY=           -101.2750   ZZ=           -109.2349
   XY=            -17.0800   XZ=            -15.7315   YZ=              0.2967

 Normal termination of Gaussian 16 at Fri May  7 11:08:01 2021.
