 Gaussian 16, Revision A.03,
 Gaussian 16:  EM64L-G16RevA.03 25-Dec-2016

 -------------
 #p 6-31g* mp2
 -------------

 ------------------------------------------------------
 Input file generated by CHIRIPA (05-May-2021 14:51:12)
 ------------------------------------------------------
 Symbolic Z-matrix:
 Charge =  0 Multiplicity = 1

                         Standard orientation:
 ---------------------------------------------------------------------
 Center     Atomic      Atomic             Coordinates (Angstroms)
 Number     Number       Type             X           Y           Z
 ---------------------------------------------------------------------
      1          6           0        3.216922    0.594174    0.044839
      2          6           0        4.693665    0.989999    0.021698
      3          6           0        4.996064    2.197311    0.909812
      4          1           0        2.609260    1.450405   -0.278519
      5          1           0        2.919938    0.373059    1.079394
      6          1           0        4.988131    1.208963   -1.012691
      7          1           0        5.297896    0.132666    0.344965
      8          1           0        4.729765    1.986301    1.950562
      9          1           0        4.418240    3.068713    0.585191
     10          1           0        6.057311    2.463067    0.878357
     11          6           0        2.898900   -0.611188   -0.838164
     12          6           0        1.422157   -1.007013   -0.815023
     13          6           0        1.119758   -2.214326   -1.703137
     14          1           0        3.195884   -0.390073   -1.872719
     15          1           0        3.506562   -1.467419   -0.514806
     16          1           0        0.817926   -0.149680   -1.138290
     17          1           0        1.127691   -1.225977    0.219366
     18          1           0        1.697582   -3.085727   -1.378516
     19          1           0        1.386057   -2.003315   -2.743886
     20          1           0        0.058511   -2.480081   -1.671682
     21          6           0       -2.806067   -0.711329    0.439588
     22          6           0       -1.690031   -0.903020    1.467062
     23          6           0       -1.196706   -2.348327    1.541300
     24          1           0       -3.645232   -1.374238    0.691181
     25          1           0       -2.443548   -1.027213   -0.548437
     26          1           0       -2.054097   -0.585568    2.452606
     27          1           0       -0.853501   -0.239439    1.213104
     28          1           0       -0.807739   -2.672953    0.570772
     29          1           0       -2.015156   -3.021050    1.817318
     30          1           0       -0.399074   -2.462737    2.281945
     31          6           0       -3.309755    0.728343    0.353737
     32          6           0       -4.425791    0.920035   -0.673737
     33          6           0       -4.919116    2.365341   -0.747975
     34          1           0       -3.672274    1.044228    1.341762
     35          1           0       -2.470589    1.391251    0.102144
     36          1           0       -5.262320    0.256452   -0.419779
     37          1           0       -4.061726    0.602583   -1.659281
     38          1           0       -4.100666    3.038064   -1.023993
     39          1           0       -5.308082    2.689967    0.222552
     40          1           0       -5.716748    2.479752   -1.488621
 ---------------------------------------------------------------------

 SCF Done:  E(RHF) =  -470.731696630     A.U. after   11 cycles
 E2 =    -0.1584716361D+01 EUMP2 =    -0.47231641299090D+03

 The electronic state is 1-A.
 Alpha  occ. eigenvalues --  -11.21626 -11.21591 -11.21585 -11.21504 -11.21434
 Alpha  occ. eigenvalues --  -11.21382 -11.21374 -11.21322 -11.21143 -11.21089
 Alpha  occ. eigenvalues --  -11.21065 -11.20990  -1.08495  -1.08375  -1.03656
 Alpha  occ. eigenvalues --   -1.03425  -0.96082  -0.95908  -0.87055  -0.86962
 Alpha  occ. eigenvalues --   -0.79682  -0.79532  -0.78315  -0.78190  -0.65211
 Alpha  occ. eigenvalues --   -0.64972  -0.61321  -0.60742  -0.59344  -0.59290
 Alpha  occ. eigenvalues --   -0.57685  -0.57524  -0.55465  -0.55027  -0.52746
 Alpha  occ. eigenvalues --   -0.52652  -0.52506  -0.52305  -0.49958  -0.49883
 Alpha  occ. eigenvalues --   -0.48027  -0.47854  -0.46636  -0.46580  -0.45949
 Alpha  occ. eigenvalues --   -0.45738  -0.45707  -0.45471  -0.43813  -0.43757
 Alpha virt. eigenvalues --    0.20595   0.23101   0.23555   0.24955   0.25814
 Alpha virt. eigenvalues --    0.25980   0.26620   0.27841   0.28487   0.29294
 Alpha virt. eigenvalues --    0.30441   0.31383   0.31511   0.31831   0.32253

 Mulliken charges:
               1
     1  C   -0.298588
     2  C   -0.299598
     3  C   -0.475748
     4  H    0.149287
     5  H    0.149450
     6  H    0.152029
     7  H    0.152065
     8  H    0.155270
     9  H    0.155172
    10  H    0.160356
    11  C   -0.297291
    12  C   -0.307803
    13  C   -0.479404
    14  H    0.149248
    15  H    0.149715
    16  H    0.150987
    17  H    0.163335
    18  H    0.156027
    19  H    0.156160
    20  H    0.160976
    21  C   -0.299450
    22  C   -0.303079
    23  C   -0.484047
    24  H    0.149565
    25  H    0.149923
    26  H    0.151486
    27  H    0.156781
    28  H    0.163115
    29  H    0.155813
    30  H    0.158509
    31  C   -0.298329
    32  C   -0.299661
    33  C   -0.475664
    34  H    0.149624
    35  H    0.149579
    36  H    0.151950
    37  H    0.151797
    38  H    0.155031
    39  H    0.155209
    40  H    0.160204
 Sum of Mulliken charges =  -0.00000

 Dipole moment (field-independent basis, Debye):
    X=              0.0354    Y=             -0.0088    Z=             -0.0057  Tot=              0.0370
 Quadrupole moment (field-independent basis, Debye-Ang):
   XX=            -84.6825   YY=            -86.0979   ZZ=            -84.1222
   XY=              0.1077   XZ=             -0.6080   YZ=             -0.9456

 Normal termination of Gaussian 16 at Thu May  6 00:44:48 2021.
