 Gaussian 16, Revision A.03,
 Gaussian 16:  EM64L-G16RevA.03 25-Dec-2016

 -------------
 #p 6-31g* mp2
 -------------

 ------------------------------------------------------
 Input file generated by CHIRIPA (05-May-2021 14:53:16)
 ------------------------------------------------------
 Symbolic Z-matrix:
 Charge =  0 Multiplicity = 1

                         Standard orientation:
 ---------------------------------------------------------------------
 Center     Atomic      Atomic             Coordinates (Angstroms)
 Number     Number       Type             X           Y           Z
 ---------------------------------------------------------------------
      1          6           0        4.463929   -0.196244   -0.008819
      2          6           0        4.426860   -1.710063   -0.220861
      3          6           0        5.813252   -2.350968   -0.150485
      4          1           0        5.118151    0.257707   -0.765698
      5          1           0        4.919335    0.019163    0.967706
      6          1           0        3.970397   -1.922602   -1.196097
      7          1           0        3.772499   -2.160442    0.536493
      8          1           0        6.273044   -2.168161    0.826128
      9          1           0        6.472067   -1.928970   -0.916306
     10          1           0        5.763467   -3.433364   -0.304757
     11          6           0        3.085527    0.458872   -0.076331
     12          6           0        3.122596    1.972692    0.135712
     13          6           0        1.736204    2.613596    0.065336
     14          1           0        2.630121    0.243466   -1.052855
     15          1           0        2.431305    0.004922    0.680549
     16          1           0        3.776958    2.423071   -0.621643
     17          1           0        3.579059    2.185231    1.110947
     18          1           0        1.077389    2.191598    0.831156
     19          1           0        1.276412    2.430790   -0.911278
     20          1           0        1.785990    3.695993    0.219607
     21          6           0       -3.906163   -2.436910    0.060051
     22          6           0       -3.284295   -1.922187    1.202355
     23          6           0       -2.750419   -0.630091    1.198905
     24          6           0       -2.856472    0.123084    0.030672
     25          6           0       -3.470111   -0.361642   -1.123356
     26          6           0       -3.996926   -1.656371   -1.097120
     27          1           0       -4.318149   -3.441665    0.071580
     28          1           0       -3.212363   -2.526099    2.102444
     29          1           0       -2.263744   -0.206809    2.069192
     30          1           0       -3.526589    0.264240   -2.005682
     31          1           0       -4.479327   -2.053513   -1.985721
     32          7           0       -2.295019    1.492363    0.014958
     33          8           0       -2.401307    2.135757   -1.026860
     34          8           0       -1.759293    1.896281    1.044756
 ---------------------------------------------------------------------

 SCF Done:  E(RHF) =  -669.535992378     A.U. after   15 cycles
 E2 =    -0.2091143331D+01 EUMP2 =    -0.67162713570857D+03

 The electronic state is 1-A.
 Alpha  occ. eigenvalues --  -20.60880 -20.60875 -15.85907 -11.31254 -11.27822
 Alpha  occ. eigenvalues --  -11.27816 -11.27560 -11.26833 -11.26823 -11.21342
 Alpha  occ. eigenvalues --  -11.20961 -11.20879 -11.20789 -11.20680 -11.19618
 Alpha  occ. eigenvalues --   -1.59931  -1.39490  -1.19423  -1.08822  -1.07884
 Alpha  occ. eigenvalues --   -1.04824  -1.02877  -0.95664  -0.95288  -0.86298
 Alpha  occ. eigenvalues --   -0.86222  -0.82497  -0.78971  -0.77664  -0.77545
 Alpha  occ. eigenvalues --   -0.72132  -0.71244  -0.70534  -0.65080  -0.64828
 Alpha  occ. eigenvalues --   -0.64525  -0.62173  -0.60277  -0.58745  -0.56904
 Alpha  occ. eigenvalues --   -0.55328  -0.54574  -0.53155  -0.52918  -0.51965
 Alpha  occ. eigenvalues --   -0.51712  -0.49261  -0.48886  -0.48872  -0.47252
 Alpha  occ. eigenvalues --   -0.46054  -0.45259  -0.45144  -0.44710  -0.43142
 Alpha  occ. eigenvalues --   -0.37401  -0.36426
 Alpha virt. eigenvalues --    0.04956   0.11228   0.16428   0.21352   0.23353
 Alpha virt. eigenvalues --    0.25015   0.27142   0.27284   0.27938   0.28204
 Alpha virt. eigenvalues --    0.28853   0.30912   0.32039   0.32253   0.32555

 Mulliken charges:
               1
     1  C   -0.297519
     2  C   -0.298791
     3  C   -0.475272
     4  H    0.149295
     5  H    0.148726
     6  H    0.150766
     7  H    0.149568
     8  H    0.154856
     9  H    0.155271
    10  H    0.158181
    11  C   -0.296980
    12  C   -0.300635
    13  C   -0.478708
    14  H    0.147853
    15  H    0.146929
    16  H    0.148326
    17  H    0.148660
    18  H    0.170254
    19  H    0.155645
    20  H    0.159399
    21  C   -0.170645
    22  C   -0.218455
    23  C   -0.170795
    24  C    0.158799
    25  C   -0.170839
    26  C   -0.218508
    27  H    0.225855
    28  H    0.223630
    29  H    0.275281
    30  H    0.275728
    31  H    0.223678
    32  N    0.488988
    33  O   -0.459164
    34  O   -0.459375
 Sum of Mulliken charges =  -0.00000

 Dipole moment (field-independent basis, Debye):
    X=             -2.2281    Y=             -4.7518    Z=              0.0744  Tot=              5.2487
 Quadrupole moment (field-independent basis, Debye-Ang):
   XX=            -85.4037   YY=            -96.8613   ZZ=            -89.2910
   XY=             14.2457   XZ=              1.3481   YZ=             -0.8479

 Normal termination of Gaussian 16 at Thu May  6 07:30:16 2021.
