 Gaussian 16, Revision A.03,
 Gaussian 16:  EM64L-G16RevA.03 25-Dec-2016

 -------------
 #p 6-31g* mp2
 -------------

 ------------------------------------------------------
 Input file generated by CHIRIPA (05-May-2021 14:53:18)
 ------------------------------------------------------
 Symbolic Z-matrix:
 Charge =  0 Multiplicity = 1

                         Standard orientation:
 ---------------------------------------------------------------------
 Center     Atomic      Atomic             Coordinates (Angstroms)
 Number     Number       Type             X           Y           Z
 ---------------------------------------------------------------------
      1          6           0        3.219042    0.760943    0.291892
      2          6           0        2.129727    1.576030   -0.405969
      3          6           0        1.858438    2.913214    0.284057
      4          1           0        2.923791    0.583594    1.335118
      5          1           0        4.144819    1.351893    0.325202
      6          1           0        1.206666    0.983180   -0.439183
      7          1           0        2.427517    1.751296   -1.447707
      8          1           0        2.764681    3.527149    0.304246
      9          1           0        1.536894    2.754669    1.318501
     10          1           0        1.076413    3.479537   -0.231284
     11          6           0        3.501592   -0.578486   -0.386211
     12          6           0        4.590908   -1.393573    0.311650
     13          6           0        4.862197   -2.730757   -0.378376
     14          1           0        2.575815   -1.169436   -0.419521
     15          1           0        3.796843   -0.401137   -1.429436
     16          1           0        4.293117   -1.568838    1.353389
     17          1           0        5.513968   -0.800723    0.344864
     18          1           0        5.183740   -2.572212   -1.412820
     19          1           0        3.955953   -3.344691   -0.398565
     20          1           0        5.644221   -3.297080    0.136965
     21          6           0       -3.745634   -2.330818    0.108328
     22          6           0       -3.761538   -1.578596   -1.070837
     23          6           0       -3.143987   -0.325373   -1.121934
     24          6           0       -2.516933    0.147173    0.029932
     25          6           0       -2.484026   -0.578530    1.219706
     26          6           0       -3.108052   -1.829269    1.247828
     27          1           0       -4.227878   -3.303386    0.139098
     28          1           0       -4.255936   -1.965594   -1.957317
     29          1           0       -3.141245    0.277932   -2.021618
     30          1           0       -1.983209   -0.166281    2.087262
     31          1           0       -3.094123   -2.411257    2.164965
     32          7           0       -1.859731    1.472588   -0.012000
     33          8           0       -1.314030    1.866554    1.016416
     34          8           0       -1.902761    2.092386   -1.072489
 ---------------------------------------------------------------------

 SCF Done:  E(RHF) =  -669.535892140     A.U. after   15 cycles
 E2 =    -0.2092405934D+01 EUMP2 =    -0.67162829807379D+03

 The electronic state is 1-A.
 Alpha  occ. eigenvalues --  -20.60980 -20.60975 -15.85990 -11.31320 -11.27882
 Alpha  occ. eigenvalues --  -11.27874 -11.27614 -11.26883 -11.26873 -11.21231
 Alpha  occ. eigenvalues --  -11.20851 -11.20832 -11.20562 -11.20420 -11.19306
 Alpha  occ. eigenvalues --   -1.60031  -1.39587  -1.19485  -1.08890  -1.07714
 Alpha  occ. eigenvalues --   -1.04879  -1.02674  -0.95738  -0.95092  -0.86281
 Alpha  occ. eigenvalues --   -0.86119  -0.82565  -0.78814  -0.77621  -0.77467
 Alpha  occ. eigenvalues --   -0.72216  -0.71366  -0.70592  -0.65140  -0.64882
 Alpha  occ. eigenvalues --   -0.64353  -0.62226  -0.60071  -0.58570  -0.56682
 Alpha  occ. eigenvalues --   -0.55382  -0.54408  -0.53206  -0.52970  -0.51758
 Alpha  occ. eigenvalues --   -0.51539  -0.49231  -0.48972  -0.48765  -0.47092
 Alpha  occ. eigenvalues --   -0.45882  -0.45057  -0.44934  -0.44885  -0.42921
 Alpha  occ. eigenvalues --   -0.37463  -0.36479
 Alpha virt. eigenvalues --    0.04887   0.11174   0.16362   0.21300   0.23472
 Alpha virt. eigenvalues --    0.25214   0.27166   0.27254   0.28033   0.28217
 Alpha virt. eigenvalues --    0.29012   0.30848   0.32038   0.32311   0.32466

 Mulliken charges:
               1
     1  C   -0.297885
     2  C   -0.295416
     3  C   -0.471971
     4  H    0.147886
     5  H    0.147791
     6  H    0.145698
     7  H    0.147958
     8  H    0.142236
     9  H    0.160985
    10  H    0.175101
    11  C   -0.296933
    12  C   -0.298770
    13  C   -0.475000
    14  H    0.145546
    15  H    0.148812
    16  H    0.150147
    17  H    0.151993
    18  H    0.154935
    19  H    0.152669
    20  H    0.158642
    21  C   -0.170513
    22  C   -0.218568
    23  C   -0.170545
    24  C    0.157544
    25  C   -0.171044
    26  C   -0.218589
    27  H    0.226144
    28  H    0.224005
    29  H    0.276098
    30  H    0.275623
    31  H    0.223905
    32  N    0.488625
    33  O   -0.457929
    34  O   -0.459181
 Sum of Mulliken charges =  -0.00000

 Dipole moment (field-independent basis, Debye):
    X=             -2.6224    Y=             -4.5505    Z=              0.1732  Tot=              5.2549
 Quadrupole moment (field-independent basis, Debye-Ang):
   XX=            -83.8533   YY=            -97.4489   ZZ=            -90.0190
   XY=             12.1930   XZ=              0.8211   YZ=             -1.3413

 Normal termination of Gaussian 16 at Thu May  6 09:11:31 2021.
