 Gaussian 16, Revision A.03,
 Gaussian 16:  EM64L-G16RevA.03 25-Dec-2016

 -------------
 #p 6-31g* mp2
 -------------

 ------------------------------------------------------
 Input file generated by CHIRIPA (05-May-2021 14:55:22)
 ------------------------------------------------------
 Symbolic Z-matrix:
 Charge =  0 Multiplicity = 1

                         Standard orientation:
 ---------------------------------------------------------------------
 Center     Atomic      Atomic             Coordinates (Angstroms)
 Number     Number       Type             X           Y           Z
 ---------------------------------------------------------------------
      1          6           0       -1.210727   -1.832537    1.226145
      2          6           0       -0.617671   -0.795883    0.498027
      3          6           0       -1.406369    0.177402   -0.122633
      4          6           0       -2.791235    0.083018    0.005927
      5          6           0       -3.411837   -0.937645    0.724531
      6          6           0       -2.603461   -1.899990    1.336878
      7          1           0       -0.590404   -2.584359    1.705060
      8          1           0        0.463690   -0.740985    0.410344
      9          1           0       -0.973475    0.990692   -0.692352
     10          1           0       -4.492471   -0.965883    0.794167
     11          1           0       -3.066785   -2.703942    1.901712
     12          7           0       -3.636610    1.107600   -0.646738
     13          8           0       -4.854416    1.002085   -0.518474
     14          8           0       -3.065402    1.996783   -1.274203
     15          6           0        3.476969   -0.643712   -0.051913
     16          6           0        2.986091   -1.460229   -1.247875
     17          6           0        3.157824   -2.966076   -1.046070
     18          1           0        4.536004   -0.872283    0.130144
     19          1           0        2.930093   -0.958776    0.847562
     20          1           0        3.532754   -1.142752   -2.145084
     21          1           0        1.928152   -1.229544   -1.427225
     22          1           0        2.598425   -3.303280   -0.167453
     23          1           0        4.212144   -3.215995   -0.889391
     24          1           0        2.800538   -3.530630   -1.912954
     25          6           0        3.311913    0.863477   -0.238631
     26          6           0        3.802792    1.679994    0.957331
     27          6           0        3.631060    3.185842    0.755527
     28          1           0        3.858791    1.178542   -1.138106
     29          1           0        2.252878    1.092048   -0.420688
     30          1           0        4.860731    1.449310    1.136682
     31          1           0        3.256129    1.362517    1.854541
     32          1           0        2.576739    3.435761    0.598846
     33          1           0        4.190458    3.523046   -0.123090
     34          1           0        3.988345    3.750396    1.622409
 ---------------------------------------------------------------------

 SCF Done:  E(RHF) =  -669.534996817     A.U. after   15 cycles
 E2 =    -0.2092750432D+01 EUMP2 =    -0.67162774724836D+03

 The electronic state is 1-A.
 Alpha  occ. eigenvalues --  -20.60758 -20.60753 -15.85811 -11.31182 -11.27754
 Alpha  occ. eigenvalues --  -11.27749 -11.27490 -11.26767 -11.26707 -11.22577
 Alpha  occ. eigenvalues --  -11.22446 -11.22330 -11.22265 -11.21983 -11.21543
 Alpha  occ. eigenvalues --   -1.59834  -1.39387  -1.19354  -1.09379  -1.08745
 Alpha  occ. eigenvalues --   -1.04761  -1.04339  -0.96790  -0.95582  -0.87801
 Alpha  occ. eigenvalues --   -0.86158  -0.82420  -0.80410  -0.79168  -0.77470
 Alpha  occ. eigenvalues --   -0.72030  -0.71157  -0.70466  -0.66300  -0.65005
 Alpha  occ. eigenvalues --   -0.64607  -0.62162  -0.61626  -0.60152  -0.58386
 Alpha  occ. eigenvalues --   -0.56110  -0.55247  -0.53437  -0.53199  -0.53076
 Alpha  occ. eigenvalues --   -0.52838  -0.50726  -0.48799  -0.48785  -0.48690
 Alpha  occ. eigenvalues --   -0.47479  -0.46666  -0.46655  -0.44792  -0.44627
 Alpha  occ. eigenvalues --   -0.37331  -0.36352
 Alpha virt. eigenvalues --    0.05063   0.11236   0.16491   0.18333   0.22917
 Alpha virt. eigenvalues --    0.23406   0.24762   0.25630   0.26899   0.28633
 Alpha virt. eigenvalues --    0.29680   0.30826   0.31132   0.31417   0.31839

 Mulliken charges:
               1
     1  C   -0.173751
     2  C   -0.227120
     3  C   -0.175428
     4  C    0.159260
     5  C   -0.170983
     6  C   -0.218395
     7  H    0.225632
     8  H    0.239773
     9  H    0.275742
    10  H    0.275633
    11  H    0.223442
    12  N    0.488091
    13  O   -0.460528
    14  O   -0.460383
    15  C   -0.304540
    16  C   -0.305215
    17  C   -0.474052
    18  H    0.157296
    19  H    0.140969
    20  H    0.158815
    21  H    0.148712
    22  H    0.148188
    23  H    0.158957
    24  H    0.164984
    25  C   -0.299465
    26  C   -0.300076
    27  C   -0.476514
    28  H    0.155745
    29  H    0.142461
    30  H    0.154371
    31  H    0.150970
    32  H    0.157147
    33  H    0.157309
    34  H    0.162953
 Sum of Mulliken charges =  -0.00000

 Dipole moment (field-independent basis, Debye):
    X=              3.2021    Y=             -3.5621    Z=              2.2378  Tot=              5.2868
 Quadrupole moment (field-independent basis, Debye-Ang):
   XX=           -106.2664   YY=            -95.7452   ZZ=            -94.5578
   XY=             12.8347   XZ=             -8.7728   YZ=             -0.6518

 Normal termination of Gaussian 16 at Thu May  6 12:35:32 2021.
