 Gaussian 16, Revision A.03,
 Gaussian 16:  EM64L-G16RevA.03 25-Dec-2016

 -------------
 #p 6-31g* mp2
 -------------

 ------------------------------------------------------
 Input file generated by CHIRIPA (05-May-2021 14:57:25)
 ------------------------------------------------------
 Symbolic Z-matrix:
 Charge =  0 Multiplicity = 1

                         Standard orientation:
 ---------------------------------------------------------------------
 Center     Atomic      Atomic             Coordinates (Angstroms)
 Number     Number       Type             X           Y           Z
 ---------------------------------------------------------------------
      1          6           0        2.550813   -2.212325    0.279537
      2          6           0        3.716414   -1.883337    0.979296
      3          6           0        4.333185   -0.643329    0.788195
      4          6           0        3.754674    0.247723   -0.114380
      5          6           0        2.594029   -0.050797   -0.826474
      6          6           0        1.994322   -1.296619   -0.619530
      7          1           0        2.078318   -3.177852    0.434142
      8          1           0        4.150818   -2.592518    1.678153
      9          1           0        5.236146   -0.362820    1.316773
     10          1           0        2.184446    0.676897   -1.516490
     11          1           0        1.089163   -1.549409   -1.164351
     12          7           0        4.398590    1.563542   -0.325076
     13          8           0        3.869120    2.331044   -1.125851
     14          8           0        5.420567    1.802464    0.314545
     15          6           0       -5.190936    1.943364    0.378657
     16          6           0       -5.515735    0.933001   -0.532493
     17          6           0       -4.668580   -0.165471   -0.706372
     18          6           0       -3.499437   -0.221721    0.050748
     19          6           0       -3.148229    0.768971    0.966430
     20          6           0       -4.010300    1.858274    1.123896
     21          1           0       -5.854820    2.793124    0.507356
     22          1           0       -6.431970    0.996445   -1.112607
     23          1           0       -4.895672   -0.961743   -1.404798
     24          1           0       -2.227909    0.677924    1.530470
     25          1           0       -3.755505    2.641460    1.832235
     26          7           0       -2.594696   -1.379771   -0.124642
     27          8           0       -1.570564   -1.405855    0.554410
     28          8           0       -2.926823   -2.239441   -0.937844
 ---------------------------------------------------------------------

 SCF Done:  E(RHF) =  -868.340159523     A.U. after   16 cycles
 E2 =    -0.2598346231D+01 EUMP2 =    -0.87093850575367D+03

 The electronic state is 1-A.
 Alpha  occ. eigenvalues --  -20.61614 -20.61605 -20.60193 -20.60187 -15.86629
 Alpha  occ. eigenvalues --  -15.85235 -11.31705 -11.30358 -11.28243 -11.28227
 Alpha  occ. eigenvalues --  -11.27922 -11.27189 -11.27167 -11.26910 -11.26831
 Alpha  occ. eigenvalues --  -11.26451 -11.25873 -11.25656  -1.60688  -1.59274
 Alpha  occ. eigenvalues --   -1.40242  -1.38834  -1.19852  -1.18475  -1.09302
 Alpha  occ. eigenvalues --   -1.07888  -1.05206  -1.03834  -0.96184  -0.94779
 Alpha  occ. eigenvalues --   -0.86618  -0.85221  -0.83020  -0.81623  -0.78102
 Alpha  occ. eigenvalues --   -0.76723  -0.72860  -0.71995  -0.71458  -0.70950
 Alpha  occ. eigenvalues --   -0.70595  -0.69537  -0.65504  -0.65202  -0.64109
 Alpha  occ. eigenvalues --   -0.63789  -0.62554  -0.61185  -0.55716  -0.54269
 Alpha  occ. eigenvalues --   -0.53555  -0.53290  -0.52181  -0.51901  -0.49632
 Alpha  occ. eigenvalues --   -0.49602  -0.48229  -0.48188  -0.45702  -0.44295
 Alpha  occ. eigenvalues --   -0.37815  -0.36796  -0.36396  -0.35429
 Alpha virt. eigenvalues --    0.04384   0.05786   0.10862   0.12232   0.15947
 Alpha virt. eigenvalues --    0.17384   0.21050   0.22478   0.26982   0.27892
 Alpha virt. eigenvalues --    0.28367   0.29311   0.30642   0.32051   0.32157

 Mulliken charges:
               1
     1  C   -0.169667
     2  C   -0.219614
     3  C   -0.173509
     4  C    0.157488
     5  C   -0.175687
     6  C   -0.211901
     7  H    0.230963
     8  H    0.220440
     9  H    0.271855
    10  H    0.271236
    11  H    0.235345
    12  N    0.488116
    13  O   -0.463736
    14  O   -0.463172
    15  C   -0.169634
    16  C   -0.218546
    17  C   -0.170768
    18  C    0.156890
    19  C   -0.170838
    20  C   -0.218327
    21  H    0.228040
    22  H    0.225130
    23  H    0.275643
    24  H    0.276780
    25  H    0.226416
    26  N    0.487618
    27  O   -0.465859
    28  O   -0.460702
 Sum of Mulliken charges =  -0.00000

 Dipole moment (field-independent basis, Debye):
    X=             -5.9311    Y=             -0.6448    Z=              1.3736  Tot=              6.1221
 Quadrupole moment (field-independent basis, Debye-Ang):
   XX=            -96.4336   YY=           -108.8345   ZZ=           -101.3701
   XY=            -32.3115   XZ=              5.8105   YZ=              1.5945

 Normal termination of Gaussian 16 at Fri May  7 06:35:47 2021.
