 Gaussian 16, Revision A.03,
 Gaussian 16:  EM64L-G16RevA.03 25-Dec-2016

 -------------
 #p 6-31g* mp2
 -------------

 ------------------------------------------------------
 Input file generated by CHIRIPA (05-May-2021 14:51:12)
 ------------------------------------------------------
 Symbolic Z-matrix:
 Charge =  0 Multiplicity = 1

                         Standard orientation:
 ---------------------------------------------------------------------
 Center     Atomic      Atomic             Coordinates (Angstroms)
 Number     Number       Type             X           Y           Z
 ---------------------------------------------------------------------
      1          6           0        3.065480    0.995012    0.274506
      2          6           0        2.327811    2.054831   -0.544405
      3          6           0        1.783273    3.194488    0.317252
      4          1           0        2.384488    0.588630    1.034801
      5          1           0        3.892469    1.472000    0.818533
      6          1           0        1.503310    1.575740   -1.087807
      7          1           0        3.010580    2.458601   -1.302964
      8          1           0        2.597135    3.698697    0.848291
      9          1           0        1.081300    2.810821    1.064670
     10          1           0        1.259688    3.940796   -0.288342
     11          6           0        3.615677   -0.150829   -0.572878
     12          6           0        4.353346   -1.210648    0.246033
     13          6           0        4.897884   -2.350305   -0.615624
     14          1           0        2.788688   -0.627817   -1.116905
     15          1           0        4.296669    0.255553   -1.333173
     16          1           0        3.670577   -1.614418    1.004592
     17          1           0        5.177847   -0.731558    0.789435
     18          1           0        5.599857   -1.966638   -1.363042
     19          1           0        4.084022   -2.854514   -1.146663
     20          1           0        5.421469   -3.096613   -0.010030
     21          6           0       -2.623323   -0.165714    0.206177
     22          6           0       -1.649870   -1.205971    0.761371
     23          6           0       -0.218945   -0.678174    0.869447
     24          1           0       -2.275762    0.160979   -0.783479
     25          1           0       -2.607132    0.722979    0.852208
     26          1           0       -1.668920   -2.092984    0.115258
     27          1           0       -1.999893   -1.530366    1.749736
     28          1           0       -0.178806    0.193649    1.530442
     29          1           0        0.154048   -0.372166   -0.113323
     30          1           0        0.460168   -1.438044    1.268525
     31          6           0       -4.057834   -0.678469    0.092195
     32          6           0       -5.031287    0.361788   -0.462998
     33          6           0       -6.462212   -0.166009   -0.571075
     34          1           0       -4.074025   -1.567162   -0.553836
     35          1           0       -4.405395   -1.005162    1.081851
     36          1           0       -4.681264    0.686183   -1.451364
     37          1           0       -5.012236    1.248800    0.183113
     38          1           0       -6.835204   -0.472018    0.411695
     39          1           0       -6.502351   -1.037831   -1.232071
     40          1           0       -7.141325    0.593861   -0.970153
 ---------------------------------------------------------------------

 SCF Done:  E(RHF) =  -470.732572220     A.U. after   11 cycles
 E2 =    -0.1584152048D+01 EUMP2 =    -0.47231672426823D+03

 The electronic state is 1-A.
 Alpha  occ. eigenvalues --  -11.21680 -11.21634 -11.21541 -11.21504 -11.21464
 Alpha  occ. eigenvalues --  -11.21401 -11.21290 -11.21201 -11.21175 -11.21096
 Alpha  occ. eigenvalues --  -11.21029 -11.21002  -1.08499  -1.08325  -1.03610
 Alpha  occ. eigenvalues --   -1.03444  -0.96073  -0.95886  -0.87106  -0.86899
 Alpha  occ. eigenvalues --   -0.79687  -0.79514  -0.78308  -0.78137  -0.65152
 Alpha  occ. eigenvalues --   -0.64957  -0.61002  -0.60887  -0.59422  -0.59268
 Alpha  occ. eigenvalues --   -0.57642  -0.57510  -0.55407  -0.55147  -0.52762
 Alpha  occ. eigenvalues --   -0.52608  -0.52473  -0.52312  -0.50033  -0.49821
 Alpha  occ. eigenvalues --   -0.48056  -0.47757  -0.46782  -0.46502  -0.45931
 Alpha  occ. eigenvalues --   -0.45805  -0.45563  -0.45497  -0.43821  -0.43688
 Alpha virt. eigenvalues --    0.20480   0.22967   0.23736   0.24732   0.25013
 Alpha virt. eigenvalues --    0.26052   0.26937   0.27547   0.27975   0.29436
 Alpha virt. eigenvalues --    0.30163   0.31013   0.31723   0.32184   0.32303

 Mulliken charges:
               1
     1  C   -0.304655
     2  C   -0.300514
     3  C   -0.476714
     4  H    0.160290
     5  H    0.148796
     6  H    0.152153
     7  H    0.151457
     8  H    0.154920
     9  H    0.155795
    10  H    0.159790
    11  C   -0.298827
    12  C   -0.300179
    13  C   -0.475651
    14  H    0.149651
    15  H    0.149052
    16  H    0.152070
    17  H    0.151816
    18  H    0.155075
    19  H    0.154962
    20  H    0.159937
    21  C   -0.298428
    22  C   -0.300977
    23  C   -0.481972
    24  H    0.149496
    25  H    0.149739
    26  H    0.152116
    27  H    0.152262
    28  H    0.156269
    29  H    0.160741
    30  H    0.160879
    31  C   -0.298334
    32  C   -0.299697
    33  C   -0.475752
    34  H    0.149619
    35  H    0.149807
    36  H    0.152041
    37  H    0.152101
    38  H    0.155232
    39  H    0.155219
    40  H    0.160413
 Sum of Mulliken charges =  -0.00000

 Dipole moment (field-independent basis, Debye):
    X=             -0.0543    Y=             -0.0161    Z=              0.0222  Tot=              0.0608
 Quadrupole moment (field-independent basis, Debye-Ang):
   XX=            -85.5105   YY=            -85.3920   ZZ=            -84.1164
   XY=              0.5081   XZ=             -0.1753   YZ=             -0.2041

 Normal termination of Gaussian 16 at Wed May  5 21:30:18 2021.
