 Gaussian 16, Revision A.03,
 Gaussian 16:  EM64L-G16RevA.03 25-Dec-2016

 -------------
 #p 6-31g* mp2
 -------------

 ------------------------------------------------------
 Input file generated by CHIRIPA (05-May-2021 14:55:22)
 ------------------------------------------------------
 Symbolic Z-matrix:
 Charge =  0 Multiplicity = 1

                         Standard orientation:
 ---------------------------------------------------------------------
 Center     Atomic      Atomic             Coordinates (Angstroms)
 Number     Number       Type             X           Y           Z
 ---------------------------------------------------------------------
      1          6           0       -2.624713    0.787477   -2.249015
      2          6           0       -3.486909    1.069960   -1.184429
      3          6           0       -3.225767    0.566692    0.093489
      4          6           0       -2.088274   -0.219155    0.271940
      5          6           0       -1.210180   -0.518238   -0.768631
      6          6           0       -1.491099   -0.004325   -2.038090
      7          1           0       -2.835256    1.182563   -3.238446
      8          1           0       -4.368033    1.684602   -1.345305
      9          1           0       -3.876426    0.769817    0.935392
     10          1           0       -0.339672   -1.133912   -0.577371
     11          1           0       -0.819742   -0.225336   -2.863002
     12          7           0       -1.801346   -0.757577    1.620337
     13          8           0       -0.792594   -1.447403    1.751473
     14          8           0       -2.590637   -0.479571    2.520543
     15          6           0        2.716564    0.718413    0.464590
     16          6           0        2.767009    2.127162   -0.127751
     17          6           0        2.732317    3.219602    0.941439
     18          1           0        1.804661    0.613801    1.068273
     19          1           0        3.563452    0.586782    1.152233
     20          1           0        1.921062    2.255624   -0.815127
     21          1           0        3.678803    2.228372   -0.730249
     22          1           0        3.584042    3.119731    1.622020
     23          1           0        1.816315    3.147139    1.536660
     24          1           0        2.769316    4.218636    0.495992
     25          6           0        2.750477   -0.384548   -0.591844
     26          6           0        2.700033   -1.793296    0.000497
     27          6           0        2.734725   -2.885737   -1.068692
     28          1           0        1.903591   -0.252917   -1.279486
     29          1           0        3.662381   -0.279935   -1.195526
     30          1           0        1.788239   -1.894506    0.602996
     31          1           0        3.545980   -1.921758    0.687874
     32          1           0        3.650727   -2.813273   -1.663913
     33          1           0        1.882999   -2.785867   -1.749273
     34          1           0        2.697725   -3.884771   -0.623245
 ---------------------------------------------------------------------

 SCF Done:  E(RHF) =  -669.535773093     A.U. after   15 cycles
 E2 =    -0.2093934269D+01 EUMP2 =    -0.67162970736195D+03

 The electronic state is 1-A.
 Alpha  occ. eigenvalues --  -20.60986 -20.60979 -15.86012 -11.31297 -11.27868
 Alpha  occ. eigenvalues --  -11.27837 -11.27596 -11.26867 -11.26856 -11.21558
 Alpha  occ. eigenvalues --  -11.21479 -11.21316 -11.21204 -11.21131 -11.20976
 Alpha  occ. eigenvalues --   -1.60042  -1.39600  -1.19472  -1.08880  -1.08381
 Alpha  occ. eigenvalues --   -1.04865  -1.03468  -0.95944  -0.95726  -0.86958
 Alpha  occ. eigenvalues --   -0.86264  -0.82569  -0.79502  -0.78172  -0.77631
 Alpha  occ. eigenvalues --   -0.72244  -0.71353  -0.70597  -0.65251  -0.65128
 Alpha  occ. eigenvalues --   -0.64704  -0.62220  -0.60802  -0.59292  -0.57530
 Alpha  occ. eigenvalues --   -0.55374  -0.55260  -0.53188  -0.52945  -0.52611
 Alpha  occ. eigenvalues --   -0.52356  -0.49895  -0.49042  -0.48981  -0.47811
 Alpha  occ. eigenvalues --   -0.46514  -0.45744  -0.45653  -0.44923  -0.43718
 Alpha  occ. eigenvalues --   -0.37447  -0.36445
 Alpha virt. eigenvalues --    0.04865   0.11147   0.16307   0.19456   0.23155
 Alpha virt. eigenvalues --    0.23976   0.25697   0.26987   0.27999   0.28084
 Alpha virt. eigenvalues --    0.29647   0.30557   0.31513   0.31792   0.32096

 Mulliken charges:
               1
     1  C   -0.170145
     2  C   -0.218959
     3  C   -0.169965
     4  C    0.155158
     5  C   -0.173668
     6  C   -0.222830
     7  H    0.226308
     8  H    0.223984
     9  H    0.275845
    10  H    0.287818
    11  H    0.225009
    12  N    0.491498
    13  O   -0.465870
    14  O   -0.458483
    15  C   -0.300770
    16  C   -0.299553
    17  C   -0.475635
    18  H    0.158400
    19  H    0.152086
    20  H    0.148150
    21  H    0.150406
    22  H    0.156495
    23  H    0.157280
    24  H    0.158401
    25  C   -0.299168
    26  C   -0.319840
    27  C   -0.473997
    28  H    0.134614
    29  H    0.149747
    30  H    0.178842
    31  H    0.156014
    32  H    0.154613
    33  H    0.143052
    34  H    0.165163
 Sum of Mulliken charges =  -0.00000

 Dipole moment (field-independent basis, Debye):
    X=             -1.0885    Y=              1.8604    Z=             -4.5233  Tot=              5.0106
 Quadrupole moment (field-independent basis, Debye-Ang):
   XX=            -86.0885   YY=            -96.1026   ZZ=            -97.7310
   XY=             -6.1514   XZ=              8.6841   YZ=              1.5951

 Normal termination of Gaussian 16 at Wed May  5 22:18:50 2021.
