 Gaussian 16, Revision A.03,
 Gaussian 16:  EM64L-G16RevA.03 25-Dec-2016

 -------------
 #p 6-31g* mp2
 -------------

 ------------------------------------------------------
 Input file generated by CHIRIPA (05-May-2021 14:55:22)
 ------------------------------------------------------
 Symbolic Z-matrix:
 Charge =  0 Multiplicity = 1

                         Standard orientation:
 ---------------------------------------------------------------------
 Center     Atomic      Atomic             Coordinates (Angstroms)
 Number     Number       Type             X           Y           Z
 ---------------------------------------------------------------------
      1          6           0        1.664745    1.258535    1.327388
      2          6           0        1.727799   -0.121624    1.108971
      3          6           0        2.801725   -0.681629    0.410670
      4          6           0        3.799676    0.171819   -0.057316
      5          6           0        3.765268    1.550755    0.144281
      6          6           0        2.681887    2.088856    0.845196
      7          1           0        0.826821    1.685052    1.870861
      8          1           0        0.939302   -0.768884    1.482298
      9          1           0        2.875611   -1.746705    0.227445
     10          1           0        4.566341    2.170462   -0.239988
     11          1           0        2.635547    3.161061    1.013340
     12          7           0        4.941598   -0.409439   -0.797960
     13          8           0        5.808079    0.363989   -1.200025
     14          8           0        4.948533   -1.627450   -0.962388
     15          6           0       -5.381639   -0.257828   -0.098556
     16          6           0       -5.833843    1.030848   -0.786167
     17          6           0       -7.354748    1.186065   -0.809601
     18          1           0       -5.831524   -1.117859   -0.613237
     19          1           0       -5.768438   -0.271651    0.929836
     20          1           0       -5.445146    1.042877   -1.812512
     21          1           0       -5.382676    1.887901   -0.269907
     22          1           0       -7.756312    1.199890    0.208807
     23          1           0       -7.819137    0.350066   -1.342564
     24          1           0       -7.656004    2.113964   -1.305695
     25          6           0       -3.863734   -0.427271   -0.067207
     26          6           0       -3.411529   -1.715948    0.620403
     27          6           0       -1.890624   -1.871165    0.643839
     28          1           0       -3.476934   -0.413448   -1.095599
     29          1           0       -3.413849    0.432759    0.447474
     30          1           0       -3.862697   -2.573001    0.104144
     31          1           0       -3.800227   -1.727977    1.646749
     32          1           0       -1.426235   -1.035166    1.176801
     33          1           0       -1.489060   -1.884989   -0.374570
     34          1           0       -1.589367   -2.799064    1.139932
 ---------------------------------------------------------------------

 SCF Done:  E(RHF) =  -669.535425968     A.U. after   15 cycles
 E2 =    -0.2090910863D+01 EUMP2 =    -0.67162633683096D+03

 The electronic state is 1-A.
 Alpha  occ. eigenvalues --  -20.60712 -20.60707 -15.85764 -11.31117 -11.27685
 Alpha  occ. eigenvalues --  -11.27663 -11.27424 -11.26708 -11.26634 -11.22368
 Alpha  occ. eigenvalues --  -11.22103 -11.22066 -11.22047 -11.21899 -11.21455
 Alpha  occ. eigenvalues --   -1.59788  -1.39341  -1.19284  -1.09050  -1.08685
 Alpha  occ. eigenvalues --   -1.04683  -1.04175  -0.96648  -0.95523  -0.87679
 Alpha  occ. eigenvalues --   -0.86082  -0.82352  -0.80252  -0.78838  -0.77398
 Alpha  occ. eigenvalues --   -0.71983  -0.71110  -0.70402  -0.65686  -0.64936
 Alpha  occ. eigenvalues --   -0.64703  -0.62071  -0.61545  -0.60016  -0.58233
 Alpha  occ. eigenvalues --   -0.55952  -0.55193  -0.53386  -0.53174  -0.52994
 Alpha  occ. eigenvalues --   -0.52649  -0.50576  -0.48753  -0.48739  -0.48533
 Alpha  occ. eigenvalues --   -0.47263  -0.46387  -0.46291  -0.44750  -0.44420
 Alpha  occ. eigenvalues --   -0.37269  -0.36278
 Alpha virt. eigenvalues --    0.05127   0.11328   0.16614   0.20506   0.22373
 Alpha virt. eigenvalues --    0.23792   0.25567   0.26163   0.26969   0.28071
 Alpha virt. eigenvalues --    0.28637   0.30375   0.30964   0.31183   0.31756

 Mulliken charges:
               1
     1  C   -0.172463
     2  C   -0.222092
     3  C   -0.172799
     4  C    0.158791
     5  C   -0.171447
     6  C   -0.218384
     7  H    0.224478
     8  H    0.232517
     9  H    0.275675
    10  H    0.275279
    11  H    0.222998
    12  N    0.488021
    13  O   -0.460699
    14  O   -0.460535
    15  C   -0.298835
    16  C   -0.299908
    17  C   -0.476025
    18  H    0.151521
    19  H    0.149830
    20  H    0.153148
    21  H    0.150862
    22  H    0.155393
    23  H    0.156310
    24  H    0.161384
    25  C   -0.298264
    26  C   -0.300021
    27  C   -0.479392
    28  H    0.151961
    29  H    0.146217
    30  H    0.156056
    31  H    0.152993
    32  H    0.144653
    33  H    0.160881
    34  H    0.161898
 Sum of Mulliken charges =  -0.00000

 Dipole moment (field-independent basis, Debye):
    X=             -4.2291    Y=              1.9966    Z=              2.5498  Tot=              5.3267
 Quadrupole moment (field-independent basis, Debye-Ang):
   XX=           -125.7920   YY=            -89.6767   ZZ=            -95.0697
   XY=              9.6340   XZ=             10.0270   YZ=              0.2957

 Normal termination of Gaussian 16 at Thu May  6 19:13:46 2021.
