 Gaussian 16, Revision A.03,
 Gaussian 16:  EM64L-G16RevA.03 25-Dec-2016

 -------------
 #p 6-31g* mp2
 -------------

 ------------------------------------------------------
 Input file generated by CHIRIPA (05-May-2021 14:51:12)
 ------------------------------------------------------
 Symbolic Z-matrix:
 Charge =  0 Multiplicity = 1

                         Standard orientation:
 ---------------------------------------------------------------------
 Center     Atomic      Atomic             Coordinates (Angstroms)
 Number     Number       Type             X           Y           Z
 ---------------------------------------------------------------------
      1          6           0       -3.928166    0.167088    0.171774
      2          6           0       -5.036722   -0.497378   -0.645278
      3          6           0       -6.304690    0.353494   -0.723194
      4          1           0       -4.299319    0.368318    1.186021
      5          1           0       -3.689183    1.143041   -0.272972
      6          1           0       -5.272581   -1.472394   -0.199934
      7          1           0       -4.662826   -0.697223   -1.657641
      8          1           0       -6.090999    1.321675   -1.187482
      9          1           0       -6.704218    0.542099    0.278507
     10          1           0       -7.084058   -0.140405   -1.311844
     11          6           0       -2.654145   -0.671375    0.258821
     12          6           0       -1.545589   -0.006909    1.075873
     13          6           0       -0.277622   -0.857781    1.153789
     14          1           0       -2.893128   -1.647327    0.703567
     15          1           0       -2.282993   -0.872604   -0.755426
     16          1           0       -1.919486    0.192936    2.088236
     17          1           0       -1.309731    0.968107    0.630529
     18          1           0        0.121907   -1.046386    0.152087
     19          1           0       -0.491313   -1.825961    1.618077
     20          1           0        0.501746   -0.363882    1.742439
     21          6           0        3.781966   -0.313840   -0.364294
     22          6           0        3.188170   -1.705377   -0.142899
     23          6           0        4.182153   -2.827183   -0.445127
     24          1           0        4.126288   -0.230282   -1.404200
     25          1           0        4.671711   -0.197344    0.269881
     26          1           0        2.299009   -1.818707   -0.776275
     27          1           0        2.845048   -1.785565    0.896550
     28          1           0        5.065556   -2.742217    0.195951
     29          1           0        4.516414   -2.775547   -1.486378
     30          1           0        3.736904   -3.813301   -0.280254
     31          6           0        2.800345    0.818127   -0.066301
     32          6           0        3.394142    2.209664   -0.287695
     33          6           0        2.400158    3.331469    0.014532
     34          1           0        1.910601    0.701630   -0.700477
     35          1           0        2.456024    0.734569    0.973606
     36          1           0        3.737263    2.289852   -1.327144
     37          1           0        4.283302    2.322994    0.345681
     38          1           0        2.065897    3.279833    1.055784
     39          1           0        1.516756    3.246504   -0.626546
     40          1           0        2.845408    4.317589   -0.150341
 ---------------------------------------------------------------------

 SCF Done:  E(RHF) =  -470.731405825     A.U. after   11 cycles
 E2 =    -0.1584363460D+01 EUMP2 =    -0.47231576928469D+03

 The electronic state is 1-A.
 Alpha  occ. eigenvalues --  -11.21584 -11.21574 -11.21522 -11.21515 -11.21371
 Alpha  occ. eigenvalues --  -11.21358 -11.21311 -11.21291 -11.21078 -11.21057
 Alpha  occ. eigenvalues --  -11.21021 -11.20876  -1.08435  -1.08356  -1.03505
 Alpha  occ. eigenvalues --   -1.03468  -0.95995  -0.95886  -0.86971  -0.86956
 Alpha  occ. eigenvalues --   -0.79656  -0.79507  -0.78280  -0.78092  -0.65092
 Alpha  occ. eigenvalues --   -0.64985  -0.60920  -0.60861  -0.59333  -0.59320
 Alpha  occ. eigenvalues --   -0.57675  -0.57434  -0.55264  -0.55212  -0.52800
 Alpha  occ. eigenvalues --   -0.52574  -0.52435  -0.52229  -0.49918  -0.49886
 Alpha  occ. eigenvalues --   -0.48058  -0.47703  -0.46707  -0.46553  -0.45852
 Alpha  occ. eigenvalues --   -0.45704  -0.45681  -0.45372  -0.43772  -0.43597
 Alpha virt. eigenvalues --    0.21512   0.23132   0.23880   0.24267   0.24872
 Alpha virt. eigenvalues --    0.26257   0.27011   0.27513   0.28098   0.30009
 Alpha virt. eigenvalues --    0.30670   0.31056   0.31537   0.31788   0.32297

 Mulliken charges:
               1
     1  C   -0.298140
     2  C   -0.299576
     3  C   -0.475669
     4  H    0.149649
     5  H    0.149381
     6  H    0.151883
     7  H    0.151722
     8  H    0.155136
     9  H    0.155179
    10  H    0.160154
    11  C   -0.298278
    12  C   -0.301523
    13  C   -0.476508
    14  H    0.149469
    15  H    0.148856
    16  H    0.151174
    17  H    0.152012
    18  H    0.159130
    19  H    0.152978
    20  H    0.161753
    21  C   -0.298282
    22  C   -0.301496
    23  C   -0.475497
    24  H    0.148971
    25  H    0.149019
    26  H    0.152546
    27  H    0.155428
    28  H    0.154807
    29  H    0.154646
    30  H    0.160211
    31  C   -0.300048
    32  C   -0.299307
    33  C   -0.475601
    34  H    0.150316
    35  H    0.152432
    36  H    0.151539
    37  H    0.151644
    38  H    0.154972
    39  H    0.154583
    40  H    0.160335
 Sum of Mulliken charges =  -0.00000

 Dipole moment (field-independent basis, Debye):
    X=              0.0269    Y=             -0.0090    Z=              0.0106  Tot=              0.0303
 Quadrupole moment (field-independent basis, Debye-Ang):
   XX=            -86.1204   YY=            -85.7840   ZZ=            -83.1783
   XY=              1.1803   XZ=              0.0564   YZ=             -0.4581

 Normal termination of Gaussian 16 at Thu May  6 03:53:40 2021.
