 Gaussian 16, Revision A.03,
 Gaussian 16:  EM64L-G16RevA.03 25-Dec-2016

 -------------
 #p 6-31g* mp2
 -------------

 ------------------------------------------------------
 Input file generated by CHIRIPA (05-May-2021 14:51:09)
 ------------------------------------------------------
 Symbolic Z-matrix:
 Charge =  0 Multiplicity = 1

                         Standard orientation:
 ---------------------------------------------------------------------
 Center     Atomic      Atomic             Coordinates (Angstroms)
 Number     Number       Type             X           Y           Z
 ---------------------------------------------------------------------
      1          6           0        2.383775   -1.515512    0.027981
      2          6           0        1.149947   -1.619186    0.925146
      3          6           0        0.538277   -3.020483    0.929523
      4          1           0        2.109058   -1.800429   -0.996860
      5          1           0        3.135100   -2.243503    0.364039
      6          1           0        0.401717   -0.890256    0.588354
      7          1           0        1.427589   -1.333805    1.947931
      8          1           0        1.265446   -3.757119    1.286166
      9          1           0        0.233745   -3.311050   -0.081136
     10          1           0       -0.342439   -3.072072    1.577240
     11          6           0        3.006540   -0.120639    0.013135
     12          6           0        4.240368   -0.016966   -0.884031
     13          6           0        4.852038    1.384332   -0.888408
     14          1           0        2.255215    0.607351   -0.322923
     15          1           0        3.281257    0.164277    1.037975
     16          1           0        3.962726   -0.302347   -1.906815
     17          1           0        4.988598   -0.745896   -0.547238
     18          1           0        5.156570    1.674898    0.122251
     19          1           0        4.124869    2.120967   -1.245051
     20          1           0        5.732754    1.435920   -1.536124
     21          6           0       -2.906509    0.106568   -0.200887
     22          6           0       -4.373801   -0.003110   -0.616832
     23          6           0       -4.781566   -1.432635   -0.974575
     24          1           0       -2.271823   -0.263799   -1.017555
     25          1           0       -2.726095   -0.553260    0.659040
     26          1           0       -4.551716    0.657774   -1.474850
     27          1           0       -5.005060    0.367739    0.200847
     28          1           0       -4.632401   -2.100989   -0.120377
     29          1           0       -4.176482   -1.809306   -1.805594
     30          1           0       -5.834239   -1.488091   -1.268964
     31          6           0       -2.483806    1.529584    0.159772
     32          6           0       -1.016514    1.639261    0.575716
     33          6           0       -0.608749    3.068787    0.933459
     34          1           0       -2.664220    2.189411   -0.700155
     35          1           0       -3.118492    1.899950    0.976439
     36          1           0       -0.385255    1.268412   -0.241963
     37          1           0       -0.838598    0.978378    1.433734
     38          1           0       -1.213833    3.445458    1.764479
     39          1           0       -0.757915    3.737141    0.079261
     40          1           0        0.443924    3.124243    1.227848
 ---------------------------------------------------------------------

 SCF Done:  E(RHF) =  -470.732292636     A.U. after   11 cycles
 E2 =    -0.1584393220D+01 EUMP2 =    -0.47231668585682D+03

 The electronic state is 1-A.
 Alpha  occ. eigenvalues --  -11.21641 -11.21624 -11.21580 -11.21457 -11.21396
 Alpha  occ. eigenvalues --  -11.21395 -11.21351 -11.21282 -11.21094 -11.21093
 Alpha  occ. eigenvalues --  -11.21060 -11.20982  -1.08500  -1.08354  -1.03582
 Alpha  occ. eigenvalues --   -1.03453  -0.96017  -0.95922  -0.87042  -0.86932
 Alpha  occ. eigenvalues --   -0.79777  -0.79458  -0.78461  -0.78001  -0.65138
 Alpha  occ. eigenvalues --   -0.64988  -0.60971  -0.60875  -0.59432  -0.59248
 Alpha  occ. eigenvalues --   -0.57653  -0.57514  -0.55308  -0.55209  -0.52724
 Alpha  occ. eigenvalues --   -0.52606  -0.52474  -0.52322  -0.49965  -0.49871
 Alpha  occ. eigenvalues --   -0.48270  -0.47710  -0.46696  -0.46642  -0.46150
 Alpha  occ. eigenvalues --   -0.45785  -0.45653  -0.45004  -0.43817  -0.43712
 Alpha virt. eigenvalues --    0.21218   0.22843   0.23720   0.24164   0.25450
 Alpha virt. eigenvalues --    0.26241   0.26942   0.27469   0.28513   0.29527
 Alpha virt. eigenvalues --    0.31042   0.31431   0.31658   0.31808   0.32066

 Mulliken charges:
               1
     1  C   -0.297509
     2  C   -0.310444
     3  C   -0.474598
     4  H    0.148545
     5  H    0.149006
     6  H    0.166513
     7  H    0.149765
     8  H    0.154393
     9  H    0.154734
    10  H    0.159006
    11  C   -0.302197
    12  C   -0.299406
    13  C   -0.475694
    14  H    0.152885
    15  H    0.149349
    16  H    0.151627
    17  H    0.152052
    18  H    0.155106
    19  H    0.154999
    20  H    0.160201
    21  C   -0.299817
    22  C   -0.299644
    23  C   -0.475662
    24  H    0.149305
    25  H    0.150611
    26  H    0.152015
    27  H    0.152144
    28  H    0.155474
    29  H    0.155157
    30  H    0.160362
    31  C   -0.297728
    32  C   -0.306205
    33  C   -0.475715
    34  H    0.149351
    35  H    0.149810
    36  H    0.153790
    37  H    0.156764
    38  H    0.155288
    39  H    0.154807
    40  H    0.161562
 Sum of Mulliken charges =  -0.00000

 Dipole moment (field-independent basis, Debye):
    X=             -0.0550    Y=              0.0473    Z=              0.0070  Tot=              0.0729
 Quadrupole moment (field-independent basis, Debye-Ang):
   XX=            -84.9320   YY=            -86.7283   ZZ=            -83.2967
   XY=             -1.0168   XZ=              0.1208   YZ=             -0.4749

 Normal termination of Gaussian 16 at Wed May  5 22:57:37 2021.
