 Gaussian 16, Revision A.03,
 Gaussian 16:  EM64L-G16RevA.03 25-Dec-2016

 -------------
 #p 6-31g* mp2
 -------------

 ------------------------------------------------------
 Input file generated by CHIRIPA (05-May-2021 14:55:19)
 ------------------------------------------------------
 Symbolic Z-matrix:
 Charge =  0 Multiplicity = 1

                         Standard orientation:
 ---------------------------------------------------------------------
 Center     Atomic      Atomic             Coordinates (Angstroms)
 Number     Number       Type             X           Y           Z
 ---------------------------------------------------------------------
      1          6           0        1.605581    1.475923    1.607213
      2          6           0        2.082884    1.868076    0.352256
      3          6           0        2.857312    0.994914   -0.417418
      4          6           0        3.136607   -0.268635    0.100971
      5          6           0        2.675566   -0.688592    1.347713
      6          6           0        1.902921    0.201088    2.100068
      7          1           0        1.004680    2.160632    2.198388
      8          1           0        1.853534    2.857519   -0.033031
      9          1           0        3.239624    1.272700   -1.392144
     10          1           0        2.920714   -1.681351    1.705136
     11          1           0        1.533583   -0.106168    3.074351
     12          7           0        3.955515   -1.201756   -0.704681
     13          8           0        4.187627   -2.309513   -0.225479
     14          8           0        4.349758   -0.807710   -1.800097
     15          6           0       -3.239842    0.557772   -0.071204
     16          6           0       -2.572425    1.336304   -1.205412
     17          6           0       -1.369155    2.153193   -0.733579
     18          1           0       -3.556394    1.261154    0.711097
     19          1           0       -2.499891   -0.110713    0.390308
     20          1           0       -3.313768    2.002113   -1.665548
     21          1           0       -2.257598    0.631007   -1.985192
     22          1           0       -0.608978    1.500032   -0.292997
     23          1           0       -1.671149    2.878928    0.028464
     24          1           0       -0.907233    2.701760   -1.560357
     25          6           0       -4.444360   -0.263768   -0.527202
     26          6           0       -5.111777   -1.042300    0.607007
     27          6           0       -6.315048   -1.859189    0.135173
     28          1           0       -5.184312    0.404717   -0.988714
     29          1           0       -4.127809   -0.967150   -1.309503
     30          1           0       -5.426605   -0.337003    1.386786
     31          1           0       -4.370434   -1.708110    1.067142
     32          1           0       -6.013052   -2.584924   -0.626869
     33          1           0       -7.075224   -1.206028   -0.305409
     34          1           0       -6.776970   -2.407756    0.961951
 ---------------------------------------------------------------------

 SCF Done:  E(RHF) =  -669.534432729     A.U. after   15 cycles
 E2 =    -0.2092506360D+01 EUMP2 =    -0.67162693908893D+03

 The electronic state is 1-A.
 Alpha  occ. eigenvalues --  -20.60790 -20.60784 -15.85843 -11.31219 -11.27780
 Alpha  occ. eigenvalues --  -11.27755 -11.27493 -11.26806 -11.26758 -11.22001
 Alpha  occ. eigenvalues --  -11.21890 -11.21789 -11.21670 -11.21553 -11.21292
 Alpha  occ. eigenvalues --   -1.59865  -1.39418  -1.19397  -1.08816  -1.08759
 Alpha  occ. eigenvalues --   -1.04798  -1.03889  -0.96364  -0.95614  -0.87401
 Alpha  occ. eigenvalues --   -0.86178  -0.82443  -0.79972  -0.78598  -0.77488
 Alpha  occ. eigenvalues --   -0.72060  -0.71189  -0.70483  -0.65414  -0.65039
 Alpha  occ. eigenvalues --   -0.64786  -0.62137  -0.61294  -0.59730  -0.57980
 Alpha  occ. eigenvalues --   -0.55712  -0.55276  -0.53392  -0.53071  -0.52827
 Alpha  occ. eigenvalues --   -0.52591  -0.50254  -0.48819  -0.48815  -0.48278
 Alpha  occ. eigenvalues --   -0.46980  -0.46144  -0.46053  -0.44821  -0.44154
 Alpha  occ. eigenvalues --   -0.37298  -0.36351
 Alpha virt. eigenvalues --    0.05025   0.11221   0.16496   0.21058   0.22562
 Alpha virt. eigenvalues --    0.24030   0.26253   0.26586   0.27085   0.27849
 Alpha virt. eigenvalues --    0.28719   0.30220   0.31225   0.31717   0.32090

 Mulliken charges:
               1
     1  C   -0.171664
     2  C   -0.216836
     3  C   -0.171781
     4  C    0.158523
     5  C   -0.171609
     6  C   -0.218683
     7  H    0.227339
     8  H    0.226698
     9  H    0.275738
    10  H    0.275620
    11  H    0.223772
    12  N    0.488059
    13  O   -0.460444
    14  O   -0.460235
    15  C   -0.298723
    16  C   -0.298679
    17  C   -0.486085
    18  H    0.147235
    19  H    0.149427
    20  H    0.152361
    21  H    0.155192
    22  H    0.166860
    23  H    0.148387
    24  H    0.156714
    25  C   -0.298650
    26  C   -0.299781
    27  C   -0.475933
    28  H    0.150148
    29  H    0.151748
    30  H    0.150927
    31  H    0.151660
    32  H    0.156501
    33  H    0.155547
    34  H    0.160646
 Sum of Mulliken charges =  -0.00000

 Dipole moment (field-independent basis, Debye):
    X=             -2.8845    Y=              3.2401    Z=              2.8335  Tot=              5.1814
 Quadrupole moment (field-independent basis, Debye-Ang):
   XX=           -114.0070   YY=            -94.4794   ZZ=            -91.8935
   XY=             10.7095   XZ=              8.1666   YZ=             -3.1693

 Normal termination of Gaussian 16 at Thu May  6 14:04:50 2021.
