 Gaussian 16, Revision A.03,
 Gaussian 16:  EM64L-G16RevA.03 25-Dec-2016

 -------------
 #p 6-31g* mp2
 -------------

 ------------------------------------------------------
 Input file generated by CHIRIPA (05-May-2021 14:53:13)
 ------------------------------------------------------
 Symbolic Z-matrix:
 Charge =  0 Multiplicity = 1

                         Standard orientation:
 ---------------------------------------------------------------------
 Center     Atomic      Atomic             Coordinates (Angstroms)
 Number     Number       Type             X           Y           Z
 ---------------------------------------------------------------------
      1          6           0       -2.335521    0.973420   -0.426268
      2          6           0       -1.972200    2.307932    0.225699
      3          6           0       -0.781990    2.990747   -0.448807
      4          1           0       -1.462464    0.307311   -0.394410
      5          1           0       -2.561705    1.141689   -1.488304
      6          1           0       -1.748113    2.137404    1.286511
      7          1           0       -2.846282    2.970874    0.192457
      8          1           0       -0.998820    3.189644   -1.503333
      9          1           0        0.105588    2.351439   -0.403063
     10          1           0       -0.539420    3.942980    0.033139
     11          6           0       -3.523493    0.278719    0.236937
     12          6           0       -3.886815   -1.055793   -0.415030
     13          6           0       -5.077025   -1.738609    0.259476
     14          1           0       -3.297310    0.110450    1.298973
     15          1           0       -4.396550    0.944828    0.205079
     16          1           0       -3.012733   -1.718735   -0.381787
     17          1           0       -4.110902   -0.885266   -1.475841
     18          1           0       -5.964602   -1.099301    0.213732
     19          1           0       -4.860194   -1.937506    1.314002
     20          1           0       -5.319595   -2.690842   -0.222470
     21          6           0        2.786836    1.976432    0.271012
     22          6           0        2.899988    1.336221   -0.967474
     23          6           0        2.626457   -0.029469   -1.088389
     24          6           0        2.240517   -0.727477    0.054906
     25          6           0        2.118754   -0.117993    1.302702
     26          6           0        2.397268    1.248565    1.400157
     27          1           0        3.001257    3.037670    0.355829
     28          1           0        3.202329    1.898977   -1.846075
     29          1           0        2.706088   -0.550136   -2.034953
     30          1           0        1.815224   -0.705468    2.160699
     31          1           0        2.308558    1.743138    2.363263
     32          7           0        1.948305   -2.173731   -0.060682
     33          8           0        1.610101   -2.766310    0.961622
     34          8           0        2.063006   -2.687340   -1.171396
 ---------------------------------------------------------------------

 SCF Done:  E(RHF) =  -669.534854319     A.U. after   15 cycles
 E2 =    -0.2093235296D+01 EUMP2 =    -0.67162808961491D+03

 The electronic state is 1-A.
 Alpha  occ. eigenvalues --  -20.60864 -20.60858 -15.85921 -11.31321 -11.27894
 Alpha  occ. eigenvalues --  -11.27881 -11.27590 -11.26870 -11.26856 -11.21731
 Alpha  occ. eigenvalues --  -11.21378 -11.21350 -11.21258 -11.21184 -11.20815
 Alpha  occ. eigenvalues --   -1.59941  -1.39493  -1.19497  -1.08885  -1.08374
 Alpha  occ. eigenvalues --   -1.04886  -1.03476  -0.95951  -0.95696  -0.86966
 Alpha  occ. eigenvalues --   -0.86279  -0.82528  -0.79557  -0.78174  -0.77575
 Alpha  occ. eigenvalues --   -0.72134  -0.71268  -0.70578  -0.65131  -0.65014
 Alpha  occ. eigenvalues --   -0.64872  -0.62224  -0.60903  -0.59327  -0.57559
 Alpha  occ. eigenvalues --   -0.55383  -0.55339  -0.53317  -0.52966  -0.52637
 Alpha  occ. eigenvalues --   -0.52266  -0.49837  -0.48896  -0.48889  -0.47849
 Alpha  occ. eigenvalues --   -0.46559  -0.45712  -0.45621  -0.44893  -0.43742
 Alpha  occ. eigenvalues --   -0.37365  -0.36500
 Alpha virt. eigenvalues --    0.04950   0.11131   0.16425   0.21256   0.22857
 Alpha virt. eigenvalues --    0.24380   0.26606   0.27188   0.27561   0.27731
 Alpha virt. eigenvalues --    0.28563   0.30772   0.31499   0.31879   0.32148

 Mulliken charges:
               1
     1  C   -0.298528
     2  C   -0.297186
     3  C   -0.485917
     4  H    0.150277
     5  H    0.149364
     6  H    0.148513
     7  H    0.151581
     8  H    0.153293
     9  H    0.167502
    10  H    0.152377
    11  C   -0.298143
    12  C   -0.300958
    13  C   -0.475717
    14  H    0.149059
    15  H    0.148497
    16  H    0.157759
    17  H    0.151250
    18  H    0.153300
    19  H    0.155683
    20  H    0.161857
    21  C   -0.172623
    22  C   -0.217653
    23  C   -0.170456
    24  C    0.158501
    25  C   -0.171626
    26  C   -0.216808
    27  H    0.227454
    28  H    0.224821
    29  H    0.276434
    30  H    0.276075
    31  H    0.224400
    32  N    0.487827
    33  O   -0.460418
    34  O   -0.459790
 Sum of Mulliken charges =  -0.00000

 Dipole moment (field-independent basis, Debye):
    X=              1.1533    Y=              4.9819    Z=              0.3942  Tot=              5.1289
 Quadrupole moment (field-independent basis, Debye-Ang):
   XX=            -90.8948   YY=           -103.3724   ZZ=            -89.6882
   XY=             10.4841   XZ=              0.5264   YZ=             -0.2514

 Normal termination of Gaussian 16 at Thu May  6 21:53:35 2021.
