 Gaussian 16, Revision A.03,
 Gaussian 16:  EM64L-G16RevA.03 25-Dec-2016

 -------------
 #p 6-31g* mp2
 -------------

 ------------------------------------------------------
 Input file generated by CHIRIPA (05-May-2021 14:55:20)
 ------------------------------------------------------
 Symbolic Z-matrix:
 Charge =  0 Multiplicity = 1

                         Standard orientation:
 ---------------------------------------------------------------------
 Center     Atomic      Atomic             Coordinates (Angstroms)
 Number     Number       Type             X           Y           Z
 ---------------------------------------------------------------------
      1          6           0        5.790248   -1.237090    0.262618
      2          6           0        4.739250   -1.920676   -0.357571
      3          6           0        3.495002   -1.306269   -0.527567
      4          6           0        3.335998   -0.001483   -0.063301
      5          6           0        4.363762    0.705817    0.558566
      6          6           0        5.599486    0.071667    0.717904
      7          1           0        6.753499   -1.722044    0.390535
      8          1           0        4.884526   -2.937151   -0.712138
      9          1           0        2.664261   -1.812336   -1.004205
     10          1           0        4.188677    1.718273    0.901633
     11          1           0        6.413913    0.604975    1.199917
     12          7           0        2.023280    0.659412   -0.237626
     13          8           0        1.908751    1.809619    0.180159
     14          8           0        1.133757    0.014700   -0.788746
     15          6           0       -5.294451   -0.009191   -0.001656
     16          6           0       -5.646324   -1.451100    0.365858
     17          6           0       -7.145264   -1.736816    0.269223
     18          1           0       -5.843038    0.675355    0.659702
     19          1           0       -5.642838    0.196919   -1.023194
     20          1           0       -5.296145   -1.654856    1.385895
     21          1           0       -5.096688   -2.132296   -0.296326
     22          1           0       -7.506062   -1.561027   -0.749366
     23          1           0       -7.706652   -1.080875    0.942414
     24          1           0       -7.374442   -2.773188    0.536189
     25          6           0       -3.799565    0.291833    0.090154
     26          6           0       -3.447691    1.733742   -0.277360
     27          6           0       -1.948751    2.019458   -0.180725
     28          1           0       -3.451177    0.085723    1.111692
     29          1           0       -3.250977   -0.392713   -0.571204
     30          1           0       -3.997327    2.414938    0.384824
     31          1           0       -3.797871    1.937498   -1.297397
     32          1           0       -1.387363    1.363517   -0.853916
     33          1           0       -1.587954    1.843669    0.837863
     34          1           0       -1.719573    3.055830   -0.447691
 ---------------------------------------------------------------------

 SCF Done:  E(RHF) =  -669.536192297     A.U. after   15 cycles
 E2 =    -0.2091318906D+01 EUMP2 =    -0.67162751120296D+03

 The electronic state is 1-A.
 Alpha  occ. eigenvalues --  -20.60958 -20.60953 -15.85974 -11.31304 -11.27864
 Alpha  occ. eigenvalues --  -11.27860 -11.27601 -11.26871 -11.26861 -11.20887
 Alpha  occ. eigenvalues --  -11.20498 -11.20476 -11.20189 -11.20109 -11.18908
 Alpha  occ. eigenvalues --   -1.60000  -1.39558  -1.19468  -1.08872  -1.07360
 Alpha  occ. eigenvalues --   -1.04865  -1.02348  -0.95714  -0.94753  -0.86265
 Alpha  occ. eigenvalues --   -0.85756  -0.82547  -0.78460  -0.77599  -0.77097
 Alpha  occ. eigenvalues --   -0.72188  -0.71314  -0.70576  -0.65124  -0.64867
 Alpha  occ. eigenvalues --   -0.64007  -0.62212  -0.59756  -0.58246  -0.56366
 Alpha  occ. eigenvalues --   -0.55370  -0.54046  -0.53197  -0.52956  -0.51447
 Alpha  occ. eigenvalues --   -0.51210  -0.49098  -0.48928  -0.48544  -0.46672
 Alpha  occ. eigenvalues --   -0.45513  -0.44972  -0.44611  -0.44513  -0.42607
 Alpha  occ. eigenvalues --   -0.37448  -0.36466
 Alpha virt. eigenvalues --    0.04934   0.11189   0.16435   0.21326   0.23834
 Alpha virt. eigenvalues --    0.25552   0.27242   0.27679   0.28200   0.28498
 Alpha virt. eigenvalues --    0.29361   0.30897   0.32392   0.32628   0.32734

 Mulliken charges:
               1
     1  C   -0.170596
     2  C   -0.218543
     3  C   -0.170778
     4  C    0.158358
     5  C   -0.170765
     6  C   -0.218581
     7  H    0.226004
     8  H    0.223828
     9  H    0.275699
    10  H    0.275945
    11  H    0.223855
    12  N    0.488972
    13  O   -0.457973
    14  O   -0.459479
    15  C   -0.297219
    16  C   -0.298663
    17  C   -0.475019
    18  H    0.147380
    19  H    0.147653
    20  H    0.150529
    21  H    0.151020
    22  H    0.154227
    23  H    0.154134
    24  H    0.157626
    25  C   -0.296761
    26  C   -0.301156
    27  C   -0.476213
    28  H    0.147387
    29  H    0.151918
    30  H    0.145070
    31  H    0.146520
    32  H    0.178291
    33  H    0.152843
    34  H    0.154490
 Sum of Mulliken charges =  -0.00000

 Dipole moment (field-independent basis, Debye):
    X=              5.0769    Y=             -2.3512    Z=              0.5685  Tot=              5.6237
 Quadrupole moment (field-independent basis, Debye-Ang):
   XX=            -66.5488   YY=            -91.9753   ZZ=            -93.6720
   XY=             -6.5204   XZ=              2.7466   YZ=              2.5862

 Normal termination of Gaussian 16 at Wed May  5 17:21:49 2021.
