 Gaussian 16, Revision A.03,
 Gaussian 16:  EM64L-G16RevA.03 25-Dec-2016

 -------------
 #p 6-31g* mp2
 -------------

 ------------------------------------------------------
 Input file generated by CHIRIPA (05-May-2021 14:53:15)
 ------------------------------------------------------
 Symbolic Z-matrix:
 Charge =  0 Multiplicity = 1

                         Standard orientation:
 ---------------------------------------------------------------------
 Center     Atomic      Atomic             Coordinates (Angstroms)
 Number     Number       Type             X           Y           Z
 ---------------------------------------------------------------------
      1          6           0       -2.783708    0.619838    0.616996
      2          6           0       -2.918432    2.141516    0.682821
      3          6           0       -2.061136    2.763737    1.785399
      4          1           0       -3.065195    0.190821    1.588414
      5          1           0       -1.728882    0.358820    0.453881
      6          1           0       -3.972895    2.399627    0.844381
      7          1           0       -2.636775    2.566947   -0.288927
      8          1           0       -1.002461    2.535237    1.625410
      9          1           0       -2.346173    2.366966    2.765158
     10          1           0       -2.172647    3.852117    1.814619
     11          6           0       -3.634755   -0.016788   -0.480343
     12          6           0       -3.500031   -1.538466   -0.546168
     13          6           0       -4.357327   -2.160687   -1.648746
     14          1           0       -4.689581    0.244230   -0.317228
     15          1           0       -3.353268    0.412229   -1.451761
     16          1           0       -3.781688   -1.963897    0.425580
     17          1           0       -2.445568   -1.796577   -0.707728
     18          1           0       -4.072290   -1.763916   -2.628505
     19          1           0       -5.416002   -1.932187   -1.488758
     20          1           0       -4.245816   -3.249067   -1.677967
     21          6           0        1.856744   -2.004261    1.624276
     22          6           0        0.867291   -1.273933    0.957852
     23          6           0        1.216112   -0.291550    0.026295
     24          6           0        2.570097   -0.064576   -0.215570
     25          6           0        3.579135   -0.775548    0.432235
     26          6           0        3.207128   -1.753181    1.359808
     27          1           0        1.576766   -2.765555    2.346385
     28          1           0       -0.182226   -1.466780    1.161241
     29          1           0        0.470600    0.288558   -0.503898
     30          1           0        4.617000   -0.560714    0.208404
     31          1           0        3.977698   -2.318822    1.875866
     32          7           0        2.951652    0.972915   -1.199658
     33          8           0        4.151560    1.153805   -1.394943
     34          8           0        2.043581    1.585564   -1.757069
 ---------------------------------------------------------------------

 SCF Done:  E(RHF) =  -669.535171396     A.U. after   15 cycles
 E2 =    -0.2092741341D+01 EUMP2 =    -0.67162791273625D+03

 The electronic state is 1-A.
 Alpha  occ. eigenvalues --  -20.60771 -20.60766 -15.85823 -11.31175 -11.27738
 Alpha  occ. eigenvalues --  -11.27723 -11.27463 -11.26756 -11.26698 -11.22303
 Alpha  occ. eigenvalues --  -11.22169 -11.21990 -11.21954 -11.21552 -11.21346
 Alpha  occ. eigenvalues --   -1.59846  -1.39400  -1.19341  -1.09048  -1.08735
 Alpha  occ. eigenvalues --   -1.04746  -1.04029  -0.96473  -0.95577  -0.87486
 Alpha  occ. eigenvalues --   -0.86137  -0.82423  -0.80108  -0.78931  -0.77440
 Alpha  occ. eigenvalues --   -0.72042  -0.71168  -0.70464  -0.65721  -0.64979
 Alpha  occ. eigenvalues --   -0.64742  -0.62111  -0.61400  -0.59844  -0.58088
 Alpha  occ. eigenvalues --   -0.55758  -0.55234  -0.53135  -0.53075  -0.52895
 Alpha  occ. eigenvalues --   -0.52819  -0.50413  -0.48799  -0.48798  -0.48414
 Alpha  occ. eigenvalues --   -0.47139  -0.46391  -0.46328  -0.44808  -0.44320
 Alpha  occ. eigenvalues --   -0.37317  -0.36335
 Alpha virt. eigenvalues --    0.05043   0.11290   0.16495   0.19416   0.22753
 Alpha virt. eigenvalues --    0.23651   0.24819   0.25874   0.27487   0.28144
 Alpha virt. eigenvalues --    0.29760   0.31131   0.31167   0.31520   0.32384

 Mulliken charges:
               1
     1  C   -0.305744
     2  C   -0.300812
     3  C   -0.476714
     4  H    0.149105
     5  H    0.142682
     6  H    0.154108
     7  H    0.158353
     8  H    0.156596
     9  H    0.153396
    10  H    0.164467
    11  C   -0.298779
    12  C   -0.302272
    13  C   -0.475920
    14  H    0.153202
    15  H    0.154691
    16  H    0.150419
    17  H    0.146810
    18  H    0.158812
    19  H    0.157296
    20  H    0.160996
    21  C   -0.171168
    22  C   -0.222132
    23  C   -0.177721
    24  C    0.160048
    25  C   -0.171095
    26  C   -0.218396
    27  H    0.225831
    28  H    0.229885
    29  H    0.277902
    30  H    0.275504
    31  H    0.223441
    32  N    0.488755
    33  O   -0.460253
    34  O   -0.461292
 Sum of Mulliken charges =  -0.00000

 Dipole moment (field-independent basis, Debye):
    X=             -1.4988    Y=             -3.5654    Z=              3.4223  Tot=              5.1643
 Quadrupole moment (field-independent basis, Debye-Ang):
   XX=            -95.9942   YY=            -94.7744   ZZ=            -96.8933
   XY=            -11.0034   XZ=              9.5795   YZ=             -0.1675

 Normal termination of Gaussian 16 at Thu May  6 12:10:52 2021.
