 Gaussian 16, Revision A.03,
 Gaussian 16:  EM64L-G16RevA.03 25-Dec-2016

 -------------
 #p 6-31g* mp2
 -------------

 ------------------------------------------------------
 Input file generated by CHIRIPA (05-May-2021 14:57:27)
 ------------------------------------------------------
 Symbolic Z-matrix:
 Charge =  0 Multiplicity = 1

                         Standard orientation:
 ---------------------------------------------------------------------
 Center     Atomic      Atomic             Coordinates (Angstroms)
 Number     Number       Type             X           Y           Z
 ---------------------------------------------------------------------
      1          6           0       -3.315487   -2.199424    1.195068
      2          6           0       -4.544851   -1.618463    0.866935
      3          6           0       -4.594460   -0.392949    0.195964
      4          6           0       -3.389936    0.226826   -0.133110
      5          6           0       -2.149411   -0.326628    0.180064
      6          6           0       -2.123792   -1.552792    0.851191
      7          1           0       -3.286268   -3.151686    1.716355
      8          1           0       -5.471928   -2.118381    1.132742
      9          1           0       -5.532357    0.079200   -0.070200
     10          1           0       -1.242026    0.195574   -0.098100
     11          1           0       -1.167602   -2.001628    1.104752
     12          7           0       -3.429756    1.524567   -0.843520
     13          8           0       -2.354409    2.050447   -1.122296
     14          8           0       -4.535561    1.991284   -1.108112
     15          6           0        3.438552    2.191500    1.242123
     16          6           0        2.229982    1.503136    1.093676
     17          6           0        2.187584    0.280927    0.416213
     18          6           0        3.378038   -0.226060   -0.102508
     19          6           0        4.597754    0.435979    0.028975
     20          6           0        4.616504    1.656667    0.710237
     21          1           0        3.462301    3.140350    1.769868
     22          1           0        1.313612    1.916101    1.505710
     23          1           0        1.265705   -0.272977    0.286803
     24          1           0        5.494834   -0.000906   -0.392685
     25          1           0        5.556537    2.189058    0.824004
     26          7           0        3.345672   -1.519153   -0.821719
     27          8           0        4.408312   -1.944514   -1.269490
     28          8           0        2.258274   -2.082832   -0.924046
 ---------------------------------------------------------------------

 SCF Done:  E(RHF) =  -868.337887787     A.U. after   16 cycles
 E2 =    -0.2599710662D+01 EUMP2 =    -0.87093759844921D+03

 The electronic state is 1-A.
 Alpha  occ. eigenvalues --  -20.61151 -20.61121 -20.60997 -20.60981 -15.86187
 Alpha  occ. eigenvalues --  -15.86041 -11.31494 -11.31367 -11.28144 -11.27988
 Alpha  occ. eigenvalues --  -11.27984 -11.27880 -11.27688 -11.27581 -11.27018
 Alpha  occ. eigenvalues --  -11.26988 -11.26889 -11.26879  -1.60207  -1.60065
 Alpha  occ. eigenvalues --   -1.39768  -1.39622  -1.19632  -1.19511  -1.09022
 Alpha  occ. eigenvalues --   -1.08900  -1.05042  -1.04910  -0.95886  -0.95755
 Alpha  occ. eigenvalues --   -0.86431  -0.86303  -0.82727  -0.82594  -0.77838
 Alpha  occ. eigenvalues --   -0.77631  -0.72411  -0.72261  -0.71523  -0.71385
 Alpha  occ. eigenvalues --   -0.70803  -0.70567  -0.65290  -0.65175  -0.65025
 Alpha  occ. eigenvalues --   -0.64896  -0.62585  -0.62096  -0.55515  -0.55361
 Alpha  occ. eigenvalues --   -0.53342  -0.53227  -0.53139  -0.52982  -0.49179
 Alpha  occ. eigenvalues --   -0.49147  -0.49024  -0.49007  -0.45187  -0.45038
 Alpha  occ. eigenvalues --   -0.37567  -0.37457  -0.36621  -0.36506
 Alpha virt. eigenvalues --    0.04733   0.04878   0.11025   0.11150   0.16265
 Alpha virt. eigenvalues --    0.16407   0.18470   0.22197   0.24610   0.27311
 Alpha virt. eigenvalues --    0.28022   0.29244   0.30774   0.31366   0.32534

 Mulliken charges:
               1
     1  C   -0.170600
     2  C   -0.218181
     3  C   -0.170753
     4  C    0.160561
     5  C   -0.176807
     6  C   -0.218489
     7  H    0.228130
     8  H    0.224549
     9  H    0.275947
    10  H    0.270029
    11  H    0.229163
    12  N    0.488271
    13  O   -0.463364
    14  O   -0.458943
    15  C   -0.170141
    16  C   -0.216930
    17  C   -0.175533
    18  C    0.160646
    19  C   -0.170133
    20  C   -0.217890
    21  H    0.228466
    22  H    0.227122
    23  H    0.268315
    24  H    0.276458
    25  H    0.225168
    26  N    0.488205
    27  O   -0.457483
    28  O   -0.465783
 Sum of Mulliken charges =  -0.00000

 Dipole moment (field-independent basis, Debye):
    X=              0.3236    Y=              0.0029    Z=              5.0854  Tot=              5.0957
 Quadrupole moment (field-independent basis, Debye-Ang):
   XX=            -93.7413   YY=           -109.8060   ZZ=           -107.4240
   XY=             32.4068   XZ=             -0.9026   YZ=              0.1266

 Normal termination of Gaussian 16 at Thu May  6 08:25:05 2021.
