 Gaussian 16, Revision A.03,
 Gaussian 16:  EM64L-G16RevA.03 25-Dec-2016

 -------------
 #p 6-31g* mp2
 -------------

 ------------------------------------------------------
 Input file generated by CHIRIPA (05-May-2021 14:51:08)
 ------------------------------------------------------
 Symbolic Z-matrix:
 Charge =  0 Multiplicity = 1

                         Standard orientation:
 ---------------------------------------------------------------------
 Center     Atomic      Atomic             Coordinates (Angstroms)
 Number     Number       Type             X           Y           Z
 ---------------------------------------------------------------------
      1          6           0        3.458169   -0.701254    0.211928
      2          6           0        4.106297    0.414042   -0.609066
      3          6           0        5.537494    0.719052   -0.165852
      4          1           0        3.462133   -0.416494    1.272985
      5          1           0        4.069986   -1.610297    0.129975
      6          1           0        3.492700    1.320315   -0.526706
      7          1           0        4.100616    0.126677   -1.668313
      8          1           0        6.169055   -0.169754   -0.264617
      9          1           0        5.557685    1.030666    0.883477
     10          1           0        5.981704    1.519276   -0.766001
     11          6           0        2.027193   -1.017646   -0.219268
     12          6           0        1.379065   -2.132942    0.601726
     13          6           0       -0.052131   -2.437952    0.158512
     14          1           0        1.415376   -0.108603   -0.137315
     15          1           0        2.023229   -1.302406   -1.280325
     16          1           0        1.384746   -1.845578    1.660973
     17          1           0        1.992662   -3.039216    0.519367
     18          1           0       -0.072323   -2.749566   -0.890816
     19          1           0       -0.683693   -1.549146    0.257277
     20          1           0       -0.496341   -3.238176    0.758662
     21          6           0       -2.253307    1.252075    0.439320
     22          6           0       -1.455481    2.299658   -0.337876
     23          6           0       -0.480752    3.076893    0.547338
     24          1           0       -2.806385    1.747888    1.248776
     25          1           0       -1.555663    0.552522    0.920270
     26          1           0       -2.154461    2.996212   -0.818351
     27          1           0       -0.904389    1.801319   -1.145695
     28          1           0        0.239183    2.398147    1.015951
     29          1           0       -1.017991    3.599829    1.345155
     30          1           0        0.079125    3.820383   -0.028526
     31          6           0       -3.232055    0.466825   -0.431980
     32          6           0       -4.029880   -0.580757    0.345216
     33          6           0       -5.004610   -1.357992   -0.539998
     34          1           0       -3.929700    1.166378   -0.912930
     35          1           0       -2.678978   -0.028988   -1.241436
     36          1           0       -4.580973   -0.082419    1.153035
     37          1           0       -3.330902   -1.277312    0.825691
     38          1           0       -4.467371   -1.880929   -1.337815
     39          1           0       -5.724545   -0.679247   -1.008612
     40          1           0       -5.564488   -2.101483    0.035866
 ---------------------------------------------------------------------

 SCF Done:  E(RHF) =  -470.733114473     A.U. after   11 cycles
 E2 =    -0.1584151206D+01 EUMP2 =    -0.47231726567988D+03

 The electronic state is 1-A.
 Alpha  occ. eigenvalues --  -11.21669 -11.21635 -11.21620 -11.21556 -11.21462
 Alpha  occ. eigenvalues --  -11.21420 -11.21396 -11.21346 -11.21135 -11.21127
 Alpha  occ. eigenvalues --  -11.21082 -11.21028  -1.08499  -1.08428  -1.03577
 Alpha  occ. eigenvalues --   -1.03534  -0.96051  -0.95970  -0.87049  -0.87003
 Alpha  occ. eigenvalues --   -0.79643  -0.79597  -0.78313  -0.78239  -0.65347
 Alpha  occ. eigenvalues --   -0.64898  -0.60968  -0.60937  -0.59396  -0.59351
 Alpha  occ. eigenvalues --   -0.57661  -0.57581  -0.55529  -0.55083  -0.52725
 Alpha  occ. eigenvalues --   -0.52676  -0.52473  -0.52378  -0.49987  -0.49926
 Alpha  occ. eigenvalues --   -0.47973  -0.47915  -0.46748  -0.46631  -0.45981
 Alpha  occ. eigenvalues --   -0.45806  -0.45730  -0.45424  -0.43830  -0.43790
 Alpha virt. eigenvalues --    0.19124   0.22271   0.23894   0.24501   0.26063
 Alpha virt. eigenvalues --    0.26798   0.26838   0.27578   0.28627   0.29791
 Alpha virt. eigenvalues --    0.30919   0.31444   0.31677   0.31753   0.32021

 Mulliken charges:
               1
     1  C   -0.298139
     2  C   -0.300111
     3  C   -0.475730
     4  H    0.149707
     5  H    0.149806
     6  H    0.152626
     7  H    0.151894
     8  H    0.155151
     9  H    0.155334
    10  H    0.160402
    11  C   -0.302694
    12  C   -0.299300
    13  C   -0.485534
    14  H    0.152551
    15  H    0.149863
    16  H    0.151881
    17  H    0.152498
    18  H    0.155279
    19  H    0.164671
    20  H    0.160650
    21  C   -0.303324
    22  C   -0.300543
    23  C   -0.477454
    24  H    0.150344
    25  H    0.151911
    26  H    0.152487
    27  H    0.153284
    28  H    0.155358
    29  H    0.155629
    30  H    0.160627
    31  C   -0.299495
    32  C   -0.302152
    33  C   -0.475614
    34  H    0.149950
    35  H    0.151052
    36  H    0.151547
    37  H    0.154932
    38  H    0.155722
    39  H    0.154817
    40  H    0.160115
 Sum of Mulliken charges =  -0.00000

 Dipole moment (field-independent basis, Debye):
    X=              0.0055    Y=             -0.0011    Z=             -0.0084  Tot=              0.0101
 Quadrupole moment (field-independent basis, Debye-Ang):
   XX=            -85.7584   YY=            -84.3214   ZZ=            -84.5982
   XY=             -1.5940   XZ=             -0.9654   YZ=              0.1989

 Normal termination of Gaussian 16 at Wed May  5 21:19:56 2021.
