 Gaussian 16, Revision A.03,
 Gaussian 16:  EM64L-G16RevA.03 25-Dec-2016

 -------------
 #p 6-31g* mp2
 -------------

 ------------------------------------------------------
 Input file generated by CHIRIPA (05-May-2021 14:55:20)
 ------------------------------------------------------
 Symbolic Z-matrix:
 Charge =  0 Multiplicity = 1

                         Standard orientation:
 ---------------------------------------------------------------------
 Center     Atomic      Atomic             Coordinates (Angstroms)
 Number     Number       Type             X           Y           Z
 ---------------------------------------------------------------------
      1          6           0        3.680823    1.367920    0.963740
      2          6           0        2.443081    1.086844    1.551543
      3          6           0        1.643276    0.050264    1.061278
      4          6           0        2.114306   -0.688429   -0.023043
      5          6           0        3.342836   -0.432761   -0.630200
      6          6           0        4.125965    0.608559   -0.123339
      7          1           0        4.295654    2.175002    1.351035
      8          1           0        2.094832    1.674921    2.395897
      9          1           0        0.680942   -0.188843    1.497352
     10          1           0        3.663163   -1.036408   -1.470687
     11          1           0        5.086781    0.824592   -0.581824
     12          7           0        1.276415   -1.788319   -0.550849
     13          8           0        1.714040   -2.424399   -1.507157
     14          8           0        0.197916   -1.993508    0.001758
     15          6           0       -2.942277    1.375294   -0.311310
     16          6           0       -1.589832    2.053909   -0.531218
     17          6           0       -1.724792    3.506162   -0.990065
     18          1           0       -3.520921    1.414253   -1.244368
     19          1           0       -3.513496    1.944944    0.434748
     20          1           0       -1.020778    1.482369   -1.275621
     21          1           0       -1.014264    2.013163    0.402420
     22          1           0       -2.270191    4.096060   -0.246317
     23          1           0       -2.276742    3.562251   -1.933891
     24          1           0       -0.746032    3.972036   -1.141228
     25          6           0       -2.823869   -0.076980    0.147609
     26          6           0       -4.176314   -0.755596    0.367517
     27          6           0       -4.041353   -2.207848    0.826365
     28          1           0       -2.252650   -0.646630   -0.598449
     29          1           0       -2.245225   -0.115939    1.080668
     30          1           0       -4.751882   -0.714849   -0.566120
     31          1           0       -4.745368   -0.184056    1.111921
     32          1           0       -3.489404   -2.263938    1.770190
     33          1           0       -3.495955   -2.797746    0.082617
     34          1           0       -5.020113   -2.673723    0.977528
 ---------------------------------------------------------------------

 SCF Done:  E(RHF) =  -669.535773944     A.U. after   15 cycles
 E2 =    -0.2092865765D+01 EUMP2 =    -0.67162863970877D+03

 The electronic state is 1-A.
 Alpha  occ. eigenvalues --  -20.60882 -20.60861 -15.85901 -11.31227 -11.27804
 Alpha  occ. eigenvalues --  -11.27793 -11.27541 -11.26807 -11.26797 -11.21479
 Alpha  occ. eigenvalues --  -11.21031 -11.20975 -11.20885 -11.20553 -11.20155
 Alpha  occ. eigenvalues --   -1.59939  -1.39493  -1.19402  -1.08806  -1.07926
 Alpha  occ. eigenvalues --   -1.04801  -1.03051  -0.95650  -0.95474  -0.86494
 Alpha  occ. eigenvalues --   -0.86199  -0.82485  -0.79166  -0.77806  -0.77387
 Alpha  occ. eigenvalues --   -0.72122  -0.71252  -0.70514  -0.65062  -0.64817
 Alpha  occ. eigenvalues --   -0.64558  -0.62149  -0.60460  -0.58892  -0.57076
 Alpha  occ. eigenvalues --   -0.55309  -0.54757  -0.53134  -0.52897  -0.52222
 Alpha  occ. eigenvalues --   -0.51874  -0.49418  -0.48894  -0.48890  -0.47457
 Alpha  occ. eigenvalues --   -0.46223  -0.45475  -0.45179  -0.44500  -0.43282
 Alpha  occ. eigenvalues --   -0.37378  -0.36378
 Alpha virt. eigenvalues --    0.04956   0.11232   0.16393   0.20655   0.23196
 Alpha virt. eigenvalues --    0.24707   0.25178   0.27535   0.27718   0.28409
 Alpha virt. eigenvalues --    0.29435   0.31017   0.31879   0.32006   0.32409

 Mulliken charges:
               1
     1  C   -0.170296
     2  C   -0.219968
     3  C   -0.168351
     4  C    0.156421
     5  C   -0.170666
     6  C   -0.218769
     7  H    0.225804
     8  H    0.223668
     9  H    0.278755
    10  H    0.275570
    11  H    0.223538
    12  N    0.488062
    13  O   -0.460235
    14  O   -0.459446
    15  C   -0.298682
    16  C   -0.297460
    17  C   -0.475283
    18  H    0.149750
    19  H    0.145608
    20  H    0.153703
    21  H    0.142192
    22  H    0.153673
    23  H    0.156807
    24  H    0.157085
    25  C   -0.300181
    26  C   -0.300144
    27  C   -0.474871
    28  H    0.169625
    29  H    0.142436
    30  H    0.150118
    31  H    0.146323
    32  H    0.153706
    33  H    0.166350
    34  H    0.155158
 Sum of Mulliken charges =  -0.00000

 Dipole moment (field-independent basis, Debye):
    X=              3.0748    Y=              3.6779    Z=              1.7573  Tot=              5.1058
 Quadrupole moment (field-independent basis, Debye-Ang):
   XX=            -80.7499   YY=           -101.8654   ZZ=            -92.0867
   XY=              5.8242   XZ=              1.5478   YZ=              0.2028

 Normal termination of Gaussian 16 at Thu May  6 04:31:01 2021.
