 Gaussian 16, Revision A.03,
 Gaussian 16:  EM64L-G16RevA.03 25-Dec-2016

 -------------
 #p 6-31g* mp2
 -------------

 ------------------------------------------------------
 Input file generated by CHIRIPA (05-May-2021 14:53:17)
 ------------------------------------------------------
 Symbolic Z-matrix:
 Charge =  0 Multiplicity = 1

                         Standard orientation:
 ---------------------------------------------------------------------
 Center     Atomic      Atomic             Coordinates (Angstroms)
 Number     Number       Type             X           Y           Z
 ---------------------------------------------------------------------
      1          6           0       -3.772673    0.818838   -0.053761
      2          6           0       -3.012640    2.138217    0.086150
      3          6           0       -3.936852    3.356248    0.081061
      4          1           0       -4.354746    0.835343   -0.985353
      5          1           0       -4.498431    0.733012    0.766790
      6          1           0       -2.287567    2.220889   -0.733636
      7          1           0       -2.432158    2.118493    1.017423
      8          1           0       -4.651838    3.300774    0.908297
      9          1           0       -4.506425    3.403752   -0.852712
     10          1           0       -3.372732    4.288667    0.182167
     11          6           0       -2.862386   -0.407984   -0.050336
     12          6           0       -3.622420   -1.727363   -0.190247
     13          6           0       -2.698207   -2.945394   -0.185158
     14          1           0       -2.136628   -0.322158   -0.870887
     15          1           0       -2.280313   -0.424489    0.881256
     16          1           0       -4.202901   -1.707639   -1.121520
     17          1           0       -4.347493   -1.810035    0.629539
     18          1           0       -2.128634   -2.992898    0.748615
     19          1           0       -1.983221   -2.889920   -1.012394
     20          1           0       -3.262327   -3.877813   -0.286264
     21          6           0        4.728611    1.136991   -0.300790
     22          6           0        4.291480    0.836267    0.993430
     23          6           0        3.109060    0.117939    1.194509
     24          6           0        2.385243   -0.285925    0.073673
     25          6           0        2.794577   -0.001730   -1.228237
     26          6           0        3.980083    0.717773   -1.405545
     27          1           0        5.648343    1.695462   -0.447760
     28          1           0        4.870766    1.160560    1.853260
     29          1           0        2.747538   -0.128481    2.185467
     30          1           0        2.195715   -0.338465   -2.065728
     31          1           0        4.317143    0.949893   -2.411803
     32          7           0        1.131833   -1.047009    0.273964
     33          8           0        0.512219   -1.391448   -0.730066
     34          8           0        0.792759   -1.284695    1.431190
 ---------------------------------------------------------------------

 SCF Done:  E(RHF) =  -669.536254284     A.U. after   15 cycles
 E2 =    -0.2092836436D+01 EUMP2 =    -0.67162909071996D+03

 The electronic state is 1-A.
 Alpha  occ. eigenvalues --  -20.61071 -20.61062 -15.86067 -11.31359 -11.27915
 Alpha  occ. eigenvalues --  -11.27910 -11.27643 -11.26912 -11.26902 -11.20788
 Alpha  occ. eigenvalues --  -11.20458 -11.20228 -11.19996 -11.19623 -11.18981
 Alpha  occ. eigenvalues --   -1.60097  -1.39661  -1.19519  -1.08930  -1.07115
 Alpha  occ. eigenvalues --   -1.04910  -1.02215  -0.95779  -0.94639  -0.86313
 Alpha  occ. eigenvalues --   -0.85651  -0.82621  -0.78376  -0.77675  -0.76805
 Alpha  occ. eigenvalues --   -0.72296  -0.71392  -0.70629  -0.65179  -0.64913
 Alpha  occ. eigenvalues --   -0.63764  -0.62259  -0.59626  -0.58117  -0.56230
 Alpha  occ. eigenvalues --   -0.55413  -0.53922  -0.53243  -0.53002  -0.51417
 Alpha  occ. eigenvalues --   -0.51024  -0.49141  -0.49054  -0.48560  -0.46588
 Alpha  occ. eigenvalues --   -0.45428  -0.45202  -0.44259  -0.44035  -0.42454
 Alpha  occ. eigenvalues --   -0.37491  -0.36508
 Alpha virt. eigenvalues --    0.04823   0.11148   0.16315   0.21271   0.24036
 Alpha virt. eigenvalues --    0.25759   0.27203   0.27903   0.28116   0.28842
 Alpha virt. eigenvalues --    0.29385   0.30889   0.32288   0.32691   0.32780

 Mulliken charges:
               1
     1  C   -0.297401
     2  C   -0.298170
     3  C   -0.474527
     4  H    0.145081
     5  H    0.145819
     6  H    0.148352
     7  H    0.150880
     8  H    0.154370
     9  H    0.153634
    10  H    0.155798
    11  C   -0.302388
    12  C   -0.299512
    13  C   -0.475509
    14  H    0.159342
    15  H    0.158125
    16  H    0.143790
    17  H    0.144650
    18  H    0.164626
    19  H    0.168343
    20  H    0.146143
    21  C   -0.170420
    22  C   -0.218553
    23  C   -0.170408
    24  C    0.158776
    25  C   -0.170664
    26  C   -0.218513
    27  H    0.226250
    28  H    0.224052
    29  H    0.275870
    30  H    0.275462
    31  H    0.224021
    32  N    0.490598
    33  O   -0.458326
    34  O   -0.459591
 Sum of Mulliken charges =  -0.00000

 Dipole moment (field-independent basis, Debye):
    X=              4.8962    Y=              2.5753    Z=             -0.6875  Tot=              5.5747
 Quadrupole moment (field-independent basis, Debye-Ang):
   XX=            -76.1324   YY=            -98.8796   ZZ=            -88.8531
   XY=              5.8965   XZ=             -0.8398   YZ=              0.5659

 Normal termination of Gaussian 16 at Wed May  5 15:44:27 2021.
