 Gaussian 16, Revision A.03,
 Gaussian 16:  EM64L-G16RevA.03 25-Dec-2016

 -------------
 #p 6-31g* mp2
 -------------

 ------------------------------------------------------
 Input file generated by CHIRIPA (05-May-2021 14:53:17)
 ------------------------------------------------------
 Symbolic Z-matrix:
 Charge =  0 Multiplicity = 1

                         Standard orientation:
 ---------------------------------------------------------------------
 Center     Atomic      Atomic             Coordinates (Angstroms)
 Number     Number       Type             X           Y           Z
 ---------------------------------------------------------------------
      1          6           0       -2.418805   -0.848628    0.207471
      2          6           0       -2.241596   -2.018449    1.176027
      3          6           0       -0.807272   -2.547091    1.208351
      4          1           0       -2.121196   -1.167422   -0.800866
      5          1           0       -1.734584   -0.037861    0.493639
      6          1           0       -2.926936   -2.826231    0.888946
      7          1           0       -2.539844   -1.696890    2.182140
      8          1           0       -0.112969   -1.758665    1.516456
      9          1           0       -0.502260   -2.894422    0.215914
     10          1           0       -0.703136   -3.382971    1.907150
     11          6           0       -3.847385   -0.309186    0.163995
     12          6           0       -4.024594    0.860635   -0.804561
     13          6           0       -5.458919    1.389277   -0.836885
     14          1           0       -4.531607   -1.119954   -0.122173
     15          1           0       -4.144995    0.009608    1.172333
     16          1           0       -3.726346    0.539076   -1.810674
     17          1           0       -3.339255    1.668416   -0.517480
     18          1           0       -5.763930    1.736608    0.155552
     19          1           0       -6.153222    0.600850   -1.144990
     20          1           0       -5.563055    2.225157   -1.535684
     21          6           0        1.429967    2.580777    0.749067
     22          6           0        2.787136    2.312957    0.956162
     23          6           0        3.361714    1.136782    0.465225
     24          6           0        2.546124    0.246496   -0.231549
     25          6           0        1.190810    0.484965   -0.454140
     26          6           0        0.637533    1.667536    0.045818
     27          1           0        0.991895    3.496943    1.133944
     28          1           0        3.404961    3.020379    1.501956
     29          1           0        4.409623    0.904416    0.611205
     30          1           0        0.600336   -0.239328   -1.002007
     31          1           0       -0.416751    1.872905   -0.116517
     32          7           0        3.143129   -1.002054   -0.756057
     33          8           0        2.403146   -1.770273   -1.366714
     34          8           0        4.339741   -1.188808   -0.546577
 ---------------------------------------------------------------------

 SCF Done:  E(RHF) =  -669.535019273     A.U. after   15 cycles
 E2 =    -0.2093845794D+01 EUMP2 =    -0.67162886506734D+03

 The electronic state is 1-A.
 Alpha  occ. eigenvalues --  -20.60747 -20.60739 -15.85793 -11.31148 -11.27738
 Alpha  occ. eigenvalues --  -11.27685 -11.27477 -11.26745 -11.26698 -11.22327
 Alpha  occ. eigenvalues --  -11.21992 -11.21922 -11.21830 -11.21624 -11.20978
 Alpha  occ. eigenvalues --   -1.59814  -1.39368  -1.19334  -1.08962  -1.08727
 Alpha  occ. eigenvalues --   -1.04738  -1.03932  -0.96359  -0.95562  -0.87375
 Alpha  occ. eigenvalues --   -0.86129  -0.82407  -0.80022  -0.78868  -0.77392
 Alpha  occ. eigenvalues --   -0.72013  -0.71133  -0.70435  -0.65652  -0.64977
 Alpha  occ. eigenvalues --   -0.64704  -0.62089  -0.61324  -0.59752  -0.57985
 Alpha  occ. eigenvalues --   -0.55635  -0.55240  -0.53098  -0.53002  -0.52877
 Alpha  occ. eigenvalues --   -0.52735  -0.50299  -0.48773  -0.48767  -0.48308
 Alpha  occ. eigenvalues --   -0.47062  -0.46294  -0.46228  -0.44761  -0.44217
 Alpha  occ. eigenvalues --   -0.37318  -0.36278
 Alpha virt. eigenvalues --    0.05059   0.11241   0.16418   0.19816   0.22807
 Alpha virt. eigenvalues --    0.23204   0.24832   0.25597   0.27420   0.28454
 Alpha virt. eigenvalues --    0.29364   0.30725   0.31362   0.31517   0.32030

 Mulliken charges:
               1
     1  C   -0.308338
     2  C   -0.298671
     3  C   -0.482358
     4  H    0.150406
     5  H    0.145862
     6  H    0.154255
     7  H    0.151363
     8  H    0.154342
     9  H    0.166440
    10  H    0.162683
    11  C   -0.297723
    12  C   -0.301289
    13  C   -0.475823
    14  H    0.153727
    15  H    0.150613
    16  H    0.154173
    17  H    0.142968
    18  H    0.155841
    19  H    0.158511
    20  H    0.161118
    21  C   -0.171971
    22  C   -0.218839
    23  C   -0.170659
    24  C    0.157006
    25  C   -0.169948
    26  C   -0.225010
    27  H    0.225589
    28  H    0.223265
    29  H    0.275524
    30  H    0.280870
    31  H    0.228538
    32  N    0.488684
    33  O   -0.460677
    34  O   -0.460472
 Sum of Mulliken charges =  -0.00000

 Dipole moment (field-independent basis, Debye):
    X=             -2.1726    Y=              4.2566    Z=              1.8329  Tot=              5.1185
 Quadrupole moment (field-independent basis, Debye-Ang):
   XX=           -102.0596   YY=            -92.3546   ZZ=            -95.0877
   XY=             12.9396   XZ=              7.2847   YZ=              0.6195

 Normal termination of Gaussian 16 at Thu May  6 07:34:32 2021.
