 Gaussian 16, Revision A.03,
 Gaussian 16:  EM64L-G16RevA.03 25-Dec-2016

 -------------
 #p 6-31g* mp2
 -------------

 ------------------------------------------------------
 Input file generated by CHIRIPA (05-May-2021 14:57:26)
 ------------------------------------------------------
 Symbolic Z-matrix:
 Charge =  0 Multiplicity = 1

                         Standard orientation:
 ---------------------------------------------------------------------
 Center     Atomic      Atomic             Coordinates (Angstroms)
 Number     Number       Type             X           Y           Z
 ---------------------------------------------------------------------
      1          6           0       -2.003914    1.941503    0.262013
      2          6           0       -3.255332    2.117729   -0.337502
      3          6           0       -4.128306    1.036385   -0.489688
      4          6           0       -3.715702   -0.212899   -0.028888
      5          6           0       -2.475352   -0.420409    0.572578
      6          6           0       -1.618598    0.675229    0.714342
      7          1           0       -1.332067    2.787069    0.376187
      8          1           0       -3.557229    3.099993   -0.689724
      9          1           0       -5.102820    1.144638   -0.950146
     10          1           0       -2.202380   -1.411601    0.913816
     11          1           0       -0.647328    0.535416    1.180317
     12          7           0       -4.631295   -1.365235   -0.184484
     13          8           0       -4.244174   -2.455707    0.229818
     14          8           0       -5.718722   -1.156146   -0.717797
     15          6           0        2.276290    2.165775    0.341020
     16          6           0        2.210405    1.150599    1.301019
     17          6           0        2.920154   -0.040860    1.124304
     18          6           0        3.689370   -0.184178   -0.029411
     19          6           0        3.775282    0.808839   -1.004001
     20          6           0        3.057142    1.991961   -0.806403
     21          1           0        1.721680    3.088090    0.486408
     22          1           0        1.604795    1.282823    2.193095
     23          1           0        2.887033   -0.843036    1.851515
     24          1           0        4.387526    0.647933   -1.883026
     25          1           0        3.110183    2.778656   -1.553627
     26          7           0        4.445191   -1.441109   -0.227545
     27          8           0        5.115658   -1.542805   -1.252615
     28          8           0        4.352826   -2.300795    0.645980
 ---------------------------------------------------------------------

 SCF Done:  E(RHF) =  -868.336150296     A.U. after   16 cycles
 E2 =    -0.2601183851D+01 EUMP2 =    -0.87093733414748D+03

 The electronic state is 1-A.
 Alpha  occ. eigenvalues --  -20.61404 -20.61398 -20.61034 -20.61026 -15.86467
 Alpha  occ. eigenvalues --  -15.86089 -11.32071 -11.31574 -11.28723 -11.28644
 Alpha  occ. eigenvalues --  -11.28568 -11.28146 -11.28134 -11.28021 -11.27847
 Alpha  occ. eigenvalues --  -11.27707 -11.27233 -11.27190  -1.60474  -1.60105
 Alpha  occ. eigenvalues --   -1.40021  -1.39655  -1.20294  -1.19765  -1.09663
 Alpha  occ. eigenvalues --   -1.09160  -1.05739  -1.05178  -0.96445  -0.95972
 Alpha  occ. eigenvalues --   -0.87148  -0.86577  -0.83277  -0.82791  -0.78267
 Alpha  occ. eigenvalues --   -0.77799  -0.72682  -0.72307  -0.71800  -0.71457
 Alpha  occ. eigenvalues --   -0.71429  -0.70915  -0.65959  -0.65857  -0.65424
 Alpha  occ. eigenvalues --   -0.65137  -0.63086  -0.62493  -0.56329  -0.55723
 Alpha  occ. eigenvalues --   -0.54110  -0.53853  -0.53501  -0.53180  -0.49460
 Alpha  occ. eigenvalues --   -0.49420  -0.49075  -0.49053  -0.45373  -0.45034
 Alpha  occ. eigenvalues --   -0.38332  -0.37762  -0.37325  -0.36756
 Alpha virt. eigenvalues --    0.04251   0.04735   0.10132   0.10882   0.15558
 Alpha virt. eigenvalues --    0.16192   0.18442   0.22164   0.24802   0.25518
 Alpha virt. eigenvalues --    0.27861   0.29161   0.29982   0.31530   0.32587

 Mulliken charges:
               1
     1  C   -0.172850
     2  C   -0.218028
     3  C   -0.170762
     4  C    0.159630
     5  C   -0.172060
     6  C   -0.218660
     7  H    0.215802
     8  H    0.223292
     9  H    0.276854
    10  H    0.277944
    11  H    0.223148
    12  N    0.487888
    13  O   -0.458404
    14  O   -0.459559
    15  C   -0.171514
    16  C   -0.226607
    17  C   -0.170908
    18  C    0.160126
    19  C   -0.168096
    20  C   -0.217162
    21  H    0.221815
    22  H    0.220928
    23  H    0.278537
    24  H    0.279455
    25  H    0.226350
    26  N    0.488021
    27  O   -0.457253
    28  O   -0.457927
 Sum of Mulliken charges =  -0.00000

 Dipole moment (field-independent basis, Debye):
    X=              0.7783    Y=              8.3090    Z=              1.0841  Tot=              8.4154
 Quadrupole moment (field-independent basis, Debye-Ang):
   XX=           -145.0728   YY=           -106.9211   ZZ=           -101.0291
   XY=             -0.5026   XZ=              0.2404   YZ=             -4.0189

 Normal termination of Gaussian 16 at Thu May  6 02:02:22 2021.
