 Gaussian 16, Revision A.03,
 Gaussian 16:  EM64L-G16RevA.03 25-Dec-2016

 -------------
 #p 6-31g* mp2
 -------------

 ------------------------------------------------------
 Input file generated by CHIRIPA (05-May-2021 14:51:08)
 ------------------------------------------------------
 Symbolic Z-matrix:
 Charge =  0 Multiplicity = 1

                         Standard orientation:
 ---------------------------------------------------------------------
 Center     Atomic      Atomic             Coordinates (Angstroms)
 Number     Number       Type             X           Y           Z
 ---------------------------------------------------------------------
      1          6           0        3.422619    0.095650   -0.327713
      2          6           0        2.968691   -1.350369   -0.125317
      3          6           0        4.005334   -2.367735   -0.602948
      4          1           0        3.636610    0.260443   -1.392605
      5          1           0        4.368031    0.254413    0.209303
      6          1           0        2.023703   -1.505972   -0.661416
      7          1           0        2.755572   -1.511685    0.939189
      8          1           0        4.947722   -2.241233   -0.060267
      9          1           0        4.211695   -2.235488   -1.669966
     10          1           0        3.660367   -3.394925   -0.448880
     11          6           0        2.396934    1.124383    0.144948
     12          6           0        2.850862    2.570402   -0.057448
     13          6           0        1.814219    3.587768    0.420183
     14          1           0        1.451522    0.965621   -0.392067
     15          1           0        2.182943    0.959590    1.209840
     16          1           0        3.063981    2.731718   -1.121954
     17          1           0        3.795850    2.726006    0.478651
     18          1           0        1.607858    3.455521    1.487201
     19          1           0        0.871831    3.461266   -0.122498
     20          1           0        2.159186    4.614959    0.266115
     21          6           0       -3.246092    0.075240    0.064046
     22          6           0       -4.698426    0.019396   -0.410917
     23          6           0       -5.357665    1.398076   -0.460305
     24          1           0       -3.210368    0.536240    1.060614
     25          1           0       -2.673804    0.732582   -0.605121
     26          1           0       -5.267496   -0.638742    0.258136
     27          1           0       -4.730718   -0.441700   -1.406389
     28          1           0       -4.815092    2.060304   -1.142705
     29          1           0       -5.354920    1.862143    0.531278
     30          1           0       -6.395362    1.334862   -0.802426
     31          6           0       -2.573461   -1.295273    0.118719
     32          6           0       -1.121127   -1.239429    0.593682
     33          6           0       -0.461889   -2.618109    0.643069
     34          1           0       -3.145749   -1.952615    0.787886
     35          1           0       -2.609186   -1.756274   -0.877849
     36          1           0       -1.088836   -0.778334    1.589153
     37          1           0       -0.552057   -0.581292   -0.075372
     38          1           0       -0.464633   -3.082177   -0.348512
     39          1           0       -1.004461   -3.280338    1.325470
     40          1           0        0.575809   -2.554895    0.985191
 ---------------------------------------------------------------------

 SCF Done:  E(RHF) =  -470.731787454     A.U. after   11 cycles
 E2 =    -0.1584477077D+01 EUMP2 =    -0.47231626453054D+03

 The electronic state is 1-A.
 Alpha  occ. eigenvalues --  -11.21603 -11.21585 -11.21576 -11.21515 -11.21402
 Alpha  occ. eigenvalues --  -11.21373 -11.21342 -11.21310 -11.21074 -11.21068
 Alpha  occ. eigenvalues --  -11.21058 -11.20889  -1.08464  -1.08368  -1.03575
 Alpha  occ. eigenvalues --   -1.03444  -0.95996  -0.95918  -0.87041  -0.86909
 Alpha  occ. eigenvalues --   -0.79692  -0.79471  -0.78355  -0.78125  -0.65171
 Alpha  occ. eigenvalues --   -0.64938  -0.61007  -0.60819  -0.59612  -0.59105
 Alpha  occ. eigenvalues --   -0.57685  -0.57447  -0.55279  -0.55216  -0.52745
 Alpha  occ. eigenvalues --   -0.52589  -0.52473  -0.52270  -0.49982  -0.49825
 Alpha  occ. eigenvalues --   -0.48122  -0.47605  -0.46697  -0.46580  -0.45996
 Alpha  occ. eigenvalues --   -0.45754  -0.45707  -0.45312  -0.43814  -0.43662
 Alpha virt. eigenvalues --    0.21316   0.23276   0.23526   0.24307   0.25313
 Alpha virt. eigenvalues --    0.26327   0.27044   0.27617   0.28008   0.29568
 Alpha virt. eigenvalues --    0.30025   0.31428   0.31681   0.31918   0.32402

 Mulliken charges:
               1
     1  C   -0.297540
     2  C   -0.305568
     3  C   -0.476111
     4  H    0.149199
     5  H    0.149311
     6  H    0.159631
     7  H    0.151688
     8  H    0.155133
     9  H    0.155126
    10  H    0.160788
    11  C   -0.301766
    12  C   -0.299431
    13  C   -0.475507
    14  H    0.152917
    15  H    0.149946
    16  H    0.151672
    17  H    0.151957
    18  H    0.155315
    19  H    0.155093
    20  H    0.160189
    21  C   -0.297927
    22  C   -0.299602
    23  C   -0.475658
    24  H    0.149835
    25  H    0.148552
    26  H    0.151974
    27  H    0.151767
    28  H    0.155023
    29  H    0.155256
    30  H    0.160180
    31  C   -0.297792
    32  C   -0.304681
    33  C   -0.482002
    34  H    0.149523
    35  H    0.149055
    36  H    0.151615
    37  H    0.156496
    38  H    0.152902
    39  H    0.154078
    40  H    0.169363
 Sum of Mulliken charges =  -0.00000

 Dipole moment (field-independent basis, Debye):
    X=              0.0422    Y=              0.0065    Z=              0.0051  Tot=              0.0430
 Quadrupole moment (field-independent basis, Debye-Ang):
   XX=            -85.4467   YY=            -86.4689   ZZ=            -83.0425
   XY=              1.0457   XZ=              0.2386   YZ=             -0.2665

 Normal termination of Gaussian 16 at Wed May  5 18:05:23 2021.
