 Gaussian 16, Revision A.03,
 Gaussian 16:  EM64L-G16RevA.03 25-Dec-2016

 -------------
 #p 6-31g* mp2
 -------------

 ------------------------------------------------------
 Input file generated by CHIRIPA (05-May-2021 14:57:23)
 ------------------------------------------------------
 Symbolic Z-matrix:
 Charge =  0 Multiplicity = 1

                         Standard orientation:
 ---------------------------------------------------------------------
 Center     Atomic      Atomic             Coordinates (Angstroms)
 Number     Number       Type             X           Y           Z
 ---------------------------------------------------------------------
      1          6           0        1.468355   -1.714600    1.753783
      2          6           0        1.591257   -2.157647    0.432751
      3          6           0        2.210884   -1.355727   -0.530335
      4          6           0        2.698449   -0.110748   -0.135878
      5          6           0        2.591195    0.358679    1.172337
      6          6           0        1.967836   -0.460063    2.118716
      7          1           0        0.985565   -2.344084    2.495442
      8          1           0        1.204286   -3.131480    0.146484
      9          1           0        2.319438   -1.674006   -1.560060
     10          1           0        2.986770    1.334265    1.427621
     11          1           0        1.873795   -0.113396    3.143911
     12          7           0        3.356396    0.747113   -1.146610
     13          8           0        3.777648    1.839871   -0.773697
     14          8           0        3.438384    0.310503   -2.292598
     15          6           0       -2.040212    2.566522    0.810279
     16          6           0       -3.076489    2.384494   -0.111413
     17          6           0       -3.389882    1.106685   -0.584211
     18          6           0       -2.643164    0.028387   -0.112006
     19          6           0       -1.604886    0.177421    0.806174
     20          6           0       -1.309006    1.464347    1.265329
     21          1           0       -1.803563    3.562696    1.172260
     22          1           0       -3.646036    3.238624   -0.466553
     23          1           0       -4.187006    0.937242   -1.297864
     24          1           0       -1.054869   -0.693341    1.141847
     25          1           0       -0.503683    1.602722    1.981116
     26          7           0       -2.965669   -1.329198   -0.605314
     27          8           0       -2.292835   -2.262868   -0.173812
     28          8           0       -3.885174   -1.433899   -1.414130
 ---------------------------------------------------------------------

 SCF Done:  E(RHF) =  -868.338193337     A.U. after   16 cycles
 E2 =    -0.2602945934D+01 EUMP2 =    -0.87094113927011D+03

 The electronic state is 1-A.
 Alpha  occ. eigenvalues --  -20.61126 -20.61122 -20.61098 -20.61079 -15.86166
 Alpha  occ. eigenvalues --  -15.86148 -11.31640 -11.31300 -11.28279 -11.28087
 Alpha  occ. eigenvalues --  -11.27887 -11.27870 -11.27782 -11.27594 -11.27353
 Alpha  occ. eigenvalues --  -11.27055 -11.26843 -11.26833  -1.60184  -1.60174
 Alpha  occ. eigenvalues --   -1.39737  -1.39735  -1.19826  -1.19469  -1.09200
 Alpha  occ. eigenvalues --   -1.08911  -1.05213  -1.04844  -0.96013  -0.95770
 Alpha  occ. eigenvalues --   -0.86587  -0.86265  -0.82815  -0.82621  -0.77862
 Alpha  occ. eigenvalues --   -0.77685  -0.72390  -0.72376  -0.71509  -0.71485
 Alpha  occ. eigenvalues --   -0.70894  -0.70593  -0.65447  -0.65170  -0.65129
 Alpha  occ. eigenvalues --   -0.64873  -0.62522  -0.62267  -0.55676  -0.55419
 Alpha  occ. eigenvalues --   -0.53634  -0.53254  -0.53111  -0.52852  -0.49158
 Alpha  occ. eigenvalues --   -0.49132  -0.49131  -0.49106  -0.45190  -0.45117
 Alpha  occ. eigenvalues --   -0.37804  -0.37475  -0.36802  -0.36402
 Alpha virt. eigenvalues --    0.04568   0.04868   0.10764   0.11205   0.15981
 Alpha virt. eigenvalues --    0.16352   0.20393   0.21963   0.26121   0.27521
 Alpha virt. eigenvalues --    0.28166   0.28773   0.30338   0.31486   0.32294

 Mulliken charges:
               1
     1  C   -0.190567
     2  C   -0.209809
     3  C   -0.170681
     4  C    0.161347
     5  C   -0.173491
     6  C   -0.224014
     7  H    0.232106
     8  H    0.238496
     9  H    0.280342
    10  H    0.274281
    11  H    0.222043
    12  N    0.488021
    13  O   -0.461763
    14  O   -0.456765
    15  C   -0.169261
    16  C   -0.218805
    17  C   -0.169589
    18  C    0.156199
    19  C   -0.172726
    20  C   -0.221233
    21  H    0.226579
    22  H    0.224539
    23  H    0.275792
    24  H    0.279324
    25  H    0.217751
    26  N    0.488635
    27  O   -0.468839
    28  O   -0.457914
 Sum of Mulliken charges =  -0.00000

 Dipole moment (field-independent basis, Debye):
    X=             -1.0479    Y=              1.5957    Z=              5.0685  Tot=              5.4161
 Quadrupole moment (field-independent basis, Debye-Ang):
   XX=           -121.5530   YY=           -100.9329   ZZ=           -103.1900
   XY=            -22.2292   XZ=              8.0942   YZ=              1.0358

 Normal termination of Gaussian 16 at Thu May  6 09:44:39 2021.
