 Gaussian 16, Revision A.03,
 Gaussian 16:  EM64L-G16RevA.03 25-Dec-2016

 -------------
 #p 6-31g* mp2
 -------------

 ------------------------------------------------------
 Input file generated by CHIRIPA (05-May-2021 14:53:12)
 ------------------------------------------------------
 Symbolic Z-matrix:
 Charge =  0 Multiplicity = 1

                         Standard orientation:
 ---------------------------------------------------------------------
 Center     Atomic      Atomic             Coordinates (Angstroms)
 Number     Number       Type             X           Y           Z
 ---------------------------------------------------------------------
      1          6           0        3.336873   -0.207268   -0.045568
      2          6           0        3.144445   -1.361591    0.938553
      3          6           0        3.836130   -2.647271    0.484247
      4          1           0        2.950678   -0.504909   -1.030051
      5          1           0        4.411906   -0.020327   -0.174999
      6          1           0        2.070062   -1.545388    1.067150
      7          1           0        3.530969   -1.061097    1.920855
      8          1           0        4.913507   -2.486871    0.374106
      9          1           0        3.444300   -2.973914   -0.484450
     10          1           0        3.685704   -3.459391    1.202365
     11          6           0        2.651209    1.084905    0.394752
     12          6           0        2.843638    2.239229   -0.589368
     13          6           0        2.151953    3.524909   -0.135062
     14          1           0        1.576176    0.897965    0.524184
     15          1           0        3.037404    1.382547    1.379236
     16          1           0        2.457113    1.938735   -1.571671
     17          1           0        3.918020    2.423026   -0.717965
     18          1           0        2.543782    3.851551    0.833635
     19          1           0        1.074575    3.364508   -0.024922
     20          1           0        2.302379    4.337029   -0.853180
     21          6           0       -0.773302   -2.182610   -0.864008
     22          6           0       -2.025952   -2.500382   -0.328835
     23          6           0       -2.901643   -1.489192    0.077624
     24          6           0       -2.490470   -0.164964   -0.066058
     25          6           0       -1.248950    0.183620   -0.595594
     26          6           0       -0.389475   -0.843984   -0.995447
     27          1           0       -0.099343   -2.974502   -1.177190
     28          1           0       -2.326696   -3.539102   -0.225582
     29          1           0       -3.877161   -1.706984    0.495175
     30          1           0       -0.977178    1.228303   -0.686120
     31          1           0        0.582746   -0.594240   -1.410730
     32          7           0       -3.408940    0.914225    0.360746
     33          8           0       -3.023036    2.073074    0.223692
     34          8           0       -4.497351    0.580811    0.824248
 ---------------------------------------------------------------------

 SCF Done:  E(RHF) =  -669.534817485     A.U. after   15 cycles
 E2 =    -0.2094284582D+01 EUMP2 =    -0.67162910206638D+03

 The electronic state is 1-A.
 Alpha  occ. eigenvalues --  -20.60817 -20.60811 -15.85870 -11.31263 -11.27826
 Alpha  occ. eigenvalues --  -11.27821 -11.27564 -11.26846 -11.26812 -11.22317
 Alpha  occ. eigenvalues --  -11.22248 -11.22232 -11.22019 -11.21867 -11.21450
 Alpha  occ. eigenvalues --   -1.59891  -1.39444  -1.19438  -1.09193  -1.08815
 Alpha  occ. eigenvalues --   -1.04843  -1.04198  -0.96647  -0.95654  -0.87650
 Alpha  occ. eigenvalues --   -0.86236  -0.82491  -0.80250  -0.78980  -0.77541
 Alpha  occ. eigenvalues --   -0.72088  -0.71214  -0.70540  -0.66095  -0.65089
 Alpha  occ. eigenvalues --   -0.64693  -0.62128  -0.61598  -0.60005  -0.58239
 Alpha  occ. eigenvalues --   -0.56003  -0.55302  -0.53315  -0.53161  -0.53067
 Alpha  occ. eigenvalues --   -0.52856  -0.50600  -0.48849  -0.48842  -0.48554
 Alpha  occ. eigenvalues --   -0.47309  -0.46512  -0.46446  -0.44842  -0.44461
 Alpha  occ. eigenvalues --   -0.37399  -0.36390
 Alpha virt. eigenvalues --    0.04955   0.11101   0.16328   0.18419   0.22106
 Alpha virt. eigenvalues --    0.23628   0.25019   0.25706   0.27028   0.28275
 Alpha virt. eigenvalues --    0.29499   0.30900   0.31250   0.31840   0.32117

 Mulliken charges:
               1
     1  C   -0.300369
     2  C   -0.304670
     3  C   -0.475251
     4  H    0.138446
     5  H    0.154810
     6  H    0.155018
     7  H    0.156625
     8  H    0.158642
     9  H    0.147783
    10  H    0.162413
    11  C   -0.306512
    12  C   -0.301285
    13  C   -0.477944
    14  H    0.151601
    15  H    0.155680
    16  H    0.144869
    17  H    0.155200
    18  H    0.158889
    19  H    0.158356
    20  H    0.163430
    21  C   -0.173951
    22  C   -0.218505
    23  C   -0.170761
    24  C    0.158164
    25  C   -0.175607
    26  C   -0.220958
    27  H    0.226895
    28  H    0.223982
    29  H    0.275954
    30  H    0.278591
    31  H    0.232947
    32  N    0.487920
    33  O   -0.460330
    34  O   -0.460072
 Sum of Mulliken charges =  -0.00000

 Dipole moment (field-independent basis, Debye):
    X=              3.2848    Y=             -3.7227    Z=             -1.3697  Tot=              5.1502
 Quadrupole moment (field-independent basis, Debye-Ang):
   XX=           -107.9912   YY=            -91.9630   ZZ=            -94.7440
   XY=             12.6597   XZ=              3.4137   YZ=             -0.5853

 Normal termination of Gaussian 16 at Thu May  6 17:02:45 2021.
