 Gaussian 16, Revision A.03,
 Gaussian 16:  EM64L-G16RevA.03 25-Dec-2016

 -------------
 #p 6-31g* mp2
 -------------

 ------------------------------------------------------
 Input file generated by CHIRIPA (05-May-2021 14:51:09)
 ------------------------------------------------------
 Symbolic Z-matrix:
 Charge =  0 Multiplicity = 1

                         Standard orientation:
 ---------------------------------------------------------------------
 Center     Atomic      Atomic             Coordinates (Angstroms)
 Number     Number       Type             X           Y           Z
 ---------------------------------------------------------------------
      1          6           0        5.282561   -0.175477   -0.372820
      2          6           0        5.931961   -1.233851    0.519430
      3          6           0        7.311742   -1.662804    0.019433
      4          1           0        5.197734   -0.568778   -1.395104
      5          1           0        5.942171    0.701533   -0.429058
      6          1           0        5.270684   -2.108054    0.575083
      7          1           0        6.015077   -0.838056    1.539750
      8          1           0        7.991225   -0.805245   -0.019235
      9          1           0        7.242602   -2.082459   -0.989384
     10          1           0        7.757724   -2.419870    0.671975
     11          6           0        3.902705    0.263516    0.114017
     12          6           0        3.253306    1.321890   -0.778234
     13          6           0        1.873525    1.750843   -0.278237
     14          1           0        3.243095   -0.613494    0.170254
     15          1           0        3.987533    0.656817    1.136300
     16          1           0        3.170190    0.926095   -1.798554
     17          1           0        3.914583    2.196093   -0.833887
     18          1           0        1.942664    2.170498    0.730580
     19          1           0        1.194041    0.893284   -0.239568
     20          1           0        1.427543    2.507909   -0.930779
     21          6           0       -4.043089    0.159571    0.619283
     22          6           0       -2.861992    0.861382   -0.051879
     23          6           0       -1.770768    1.262541    0.941144
     24          1           0       -4.468148    0.822463    1.385339
     25          1           0       -3.678919   -0.733457    1.145854
     26          1           0       -3.228484    1.752058   -0.578182
     27          1           0       -2.439815    0.196817   -0.816560
     28          1           0       -1.377424    0.381259    1.458079
     29          1           0       -2.170575    1.945337    1.697812
     30          1           0       -0.936088    1.762616    0.440050
     31          6           0       -5.142178   -0.247610   -0.360479
     32          6           0       -6.323275   -0.949421    0.310683
     33          6           0       -7.414498   -1.350581   -0.682340
     34          1           0       -5.506347    0.645418   -0.887050
     35          1           0       -4.717118   -0.910502   -1.126536
     36          1           0       -6.745451   -0.284855    1.075363
     37          1           0       -5.956782   -1.840098    0.836986
     38          1           0       -7.014691   -2.033376   -1.439008
     39          1           0       -7.807842   -0.469297   -1.199276
     40          1           0       -8.249178   -1.850654   -0.181246
 ---------------------------------------------------------------------

 SCF Done:  E(RHF) =  -470.732791055     A.U. after   11 cycles
 E2 =    -0.1582460716D+01 EUMP2 =    -0.47231525177098D+03

 The electronic state is 1-A.
 Alpha  occ. eigenvalues --  -11.21601 -11.21591 -11.21576 -11.21531 -11.21403
 Alpha  occ. eigenvalues --  -11.21362 -11.21344 -11.21300 -11.21071 -11.21054
 Alpha  occ. eigenvalues --  -11.21052 -11.20888  -1.08430  -1.08381  -1.03545
 Alpha  occ. eigenvalues --   -1.03459  -0.96035  -0.95872  -0.87100  -0.86847
 Alpha  occ. eigenvalues --   -0.79664  -0.79475  -0.78243  -0.78195  -0.65063
 Alpha  occ. eigenvalues --   -0.65011  -0.60963  -0.60849  -0.59416  -0.59255
 Alpha  occ. eigenvalues --   -0.57648  -0.57486  -0.55322  -0.55156  -0.52984
 Alpha  occ. eigenvalues --   -0.52575  -0.52374  -0.52103  -0.49962  -0.49806
 Alpha  occ. eigenvalues --   -0.47959  -0.47786  -0.46636  -0.46555  -0.45781
 Alpha  occ. eigenvalues --   -0.45737  -0.45706  -0.45665  -0.43870  -0.43595
 Alpha virt. eigenvalues --    0.22459   0.22976   0.23662   0.24748   0.26571
 Alpha virt. eigenvalues --    0.26708   0.26964   0.27490   0.27598   0.29045
 Alpha virt. eigenvalues --    0.30138   0.31355   0.31568   0.31795   0.31993

 Mulliken charges:
               1
     1  C   -0.298300
     2  C   -0.299617
     3  C   -0.475703
     4  H    0.149594
     5  H    0.149563
     6  H    0.151864
     7  H    0.151988
     8  H    0.155200
     9  H    0.155154
    10  H    0.160250
    11  C   -0.298363
    12  C   -0.300640
    13  C   -0.478723
    14  H    0.149472
    15  H    0.149793
    16  H    0.151808
    17  H    0.151768
    18  H    0.156202
    19  H    0.158902
    20  H    0.159346
    21  C   -0.298239
    22  C   -0.299393
    23  C   -0.484143
    24  H    0.149606
    25  H    0.149241
    26  H    0.151543
    27  H    0.151108
    28  H    0.153624
    29  H    0.154038
    30  H    0.173523
    31  C   -0.298154
    32  C   -0.299586
    33  C   -0.475663
    34  H    0.149425
    35  H    0.149401
    36  H    0.151910
    37  H    0.151825
    38  H    0.155081
    39  H    0.155143
    40  H    0.160154
 Sum of Mulliken charges =  -0.00000

 Dipole moment (field-independent basis, Debye):
    X=              0.0356    Y=              0.0168    Z=              0.0000  Tot=              0.0394
 Quadrupole moment (field-independent basis, Debye-Ang):
   XX=            -86.3938   YY=            -83.6890   ZZ=            -84.9081
   XY=             -0.0064   XZ=             -0.0530   YZ=              0.2617

 Normal termination of Gaussian 16 at Thu May  6 05:20:22 2021.
