 Gaussian 16, Revision A.03,
 Gaussian 16:  EM64L-G16RevA.03 25-Dec-2016

 -------------
 #p 6-31g* mp2
 -------------

 ------------------------------------------------------
 Input file generated by CHIRIPA (05-May-2021 14:57:25)
 ------------------------------------------------------
 Symbolic Z-matrix:
 Charge =  0 Multiplicity = 1

                         Standard orientation:
 ---------------------------------------------------------------------
 Center     Atomic      Atomic             Coordinates (Angstroms)
 Number     Number       Type             X           Y           Z
 ---------------------------------------------------------------------
      1          6           0       -4.265740    1.856443   -0.888117
      2          6           0       -3.162848    2.032705   -0.046046
      3          6           0       -2.522793    0.929247    0.526017
      4          6           0       -3.014328   -0.341948    0.233191
      5          6           0       -4.110991   -0.550097   -0.601850
      6          6           0       -4.735463    0.567877   -1.162847
      7          1           0       -4.756897    2.719274   -1.328211
      8          1           0       -2.795878    3.032255    0.169080
      9          1           0       -1.667052    1.036995    1.181392
     10          1           0       -4.453865   -1.558812   -0.797679
     11          1           0       -5.591782    0.427980   -1.816446
     12          7           0       -2.344978   -1.517813    0.832951
     13          8           0       -2.797388   -2.627341    0.559251
     14          8           0       -1.380606   -1.307664    1.565387
     15          6           0        3.382355   -2.283464   -0.756244
     16          6           0        4.514343   -1.475844   -0.604995
     17          6           0        4.383475   -0.127204   -0.260620
     18          6           0        3.099729    0.383231   -0.074220
     19          6           0        1.952650   -0.395830   -0.217618
     20          6           0        2.107370   -1.741834   -0.562415
     21          1           0        3.493282   -3.330094   -1.023927
     22          1           0        5.505757   -1.893779   -0.754904
     23          1           0        5.242834    0.520607   -0.137090
     24          1           0        0.977463    0.049250   -0.061634
     25          1           0        1.226473   -2.366675   -0.679202
     26          7           0        2.948561    1.809579    0.290577
     27          8           0        1.806518    2.235245    0.449268
     28          8           0        3.974979    2.474878    0.410908
 ---------------------------------------------------------------------

 SCF Done:  E(RHF) =  -868.340673396     A.U. after   16 cycles
 E2 =    -0.2599035603D+01 EUMP2 =    -0.87093970899916D+03

 The electronic state is 1-A.
 Alpha  occ. eigenvalues --  -20.61331 -20.61311 -20.60607 -20.60576 -15.86333
 Alpha  occ. eigenvalues --  -15.85636 -11.31374 -11.30698 -11.27924 -11.27815
 Alpha  occ. eigenvalues --  -11.27561 -11.27274 -11.27170 -11.26926 -11.26876
 Alpha  occ. eigenvalues --  -11.26750 -11.26248 -11.26085  -1.60397  -1.59663
 Alpha  occ. eigenvalues --   -1.39954  -1.39229  -1.19511  -1.18843  -1.08971
 Alpha  occ. eigenvalues --   -1.08299  -1.04839  -1.04187  -0.95853  -0.95184
 Alpha  occ. eigenvalues --   -0.86262  -0.85611  -0.82681  -0.82022  -0.77774
 Alpha  occ. eigenvalues --   -0.77098  -0.72548  -0.71879  -0.71719  -0.70971
 Alpha  occ. eigenvalues --   -0.70598  -0.69959  -0.65152  -0.64823  -0.64497
 Alpha  occ. eigenvalues --   -0.64183  -0.62178  -0.61530  -0.55359  -0.54726
 Alpha  occ. eigenvalues --   -0.53215  -0.52910  -0.52547  -0.52271  -0.49327
 Alpha  occ. eigenvalues --   -0.49283  -0.48633  -0.48588  -0.45416  -0.44700
 Alpha  occ. eigenvalues --   -0.37488  -0.36825  -0.36428  -0.35764
 Alpha virt. eigenvalues --    0.04664   0.05412   0.11130   0.11876   0.16252
 Alpha virt. eigenvalues --    0.16972   0.21088   0.22111   0.26332   0.27689
 Alpha virt. eigenvalues --    0.28310   0.29145   0.30934   0.31353   0.32020

 Mulliken charges:
               1
     1  C   -0.170327
     2  C   -0.218135
     3  C   -0.176207
     4  C    0.155188
     5  C   -0.171885
     6  C   -0.218543
     7  H    0.227514
     8  H    0.232051
     9  H    0.284182
    10  H    0.274156
    11  H    0.223705
    12  N    0.486204
    13  O   -0.460191
    14  O   -0.464096
    15  C   -0.170958
    16  C   -0.219070
    17  C   -0.171728
    18  C    0.156928
    19  C   -0.167290
    20  C   -0.217730
    21  H    0.225654
    22  H    0.221495
    23  H    0.273124
    24  H    0.274410
    25  H    0.231809
    26  N    0.489301
    27  O   -0.468783
    28  O   -0.460779
 Sum of Mulliken charges =  -0.00000

 Dipole moment (field-independent basis, Debye):
    X=             -2.0423    Y=             -0.8556    Z=             -3.3889  Tot=              4.0482
 Quadrupole moment (field-independent basis, Debye-Ang):
   XX=            -80.7343   YY=           -110.2779   ZZ=           -106.0723
   XY=            -25.2832   XZ=              3.6009   YZ=              3.1921

 Normal termination of Gaussian 16 at Thu May  6 18:04:57 2021.
