 Gaussian 16, Revision A.03,
 Gaussian 16:  EM64L-G16RevA.03 25-Dec-2016

 -------------
 #p 6-31g* mp2
 -------------

 ------------------------------------------------------
 Input file generated by CHIRIPA (05-May-2021 14:55:19)
 ------------------------------------------------------
 Symbolic Z-matrix:
 Charge =  0 Multiplicity = 1

                         Standard orientation:
 ---------------------------------------------------------------------
 Center     Atomic      Atomic             Coordinates (Angstroms)
 Number     Number       Type             X           Y           Z
 ---------------------------------------------------------------------
      1          6           0       -0.568013   -0.441074    0.529482
      2          6           0       -1.542572   -0.967560    1.383630
      3          6           0       -2.899910   -0.739831    1.138031
      4          6           0       -3.248721    0.022286    0.024119
      5          6           0       -2.301259    0.560341   -0.845421
      6          6           0       -0.949794    0.319855   -0.580361
      7          1           0        0.484119   -0.622935    0.727828
      8          1           0       -1.248995   -1.558876    2.246303
      9          1           0       -3.675130   -1.135502    1.782932
     10          1           0       -2.624674    1.145912   -1.697435
     11          1           0       -0.195114    0.729979   -1.245418
     12          7           0       -4.682566    0.270125   -0.246187
     13          8           0       -4.963895    0.944829   -1.234248
     14          8           0       -5.497933   -0.215014    0.535128
     15          6           0        4.082507   -0.691293    0.056233
     16          6           0        3.320187   -1.743182   -0.750231
     17          6           0        3.784889   -3.168753   -0.450909
     18          1           0        5.156208   -0.781135   -0.158333
     19          1           0        3.959315   -0.900703    1.127851
     20          1           0        3.443640   -1.531042   -1.819984
     21          1           0        2.248156   -1.650700   -0.533865
     22          1           0        3.645992   -3.404641    0.609123
     23          1           0        4.848269   -3.284304   -0.684304
     24          1           0        3.226747   -3.904589   -1.038178
     25          6           0        3.629253    0.738810   -0.232026
     26          6           0        4.391573    1.790700    0.574437
     27          6           0        3.926871    3.216271    0.275115
     28          1           0        3.752445    0.948221   -1.303644
     29          1           0        2.555551    0.828653   -0.017459
     30          1           0        5.463603    1.698217    0.358072
     31          1           0        4.268119    1.578560    1.644190
     32          1           0        2.863491    3.331821    0.508511
     33          1           0        4.065767    3.452159   -0.784915
     34          1           0        4.485012    3.952106    0.862384
 ---------------------------------------------------------------------

 SCF Done:  E(RHF) =  -669.535312951     A.U. after   15 cycles
 E2 =    -0.2092068575D+01 EUMP2 =    -0.67162738152621D+03

 The electronic state is 1-A.
 Alpha  occ. eigenvalues --  -20.60749 -20.60744 -15.85802 -11.31173 -11.27736
 Alpha  occ. eigenvalues --  -11.27729 -11.27450 -11.26755 -11.26736 -11.22733
 Alpha  occ. eigenvalues --  -11.22576 -11.22483 -11.22447 -11.21972 -11.21827
 Alpha  occ. eigenvalues --   -1.59824  -1.39378  -1.19341  -1.09504  -1.08735
 Alpha  occ. eigenvalues --   -1.04742  -1.04490  -0.96925  -0.95574  -0.87936
 Alpha  occ. eigenvalues --   -0.86139  -0.82407  -0.80564  -0.79339  -0.77447
 Alpha  occ. eigenvalues --   -0.72020  -0.71147  -0.70497  -0.66149  -0.64989
 Alpha  occ. eigenvalues --   -0.64729  -0.62088  -0.61898  -0.60291  -0.58538
 Alpha  occ. eigenvalues --   -0.56220  -0.55268  -0.53574  -0.53345  -0.53068
 Alpha  occ. eigenvalues --   -0.52829  -0.50873  -0.48870  -0.48775  -0.48774
 Alpha  occ. eigenvalues --   -0.47611  -0.46838  -0.46773  -0.44782  -0.44772
 Alpha  occ. eigenvalues --   -0.37314  -0.36345
 Alpha virt. eigenvalues --    0.05054   0.11277   0.16476   0.18588   0.22787
 Alpha virt. eigenvalues --    0.23298   0.24920   0.25899   0.26973   0.27585
 Alpha virt. eigenvalues --    0.30052   0.30388   0.31009   0.31088   0.31885

 Mulliken charges:
               1
     1  C   -0.176204
     2  C   -0.219198
     3  C   -0.170849
     4  C    0.158572
     5  C   -0.170909
     6  C   -0.221478
     7  H    0.232944
     8  H    0.223507
     9  H    0.275497
    10  H    0.275655
    11  H    0.225323
    12  N    0.488009
    13  O   -0.460391
    14  O   -0.460431
    15  C   -0.299568
    16  C   -0.304377
    17  C   -0.475747
    18  H    0.155288
    19  H    0.148513
    20  H    0.155976
    21  H    0.144131
    22  H    0.154598
    23  H    0.158980
    24  H    0.163825
    25  C   -0.302057
    26  C   -0.299806
    27  C   -0.476792
    28  H    0.152616
    29  H    0.140661
    30  H    0.155550
    31  H    0.152879
    32  H    0.154912
    33  H    0.156364
    34  H    0.164006
 Sum of Mulliken charges =  -0.00000

 Dipole moment (field-independent basis, Debye):
    X=              5.2982    Y=             -0.8661    Z=              0.9201  Tot=              5.4468
 Quadrupole moment (field-independent basis, Debye-Ang):
   XX=           -126.3034   YY=            -94.7101   ZZ=            -91.0839
   XY=              4.0118   XZ=             -4.8000   YZ=             -2.3747

 Normal termination of Gaussian 16 at Thu May  6 14:04:32 2021.
