 Gaussian 16, Revision A.03,
 Gaussian 16:  EM64L-G16RevA.03 25-Dec-2016

 -------------
 #p 6-31g* mp2
 -------------

 ------------------------------------------------------
 Input file generated by CHIRIPA (05-May-2021 14:57:21)
 ------------------------------------------------------
 Symbolic Z-matrix:
 Charge =  0 Multiplicity = 1

                         Standard orientation:
 ---------------------------------------------------------------------
 Center     Atomic      Atomic             Coordinates (Angstroms)
 Number     Number       Type             X           Y           Z
 ---------------------------------------------------------------------
      1          6           0       -0.473656   -1.271072    1.668488
      2          6           0       -0.972812    0.020850    1.864195
      3          6           0       -2.054870    0.485637    1.110756
      4          6           0       -2.616167   -0.372016    0.165946
      5          6           0       -2.141439   -1.664413   -0.052302
      6          6           0       -1.058531   -2.108105    0.712549
      7          1           0        0.367243   -1.623937    2.258210
      8          1           0       -0.520572    0.673092    2.605886
      9          1           0       -2.461236    1.481191    1.241744
     10          1           0       -2.613138   -2.291506   -0.799076
     11          1           0       -0.672969   -3.111912    0.558409
     12          7           0       -3.762143    0.108868   -0.637727
     13          8           0       -4.239014   -0.666224   -1.463841
     14          8           0       -4.161789    1.251769   -0.426314
     15          6           0        1.166095    2.609668    0.043094
     16          6           0        1.816228    2.000663    1.121500
     17          6           0        2.518016    0.804626    0.943908
     18          6           0        2.549224    0.242605   -0.331415
     19          6           0        1.911612    0.825192   -1.425642
     20          6           0        1.215774    2.021027   -1.224801
     21          1           0        0.623240    3.538699    0.190082
     22          1           0        1.779338    2.455547    2.107281
     23          1           0        3.030267    0.311819    1.761317
     24          1           0        1.966208    0.347906   -2.396536
     25          1           0        0.711808    2.491752   -2.064134
     26          7           0        3.289026   -1.023478   -0.531730
     27          8           0        3.301473   -1.498496   -1.665238
     28          8           0        3.842428   -1.516843    0.448563
 ---------------------------------------------------------------------

 SCF Done:  E(RHF) =  -868.336679747     A.U. after   16 cycles
 E2 =    -0.2604073591D+01 EUMP2 =    -0.87094075333791D+03

 The electronic state is 1-A.
 Alpha  occ. eigenvalues --  -20.61460 -20.61426 -20.61023 -20.61002 -15.86491
 Alpha  occ. eigenvalues --  -15.86064 -11.31796 -11.31337 -11.28409 -11.28301
 Alpha  occ. eigenvalues --  -11.28056 -11.27924 -11.27822 -11.27555 -11.27407
 Alpha  occ. eigenvalues --  -11.27277 -11.26937 -11.26807  -1.60523  -1.60094
 Alpha  occ. eigenvalues --   -1.40078  -1.39650  -1.19966  -1.19484  -1.09365
 Alpha  occ. eigenvalues --   -1.08903  -1.05377  -1.04877  -0.96214  -0.95751
 Alpha  occ. eigenvalues --   -0.86777  -0.86287  -0.83053  -0.82591  -0.78119
 Alpha  occ. eigenvalues --   -0.77659  -0.72709  -0.72283  -0.71854  -0.71421
 Alpha  occ. eigenvalues --   -0.71080  -0.70576  -0.65622  -0.65399  -0.65143
 Alpha  occ. eigenvalues --   -0.64897  -0.62728  -0.62246  -0.55851  -0.55364
 Alpha  occ. eigenvalues --   -0.54261  -0.53470  -0.52989  -0.52623  -0.49476
 Alpha  occ. eigenvalues --   -0.49458  -0.49047  -0.49030  -0.45498  -0.45077
 Alpha  occ. eigenvalues --   -0.38205  -0.37817  -0.36674  -0.36019
 Alpha virt. eigenvalues --    0.04305   0.04909   0.10454   0.11302   0.15905
 Alpha virt. eigenvalues --    0.16463   0.19871   0.21993   0.25854   0.26715
 Alpha virt. eigenvalues --    0.28266   0.28784   0.29325   0.31323   0.32486

 Mulliken charges:
               1
     1  C   -0.173681
     2  C   -0.206461
     3  C   -0.173512
     4  C    0.157749
     5  C   -0.172039
     6  C   -0.219681
     7  H    0.229073
     8  H    0.214420
     9  H    0.269806
    10  H    0.276482
    11  H    0.229554
    12  N    0.487683
    13  O   -0.459017
    14  O   -0.463854
    15  C   -0.169253
    16  C   -0.221836
    17  C   -0.174849
    18  C    0.162546
    19  C   -0.168872
    20  C   -0.216488
    21  H    0.228209
    22  H    0.219806
    23  H    0.271518
    24  H    0.278111
    25  H    0.229459
    26  N    0.486968
    27  O   -0.457381
    28  O   -0.464460
 Sum of Mulliken charges =  -0.00000

 Dipole moment (field-independent basis, Debye):
    X=              1.5065    Y=              2.7205    Z=              3.3096  Tot=              4.5413
 Quadrupole moment (field-independent basis, Debye-Ang):
   XX=           -141.1728   YY=            -97.9619   ZZ=            -99.1402
   XY=             14.0940   XZ=             -2.8531   YZ=             -0.5937

 Normal termination of Gaussian 16 at Thu May  6 09:37:18 2021.
