 Gaussian 16, Revision A.03,
 Gaussian 16:  EM64L-G16RevA.03 25-Dec-2016

 -------------
 #p 6-31g* mp2
 -------------

 ------------------------------------------------------
 Input file generated by CHIRIPA (05-May-2021 14:51:09)
 ------------------------------------------------------
 Symbolic Z-matrix:
 Charge =  0 Multiplicity = 1

                         Standard orientation:
 ---------------------------------------------------------------------
 Center     Atomic      Atomic             Coordinates (Angstroms)
 Number     Number       Type             X           Y           Z
 ---------------------------------------------------------------------
      1          6           0       -3.164283   -1.142764    0.425982
      2          6           0       -1.644016   -1.247389    0.300182
      3          6           0       -1.053040   -2.352609    1.175985
      4          1           0       -3.427141   -0.959789    1.476873
      5          1           0       -3.614940   -2.107429    0.154460
      6          1           0       -1.196443   -0.282398    0.570529
      7          1           0       -1.384737   -1.429945   -0.750562
      8          1           0       -1.472140   -3.326351    0.902520
      9          1           0       -1.282777   -2.172284    2.231117
     10          1           0        0.034841   -2.409802    1.070610
     11          6           0       -3.769818   -0.042343   -0.443576
     12          6           0       -5.290086    0.062282   -0.317775
     13          6           0       -5.881061    1.167502   -1.193578
     14          1           0       -3.319161    0.922322   -0.172053
     15          1           0       -3.506960   -0.225318   -1.494466
     16          1           0       -5.549365    0.244838    0.732969
     17          1           0       -5.737658   -0.902709   -0.588122
     18          1           0       -5.651324    0.987177   -2.248711
     19          1           0       -5.461961    2.141244   -0.920113
     20          1           0       -6.968942    1.224695   -1.088203
     21          6           0        2.851691    0.693556    0.449890
     22          6           0        2.249540    2.094666    0.339034
     23          6           0        1.019158    2.281303    1.227360
     24          1           0        2.087912   -0.049149    0.181609
     25          1           0        3.121707    0.499899    1.497260
     26          1           0        1.982014    2.286152   -0.708047
     27          1           0        3.014897    2.834132    0.607426
     28          1           0        1.274858    2.116933    2.279120
     29          1           0        0.236106    1.565839    0.956173
     30          1           0        0.604810    3.289861    1.132567
     31          6           0        4.082410    0.491551   -0.432297
     32          6           0        4.684562   -0.909559   -0.321441
     33          6           0        5.914943   -1.096196   -1.209767
     34          1           0        3.812395    0.685208   -1.479667
     35          1           0        4.846189    1.234256   -0.164016
     36          1           0        3.919204   -1.649025   -0.589832
     37          1           0        4.952089   -1.101044    0.725640
     38          1           0        6.697996   -0.380732   -0.938581
     39          1           0        5.659244   -0.931826   -2.261528
     40          1           0        6.329293   -2.104754   -1.114974
 ---------------------------------------------------------------------

 SCF Done:  E(RHF) =  -470.733399514     A.U. after   11 cycles
 E2 =    -0.1582912644D+01 EUMP2 =    -0.47231631215766D+03

 The electronic state is 1-A.
 Alpha  occ. eigenvalues --  -11.21629 -11.21607 -11.21606 -11.21605 -11.21419
 Alpha  occ. eigenvalues --  -11.21406 -11.21359 -11.21347 -11.21085 -11.21077
 Alpha  occ. eigenvalues --  -11.21072 -11.21072  -1.08451  -1.08427  -1.03559
 Alpha  occ. eigenvalues --   -1.03521  -0.95992  -0.95983  -0.87023  -0.86986
 Alpha  occ. eigenvalues --   -0.79659  -0.79556  -0.78294  -0.78212  -0.65131
 Alpha  occ. eigenvalues --   -0.65017  -0.61058  -0.60835  -0.59397  -0.59312
 Alpha  occ. eigenvalues --   -0.57616  -0.57583  -0.55322  -0.55236  -0.52688
 Alpha  occ. eigenvalues --   -0.52677  -0.52468  -0.52367  -0.50032  -0.49855
 Alpha  occ. eigenvalues --   -0.48043  -0.47827  -0.46805  -0.46485  -0.45896
 Alpha  occ. eigenvalues --   -0.45771  -0.45734  -0.45505  -0.43797  -0.43789
 Alpha virt. eigenvalues --    0.20708   0.23035   0.23638   0.24529   0.25747
 Alpha virt. eigenvalues --    0.26200   0.27071   0.27141   0.28575   0.29004
 Alpha virt. eigenvalues --    0.30472   0.31423   0.31695   0.31762   0.32013

 Mulliken charges:
               1
     1  C   -0.297495
     2  C   -0.309682
     3  C   -0.476145
     4  H    0.149927
     5  H    0.149658
     6  H    0.160527
     7  H    0.151467
     8  H    0.155247
     9  H    0.155598
    10  H    0.161115
    11  C   -0.298604
    12  C   -0.299668
    13  C   -0.475750
    14  H    0.149685
    15  H    0.149488
    16  H    0.152102
    17  H    0.151937
    18  H    0.155104
    19  H    0.155340
    20  H    0.160283
    21  C   -0.300392
    22  C   -0.298933
    23  C   -0.483960
    24  H    0.151628
    25  H    0.149526
    26  H    0.152086
    27  H    0.152006
    28  H    0.155261
    29  H    0.162309
    30  H    0.160254
    31  C   -0.298307
    32  C   -0.299651
    33  C   -0.475704
    34  H    0.149615
    35  H    0.149728
    36  H    0.151747
    37  H    0.151975
    38  H    0.155199
    39  H    0.155198
    40  H    0.160283
 Sum of Mulliken charges =  -0.00000

 Dipole moment (field-independent basis, Debye):
    X=             -0.0051    Y=             -0.0016    Z=              0.0057  Tot=              0.0078
 Quadrupole moment (field-independent basis, Debye-Ang):
   XX=            -85.5302   YY=            -84.9208   ZZ=            -84.2686
   XY=              0.9661   XZ=              0.7230   YZ=              1.0186

 Normal termination of Gaussian 16 at Wed May  5 21:19:51 2021.
