 Gaussian 16, Revision A.03,
 Gaussian 16:  EM64L-G16RevA.03 25-Dec-2016

 -------------
 #p 6-31g* mp2
 -------------

 ------------------------------------------------------
 Input file generated by CHIRIPA (05-May-2021 14:57:26)
 ------------------------------------------------------
 Symbolic Z-matrix:
 Charge =  0 Multiplicity = 1

                         Standard orientation:
 ---------------------------------------------------------------------
 Center     Atomic      Atomic             Coordinates (Angstroms)
 Number     Number       Type             X           Y           Z
 ---------------------------------------------------------------------
      1          6           0       -0.726398   -0.264854    2.571844
      2          6           0       -1.154754   -1.472145    2.010167
      3          6           0       -1.920053   -1.478912    0.840202
      4          6           0       -2.240231   -0.254517    0.255707
      5          6           0       -1.828386    0.964878    0.791195
      6          6           0       -1.063986    0.947667    1.961641
      7          1           0       -0.132245   -0.268911    3.480888
      8          1           0       -0.894074   -2.415315    2.481889
      9          1           0       -2.264851   -2.398960    0.384083
     10          1           0       -2.104003    1.889163    0.298090
     11          1           0       -0.732701    1.886795    2.395615
     12          7           0       -3.049943   -0.248989   -0.983138
     13          8           0       -3.318717    0.843140   -1.478771
     14          8           0       -3.400490   -1.336889   -1.435053
     15          6           0        1.075650    2.557208   -0.392789
     16          6           0        0.769651    1.683393   -1.441279
     17          6           0        1.335118    0.405680   -1.488660
     18          6           0        2.206467    0.032901   -0.466370
     19          6           0        2.531002    0.880767    0.591501
     20          6           0        1.953800    2.153818    0.618472
     21          1           0        0.631823    3.547956   -0.363910
     22          1           0        0.087999    1.993977   -2.228002
     23          1           0        1.115573   -0.290863   -2.288688
     24          1           0        3.213992    0.542772    1.361374
     25          1           0        2.193262    2.830332    1.433967
     26          7           0        2.811314   -1.317289   -0.505726
     27          8           0        3.576031   -1.621739    0.407046
     28          8           0        2.509221   -2.045550   -1.448601
 ---------------------------------------------------------------------

 SCF Done:  E(RHF) =  -868.335630155     A.U. after   16 cycles
 E2 =    -0.2606375464D+01 EUMP2 =    -0.87094200561888D+03

 The electronic state is 1-A.
 Alpha  occ. eigenvalues --  -20.61133 -20.61126 -20.61098 -20.61091 -15.86163
 Alpha  occ. eigenvalues --  -15.86153 -11.31553 -11.31331 -11.28157 -11.28030
 Alpha  occ. eigenvalues --  -11.27986 -11.27833 -11.27816 -11.27627 -11.27178
 Alpha  occ. eigenvalues --  -11.26994 -11.26956 -11.26812  -1.60192  -1.60189
 Alpha  occ. eigenvalues --   -1.39750  -1.39742  -1.19752  -1.19480  -1.09124
 Alpha  occ. eigenvalues --   -1.08949  -1.05109  -1.04911  -0.95962  -0.95802
 Alpha  occ. eigenvalues --   -0.86565  -0.86278  -0.82790  -0.82643  -0.77831
 Alpha  occ. eigenvalues --   -0.77709  -0.72387  -0.72374  -0.71543  -0.71489
 Alpha  occ. eigenvalues --   -0.70873  -0.70636  -0.65376  -0.65195  -0.65103
 Alpha  occ. eigenvalues --   -0.64926  -0.62443  -0.62291  -0.55644  -0.55435
 Alpha  occ. eigenvalues --   -0.54452  -0.53195  -0.53018  -0.52230  -0.49159
 Alpha  occ. eigenvalues --   -0.49141  -0.49131  -0.49112  -0.45194  -0.45145
 Alpha  occ. eigenvalues --   -0.38250  -0.38069  -0.36092  -0.35873
 Alpha virt. eigenvalues --    0.04325   0.05138   0.10037   0.12010   0.15905
 Alpha virt. eigenvalues --    0.16594   0.20032   0.22033   0.26282   0.26511
 Alpha virt. eigenvalues --    0.28216   0.29063   0.30104   0.30980   0.32011

 Mulliken charges:
               1
     1  C   -0.171832
     2  C   -0.219425
     3  C   -0.171139
     4  C    0.156769
     5  C   -0.165735
     6  C   -0.208111
     7  H    0.225171
     8  H    0.227986
     9  H    0.277982
    10  H    0.266326
    11  H    0.214698
    12  N    0.487288
    13  O   -0.467621
    14  O   -0.456673
    15  C   -0.175957
    16  C   -0.219155
    17  C   -0.170939
    18  C    0.162216
    19  C   -0.170623
    20  C   -0.219747
    21  H    0.224201
    22  H    0.235097
    23  H    0.280369
    24  H    0.272910
    25  H    0.218959
    26  N    0.487415
    27  O   -0.463137
    28  O   -0.457292
 Sum of Mulliken charges =  -0.00000

 Dipole moment (field-independent basis, Debye):
    X=              0.7680    Y=              4.5406    Z=              4.3710  Tot=              6.3492
 Quadrupole moment (field-independent basis, Debye-Ang):
   XX=           -127.8216   YY=           -100.0602   ZZ=            -99.7889
   XY=             10.6950   XZ=             -5.5847   YZ=             -2.7781

 Normal termination of Gaussian 16 at Thu May  6 05:10:20 2021.
