 Gaussian 16, Revision A.03,
 Gaussian 16:  EM64L-G16RevA.03 25-Dec-2016

 -------------
 #p 6-31g* mp2
 -------------

 ------------------------------------------------------
 Input file generated by CHIRIPA (05-May-2021 14:57:24)
 ------------------------------------------------------
 Symbolic Z-matrix:
 Charge =  0 Multiplicity = 1

                         Standard orientation:
 ---------------------------------------------------------------------
 Center     Atomic      Atomic             Coordinates (Angstroms)
 Number     Number       Type             X           Y           Z
 ---------------------------------------------------------------------
      1          6           0        3.393079    2.445600    0.481829
      2          6           0        2.312841    1.573041    0.313760
      3          6           0        2.527119    0.238117   -0.042063
      4          6           0        3.840597   -0.192533   -0.222635
      5          6           0        4.937675    0.652503   -0.062559
      6          6           0        4.699745    1.983361    0.293465
      7          1           0        3.217436    3.481023    0.758318
      8          1           0        1.296993    1.929258    0.459389
      9          1           0        1.709197   -0.458845   -0.178684
     10          1           0        5.939003    0.268279   -0.214648
     11          1           0        5.540596    2.658753    0.423307
     12          7           0        4.079963   -1.603605   -0.599435
     13          8           0        5.246696   -1.958415   -0.752677
     14          8           0        3.096314   -2.328076   -0.734393
     15          6           0       -2.132583   -0.613675    1.964071
     16          6           0       -3.285461   -1.389541    1.804620
     17          6           0       -4.216824   -1.080958    0.808684
     18          6           0       -3.962457    0.015429   -0.013826
     19          6           0       -2.823243    0.807609    0.120088
     20          6           0       -1.905554    0.480494    1.122779
     21          1           0       -1.414388   -0.860588    2.740362
     22          1           0       -3.464379   -2.239865    2.456526
     23          1           0       -5.117662   -1.664697    0.663227
     24          1           0       -2.672344    1.649173   -0.545055
     25          1           0       -1.011085    1.084816    1.244304
     26          7           0       -4.941212    0.351921   -1.071754
     27          8           0       -4.693935    1.322973   -1.783477
     28          8           0       -5.937104   -0.361759   -1.169202
 ---------------------------------------------------------------------

 SCF Done:  E(RHF) =  -868.336871245     A.U. after   16 cycles
 E2 =    -0.2599540012D+01 EUMP2 =    -0.87093641125708D+03

 The electronic state is 1-A.
 Alpha  occ. eigenvalues --  -20.61239 -20.61231 -20.61068 -20.61057 -15.86298
 Alpha  occ. eigenvalues --  -15.86126 -11.31763 -11.31586 -11.28402 -11.28329
 Alpha  occ. eigenvalues --  -11.28261 -11.28148 -11.28133 -11.27962 -11.27506
 Alpha  occ. eigenvalues --  -11.27362 -11.27338 -11.27141  -1.60312  -1.60138
 Alpha  occ. eigenvalues --   -1.39863  -1.39690  -1.19961  -1.19788  -1.09334
 Alpha  occ. eigenvalues --   -1.09160  -1.05399  -1.05224  -0.96146  -0.95973
 Alpha  occ. eigenvalues --   -0.86792  -0.86615  -0.82998  -0.82814  -0.78039
 Alpha  occ. eigenvalues --   -0.77835  -0.72512  -0.72342  -0.71639  -0.71462
 Alpha  occ. eigenvalues --   -0.71055  -0.70881  -0.65627  -0.65537  -0.65449
 Alpha  occ. eigenvalues --   -0.65170  -0.62834  -0.62483  -0.55880  -0.55697
 Alpha  occ. eigenvalues --   -0.53703  -0.53593  -0.53522  -0.53238  -0.49281
 Alpha  occ. eigenvalues --   -0.49261  -0.49109  -0.49090  -0.45247  -0.45074
 Alpha  occ. eigenvalues --   -0.37936  -0.37758  -0.37002  -0.36829
 Alpha virt. eigenvalues --    0.04536   0.04719   0.10645   0.10767   0.15962
 Alpha virt. eigenvalues --    0.16144   0.18186   0.21977   0.24493   0.27568
 Alpha virt. eigenvalues --    0.27963   0.28654   0.29458   0.31620   0.32057

 Mulliken charges:
               1
     1  C   -0.170293
     2  C   -0.222364
     3  C   -0.172828
     4  C    0.158915
     5  C   -0.169601
     6  C   -0.218460
     7  H    0.227467
     8  H    0.217626
     9  H    0.276019
    10  H    0.277698
    11  H    0.225813
    12  N    0.488051
    13  O   -0.458572
    14  O   -0.459905
    15  C   -0.170241
    16  C   -0.217735
    17  C   -0.168966
    18  C    0.159095
    19  C   -0.170514
    20  C   -0.224850
    21  H    0.228436
    22  H    0.226673
    23  H    0.277974
    24  H    0.274283
    25  H    0.216902
    26  N    0.488256
    27  O   -0.460505
    28  O   -0.458373
 Sum of Mulliken charges =  -0.00000

 Dipole moment (field-independent basis, Debye):
    X=              2.6136    Y=              3.6463    Z=              5.0520  Tot=              6.7564
 Quadrupole moment (field-independent basis, Debye-Ang):
   XX=           -130.8453   YY=           -104.4071   ZZ=           -106.5509
   XY=             28.1888   XZ=            -10.7128   YZ=             -2.7569

 Normal termination of Gaussian 16 at Fri May  7 08:01:29 2021.
