 Gaussian 16, Revision A.03,
 Gaussian 16:  EM64L-G16RevA.03 25-Dec-2016

 -------------
 #p 6-31g* mp2
 -------------

 ------------------------------------------------------
 Input file generated by CHIRIPA (05-May-2021 14:53:14)
 ------------------------------------------------------
 Symbolic Z-matrix:
 Charge =  0 Multiplicity = 1

                         Standard orientation:
 ---------------------------------------------------------------------
 Center     Atomic      Atomic             Coordinates (Angstroms)
 Number     Number       Type             X           Y           Z
 ---------------------------------------------------------------------
      1          6           0        2.819689    0.686141   -0.034164
      2          6           0        3.269398    1.892540   -0.858995
      3          6           0        3.003528    3.222956   -0.153942
      4          1           0        1.747087    0.778870    0.184632
      5          1           0        3.338515    0.699005    0.934366
      6          1           0        2.750914    1.876643   -1.826227
      7          1           0        4.341013    1.796832   -1.076015
      8          1           0        3.533663    3.264474    0.803051
      9          1           0        1.934530    3.344738    0.048576
     10          1           0        3.332651    4.071935   -0.761210
     11          6           0        3.078850   -0.651133   -0.725728
     12          6           0        2.629141   -1.857533    0.099104
     13          6           0        2.895011   -3.187949   -0.605950
     14          1           0        2.560024   -0.663998   -1.694257
     15          1           0        4.151452   -0.743862   -0.944523
     16          1           0        1.557526   -1.761825    0.316124
     17          1           0        3.147624   -1.841635    1.066336
     18          1           0        3.964009   -3.309730   -0.808468
     19          1           0        2.364876   -3.229467   -1.562942
     20          1           0        2.565888   -4.036927    0.001318
     21          6           0       -0.533070   -0.250515    2.078188
     22          6           0       -0.989037   -1.379635    1.389925
     23          6           0       -1.969996   -1.260244    0.400980
     24          6           0       -2.475334    0.009222    0.124618
     25          6           0       -2.041480    1.153091    0.792917
     26          6           0       -1.059820    1.010022    1.778016
     27          1           0        0.229235   -0.352458    2.844931
     28          1           0       -0.581758   -2.359839    1.620943
     29          1           0       -2.341021   -2.117695   -0.147233
     30          1           0       -2.466454    2.116989    0.540498
     31          1           0       -0.707601    1.888659    2.310918
     32          7           0       -3.514204    0.148149   -0.920299
     33          8           0       -3.943386    1.277710   -1.145091
     34          8           0       -3.879616   -0.875152   -1.494726
 ---------------------------------------------------------------------

 SCF Done:  E(RHF) =  -669.534803765     A.U. after   15 cycles
 E2 =    -0.2094068099D+01 EUMP2 =    -0.67162887186378D+03

 The electronic state is 1-A.
 Alpha  occ. eigenvalues --  -20.60854 -20.60849 -15.85910 -11.31308 -11.27895
 Alpha  occ. eigenvalues --  -11.27885 -11.27616 -11.26898 -11.26870 -11.22070
 Alpha  occ. eigenvalues --  -11.21949 -11.21788 -11.21722 -11.21570 -11.21506
 Alpha  occ. eigenvalues --   -1.59930  -1.39482  -1.19502  -1.08932  -1.08800
 Alpha  occ. eigenvalues --   -1.04912  -1.03973  -0.96420  -0.95705  -0.87440
 Alpha  occ. eigenvalues --   -0.86298  -0.82534  -0.80054  -0.78691  -0.77573
 Alpha  occ. eigenvalues --   -0.72127  -0.71255  -0.70576  -0.65516  -0.65144
 Alpha  occ. eigenvalues --   -0.64879  -0.62264  -0.61359  -0.59798  -0.58045
 Alpha  occ. eigenvalues --   -0.55707  -0.55374  -0.53355  -0.53063  -0.52985
 Alpha  occ. eigenvalues --   -0.52856  -0.50363  -0.48891  -0.48880  -0.48377
 Alpha  occ. eigenvalues --   -0.47088  -0.46213  -0.46103  -0.44880  -0.44210
 Alpha  occ. eigenvalues --   -0.37356  -0.36463
 Alpha virt. eigenvalues --    0.04947   0.10986   0.16365   0.20792   0.22784
 Alpha virt. eigenvalues --    0.23579   0.26081   0.26877   0.27000   0.27474
 Alpha virt. eigenvalues --    0.28773   0.30807   0.31104   0.31417   0.31815

 Mulliken charges:
               1
     1  C   -0.305817
     2  C   -0.299543
     3  C   -0.475535
     4  H    0.156214
     5  H    0.143941
     6  H    0.155093
     7  H    0.152745
     8  H    0.153103
     9  H    0.151756
    10  H    0.162980
    11  C   -0.296630
    12  C   -0.309739
    13  C   -0.475627
    14  H    0.152693
    15  H    0.150319
    16  H    0.156538
    17  H    0.146644
    18  H    0.157545
    19  H    0.158086
    20  H    0.156151
    21  C   -0.166697
    22  C   -0.220012
    23  C   -0.172242
    24  C    0.158385
    25  C   -0.171137
    26  C   -0.219684
    27  H    0.228446
    28  H    0.226213
    29  H    0.276398
    30  H    0.276302
    31  H    0.225179
    32  N    0.488096
    33  O   -0.460097
    34  O   -0.460065
 Sum of Mulliken charges =  -0.00000

 Dipole moment (field-independent basis, Debye):
    X=              3.5635    Y=             -0.4609    Z=              3.6496  Tot=              5.1215
 Quadrupole moment (field-independent basis, Debye-Ang):
   XX=           -113.0724   YY=            -91.1109   ZZ=            -94.1629
   XY=              1.2868   XZ=             -8.6052   YZ=              0.4730

 Normal termination of Gaussian 16 at Wed May  5 20:15:17 2021.
