 Gaussian 16, Revision A.03,
 Gaussian 16:  EM64L-G16RevA.03 25-Dec-2016

 -------------
 #p 6-31g* mp2
 -------------

 ------------------------------------------------------
 Input file generated by CHIRIPA (05-May-2021 14:53:14)
 ------------------------------------------------------
 Symbolic Z-matrix:
 Charge =  0 Multiplicity = 1

                         Standard orientation:
 ---------------------------------------------------------------------
 Center     Atomic      Atomic             Coordinates (Angstroms)
 Number     Number       Type             X           Y           Z
 ---------------------------------------------------------------------
      1          6           0        3.888738   -0.285474   -0.111054
      2          6           0        4.583065   -1.182963    0.913840
      3          6           0        4.971009   -2.545841    0.339507
      4          1           0        2.991260   -0.795398   -0.487160
      5          1           0        4.553325   -0.144734   -0.974716
      6          1           0        3.917919   -1.320840    1.775923
      7          1           0        5.478889   -0.670762    1.287691
      8          1           0        5.654225   -2.426571   -0.507600
      9          1           0        4.084385   -3.080342   -0.016594
     10          1           0        5.465899   -3.171235    1.089058
     11          6           0        3.494788    1.080473    0.448161
     12          6           0        2.800461    1.977962   -0.576733
     13          6           0        2.412517    3.340840   -0.002400
     14          1           0        2.830200    0.939733    1.311823
     15          1           0        4.392266    1.590397    0.824267
     16          1           0        1.904636    1.465762   -0.950584
     17          1           0        3.465607    2.115839   -1.438815
     18          1           0        3.299140    3.875341    0.353701
     19          1           0        1.729301    3.221570    0.844707
     20          1           0        1.917627    3.966234   -0.751951
     21          6           0       -5.089500    0.486980    0.799165
     22          6           0       -4.848920   -0.882271    0.644914
     23          6           0       -3.630668   -1.335544    0.130175
     24          6           0       -2.670988   -0.387649   -0.221673
     25          6           0       -2.880795    0.983179   -0.079890
     26          6           0       -4.106404    1.413701    0.436909
     27          1           0       -6.038725    0.830257    1.199827
     28          1           0       -5.610574   -1.604248    0.925407
     29          1           0       -3.418045   -2.389741    0.000260
     30          1           0       -2.102240    1.678926   -0.368343
     31          1           0       -4.290478    2.477691    0.555603
     32          7           0       -1.377386   -0.855466   -0.767694
     33          8           0       -0.548201   -0.000144   -1.070208
     34          8           0       -1.217140   -2.068604   -0.882815
 ---------------------------------------------------------------------

 SCF Done:  E(RHF) =  -669.536410997     A.U. after   15 cycles
 E2 =    -0.2091037718D+01 EUMP2 =    -0.67162744871534D+03

 The electronic state is 1-A.
 Alpha  occ. eigenvalues --  -20.61024 -20.61018 -15.86061 -11.31340 -11.27899
 Alpha  occ. eigenvalues --  -11.27894 -11.27631 -11.26899 -11.26888 -11.20662
 Alpha  occ. eigenvalues --  -11.20378 -11.20329 -11.20292 -11.20186 -11.20178
 Alpha  occ. eigenvalues --   -1.60085  -1.39642  -1.19505  -1.08917  -1.07351
 Alpha  occ. eigenvalues --   -1.04896  -1.02544  -0.95766  -0.95032  -0.86298
 Alpha  occ. eigenvalues --   -0.86052  -0.82603  -0.78595  -0.77659  -0.77143
 Alpha  occ. eigenvalues --   -0.72288  -0.71397  -0.70614  -0.65165  -0.64898
 Alpha  occ. eigenvalues --   -0.63961  -0.62243  -0.59931  -0.58401  -0.56636
 Alpha  occ. eigenvalues --   -0.55402  -0.54324  -0.53230  -0.52987  -0.51763
 Alpha  occ. eigenvalues --   -0.51459  -0.49066  -0.49042  -0.48942  -0.46923
 Alpha  occ. eigenvalues --   -0.45594  -0.45081  -0.44721  -0.44509  -0.42782
 Alpha  occ. eigenvalues --   -0.37483  -0.36496
 Alpha virt. eigenvalues --    0.04862   0.11160   0.16357   0.21226   0.23893
 Alpha virt. eigenvalues --    0.25092   0.27206   0.27564   0.28159   0.28823
 Alpha virt. eigenvalues --    0.28916   0.30868   0.32036   0.32538   0.32666

 Mulliken charges:
               1
     1  C   -0.302806
     2  C   -0.298439
     3  C   -0.476002
     4  H    0.166202
     5  H    0.146132
     6  H    0.150109
     7  H    0.147721
     8  H    0.153350
     9  H    0.159745
    10  H    0.156177
    11  C   -0.295268
    12  C   -0.311921
    13  C   -0.474270
    14  H    0.146694
    15  H    0.143637
    16  H    0.180866
    17  H    0.147474
    18  H    0.151521
    19  H    0.150003
    20  H    0.155706
    21  C   -0.170492
    22  C   -0.218601
    23  C   -0.170561
    24  C    0.157297
    25  C   -0.170747
    26  C   -0.218566
    27  H    0.226209
    28  H    0.223972
    29  H    0.275897
    30  H    0.276107
    31  H    0.224202
    32  N    0.495156
    33  O   -0.467568
    34  O   -0.458933
 Sum of Mulliken charges =  -0.00000

 Dipole moment (field-independent basis, Debye):
    X=             -4.8886    Y=              1.4913    Z=              1.8065  Tot=              5.4209
 Quadrupole moment (field-independent basis, Debye-Ang):
   XX=            -70.8655   YY=            -93.1723   ZZ=            -96.5688
   XY=             -0.6989   XZ=             -5.0493   YZ=             -1.9522

 Normal termination of Gaussian 16 at Thu May  6 12:07:36 2021.
