 Gaussian 16, Revision A.03,
 Gaussian 16:  EM64L-G16RevA.03 25-Dec-2016

 -------------
 #p 6-31g* mp2
 -------------

 ------------------------------------------------------
 Input file generated by CHIRIPA (05-May-2021 14:57:27)
 ------------------------------------------------------
 Symbolic Z-matrix:
 Charge =  0 Multiplicity = 1

                         Standard orientation:
 ---------------------------------------------------------------------
 Center     Atomic      Atomic             Coordinates (Angstroms)
 Number     Number       Type             X           Y           Z
 ---------------------------------------------------------------------
      1          6           0        4.594992    2.060154    1.160602
      2          6           0        5.345102    0.882935    1.071100
      3          6           0        4.855529   -0.218828    0.363298
      4          6           0        3.606385   -0.108186   -0.245543
      5          6           0        2.835288    1.050970   -0.174433
      6          6           0        3.344683    2.140273    0.538646
      7          1           0        4.983004    2.911191    1.712489
      8          1           0        6.316426    0.817864    1.553118
      9          1           0        5.415289   -1.142312    0.278071
     10          1           0        1.870367    1.085803   -0.665486
     11          1           0        2.759942    3.053247    0.606483
     12          7           0        3.077603   -1.267978   -0.997655
     13          8           0        1.974283   -1.145147   -1.525133
     14          8           0        3.776477   -2.277894   -1.045440
     15          6           0       -2.506111   -2.066544    1.132203
     16          6           0       -1.867445   -1.288779    0.160757
     17          6           0       -2.515785   -0.187452   -0.406059
     18          6           0       -3.808330    0.108803    0.023883
     19          6           0       -4.471178   -0.646843    0.989761
     20          6           0       -3.803651   -1.743662    1.542881
     21          1           0       -1.995011   -2.920330    1.567201
     22          1           0       -0.859778   -1.537180   -0.160101
     23          1           0       -2.044761    0.431661   -1.159885
     24          1           0       -5.475892   -0.374432    1.289362
     25          1           0       -4.302101   -2.345903    2.297135
     26          7           0       -4.504856    1.272344   -0.568931
     27          8           0       -5.643402    1.512415   -0.173059
     28          8           0       -3.899057    1.922223   -1.418226
 ---------------------------------------------------------------------

 SCF Done:  E(RHF) =  -868.339956567     A.U. after   16 cycles
 E2 =    -0.2598466838D+01 EUMP2 =    -0.87093842340411D+03

 The electronic state is 1-A.
 Alpha  occ. eigenvalues --  -20.61658 -20.61592 -20.60499 -20.60493 -15.86649
 Alpha  occ. eigenvalues --  -15.85544 -11.31767 -11.30779 -11.28313 -11.28292
 Alpha  occ. eigenvalues --  -11.27976 -11.27338 -11.27261 -11.27252 -11.27234
 Alpha  occ. eigenvalues --  -11.26986 -11.26346 -11.26122  -1.60684  -1.59576
 Alpha  occ. eigenvalues --   -1.40247  -1.39134  -1.19911  -1.18916  -1.09348
 Alpha  occ. eigenvalues --   -1.08332  -1.05273  -1.04278  -0.96225  -0.95197
 Alpha  occ. eigenvalues --   -0.86683  -0.85680  -0.83066  -0.82017  -0.78149
 Alpha  occ. eigenvalues --   -0.77087  -0.72874  -0.71990  -0.71765  -0.71011
 Alpha  occ. eigenvalues --   -0.70898  -0.70023  -0.65565  -0.65264  -0.64555
 Alpha  occ. eigenvalues --   -0.64235  -0.62625  -0.61608  -0.55772  -0.54781
 Alpha  occ. eigenvalues --   -0.53618  -0.53356  -0.52644  -0.52333  -0.49645
 Alpha  occ. eigenvalues --   -0.49600  -0.48529  -0.48507  -0.45694  -0.44568
 Alpha  occ. eigenvalues --   -0.37871  -0.36897  -0.36865  -0.35889
 Alpha virt. eigenvalues --    0.04326   0.05406   0.10789   0.11762   0.15847
 Alpha virt. eigenvalues --    0.16944   0.20742   0.22032   0.26327   0.27267
 Alpha virt. eigenvalues --    0.28532   0.28858   0.30743   0.31517   0.32611

 Mulliken charges:
               1
     1  C   -0.170028
     2  C   -0.218451
     3  C   -0.170898
     4  C    0.157595
     5  C   -0.170877
     6  C   -0.218282
     7  H    0.228232
     8  H    0.225263
     9  H    0.276126
    10  H    0.272925
    11  H    0.227421
    12  N    0.489118
    13  O   -0.469022
    14  O   -0.455845
    15  C   -0.172038
    16  C   -0.227026
    17  C   -0.174692
    18  C    0.158495
    19  C   -0.172727
    20  C   -0.218469
    21  H    0.226382
    22  H    0.242965
    23  H    0.274589
    24  H    0.273611
    25  H    0.221616
    26  N    0.488054
    27  O   -0.461784
    28  O   -0.462253
 Sum of Mulliken charges =  -0.00000

 Dipole moment (field-independent basis, Debye):
    X=              4.7186    Y=             -0.0142    Z=              4.7788  Tot=              6.7158
 Quadrupole moment (field-independent basis, Debye-Ang):
   XX=           -103.7530   YY=           -105.8679   ZZ=           -105.5423
   XY=             29.4161   XZ=              0.0260   YZ=             -2.2651

 Normal termination of Gaussian 16 at Thu May  6 05:14:30 2021.
