 Gaussian 16, Revision A.03,
 Gaussian 16:  EM64L-G16RevA.03 25-Dec-2016

 -------------
 #p 6-31g* mp2
 -------------

 ------------------------------------------------------
 Input file generated by CHIRIPA (05-May-2021 14:57:26)
 ------------------------------------------------------
 Symbolic Z-matrix:
 Charge =  0 Multiplicity = 1

                         Standard orientation:
 ---------------------------------------------------------------------
 Center     Atomic      Atomic             Coordinates (Angstroms)
 Number     Number       Type             X           Y           Z
 ---------------------------------------------------------------------
      1          6           0       -1.937060    1.156054    0.330474
      2          6           0       -2.227741   -0.040062    0.994803
      3          6           0       -3.477089   -0.649534    0.845738
      4          6           0       -4.416441   -0.032686    0.020871
      5          6           0       -4.156874    1.158984   -0.654286
      6          6           0       -2.900855    1.750711   -0.490503
      7          1           0       -0.963945    1.622614    0.451988
      8          1           0       -1.481178   -0.504135    1.633024
      9          1           0       -3.728634   -1.575570    1.348331
     10          1           0       -4.921454    1.597838   -1.283764
     11          1           0       -2.677888    2.679625   -1.007657
     12          7           0       -5.742601   -0.668514   -0.144728
     13          8           0       -6.552975   -0.105014   -0.877121
     14          8           0       -5.946561   -1.718336    0.461004
     15          6           0        3.677320    2.379910    0.239175
     16          6           0        5.004432    1.955997    0.114310
     17          6           0        5.304583    0.599912   -0.045347
     18          6           0        4.248200   -0.309157   -0.075942
     19          6           0        2.915763    0.082089    0.045839
     20          6           0        2.639051    1.443254    0.204602
     21          1           0        3.453258    3.435324    0.362853
     22          1           0        5.812793    2.681184    0.140806
     23          1           0        6.322988    0.244283   -0.144327
     24          1           0        2.131322   -0.664344    0.015675
     25          1           0        1.607454    1.769593    0.301329
     26          7           0        4.553549   -1.747474   -0.244491
     27          8           0        3.604829   -2.528499   -0.268278
     28          8           0        5.735821   -2.066565   -0.349621
 ---------------------------------------------------------------------

 SCF Done:  E(RHF) =  -868.336326164     A.U. after   16 cycles
 E2 =    -0.2599634049D+01 EUMP2 =    -0.87093596021339D+03

 The electronic state is 1-A.
 Alpha  occ. eigenvalues --  -20.61348 -20.61338 -20.61066 -20.61060 -15.86408
 Alpha  occ. eigenvalues --  -15.86123 -11.31907 -11.31631 -11.28571 -11.28464
 Alpha  occ. eigenvalues --  -11.28295 -11.28205 -11.28187 -11.28141 -11.27691
 Alpha  occ. eigenvalues --  -11.27486 -11.27316 -11.27300  -1.60419  -1.60137
 Alpha  occ. eigenvalues --   -1.39969  -1.39686  -1.20109  -1.19828  -1.09478
 Alpha  occ. eigenvalues --   -1.09231  -1.05551  -1.05241  -0.96284  -0.96038
 Alpha  occ. eigenvalues --   -0.86944  -0.86653  -0.83133  -0.82851  -0.78155
 Alpha  occ. eigenvalues --   -0.77845  -0.72622  -0.72341  -0.71745  -0.71460
 Alpha  occ. eigenvalues --   -0.71214  -0.71042  -0.65769  -0.65597  -0.65495
 Alpha  occ. eigenvalues --   -0.65255  -0.62911  -0.62575  -0.56082  -0.55843
 Alpha  occ. eigenvalues --   -0.53848  -0.53644  -0.53570  -0.53346  -0.49393
 Alpha  occ. eigenvalues --   -0.49369  -0.49112  -0.49084  -0.45345  -0.45059
 Alpha  occ. eigenvalues --   -0.38086  -0.37866  -0.37151  -0.36826
 Alpha virt. eigenvalues --    0.04415   0.04671   0.10504   0.10806   0.15868
 Alpha virt. eigenvalues --    0.16064   0.17443   0.22011   0.24426   0.26364
 Alpha virt. eigenvalues --    0.27733   0.28780   0.29780   0.31449   0.32389

 Mulliken charges:
               1
     1  C   -0.174722
     2  C   -0.220347
     3  C   -0.169351
     4  C    0.159494
     5  C   -0.169989
     6  C   -0.218987
     7  H    0.219957
     8  H    0.224497
     9  H    0.278701
    10  H    0.277237
    11  H    0.223354
    12  N    0.487852
    13  O   -0.459252
    14  O   -0.458175
    15  C   -0.171371
    16  C   -0.218218
    17  C   -0.169504
    18  C    0.159249
    19  C   -0.172206
    20  C   -0.221166
    21  H    0.226829
    22  H    0.226108
    23  H    0.278198
    24  H    0.274226
    25  H    0.217216
    26  N    0.488142
    27  O   -0.459805
    28  O   -0.457967
 Sum of Mulliken charges =  -0.00000

 Dipole moment (field-independent basis, Debye):
    X=              3.6329    Y=              7.1998    Z=              1.1492  Tot=              8.1459
 Quadrupole moment (field-independent basis, Debye-Ang):
   XX=           -148.4564   YY=           -105.9949   ZZ=           -104.4069
   XY=             12.1750   XZ=              0.8658   YZ=             -3.3369

 Normal termination of Gaussian 16 at Thu May  6 18:07:13 2021.
