 Gaussian 16, Revision A.03,
 Gaussian 16:  EM64L-G16RevA.03 25-Dec-2016

 -------------
 #p 6-31g* mp2
 -------------

 ------------------------------------------------------
 Input file generated by CHIRIPA (05-May-2021 14:51:12)
 ------------------------------------------------------
 Symbolic Z-matrix:
 Charge =  0 Multiplicity = 1

                         Standard orientation:
 ---------------------------------------------------------------------
 Center     Atomic      Atomic             Coordinates (Angstroms)
 Number     Number       Type             X           Y           Z
 ---------------------------------------------------------------------
      1          6           0        2.306940   -0.417813   -0.336902
      2          6           0        2.950257   -1.804591   -0.368128
      3          6           0        1.985496   -2.893334   -0.838949
      4          1           0        1.429248   -0.442542    0.323395
      5          1           0        1.935702   -0.170788   -1.341170
      6          1           0        3.321404   -2.048347    0.635590
      7          1           0        3.826631   -1.776510   -1.028276
      8          1           0        1.624071   -2.677071   -1.849495
      9          1           0        1.115974   -2.950452   -0.176175
     10          1           0        2.466016   -3.876565   -0.853678
     11          6           0        3.258918    0.681214    0.131719
     12          6           0        2.615601    2.067992    0.162945
     13          6           0        3.580361    3.156734    0.633766
     14          1           0        3.630156    0.434189    1.135987
     15          1           0        4.136609    0.705942   -0.528578
     16          1           0        1.739227    2.039910    0.823093
     17          1           0        2.244454    2.311747   -0.840773
     18          1           0        4.449884    3.213852   -0.029008
     19          1           0        3.941786    2.940471    1.644312
     20          1           0        3.099842    4.139965    0.648495
     21          6           0       -2.685217    0.575221   -0.169709
     22          6           0       -3.950934    1.430587   -0.104179
     23          6           0       -3.739556    2.842119   -0.652535
     24          1           0       -1.884343    1.072997    0.393995
     25          1           0       -2.343885    0.517158   -1.212549
     26          1           0       -4.290560    1.485876    0.938036
     27          1           0       -4.748944    0.930623   -0.667946
     28          1           0       -3.423075    2.805115   -1.699947
     29          1           0       -2.962086    3.363523   -0.084840
     30          1           0       -4.656964    3.436290   -0.596116
     31          6           0       -2.880640   -0.838621    0.374892
     32          6           0       -1.614923   -1.693988    0.309363
     33          6           0       -1.826301   -3.105519    0.857719
     34          1           0       -3.221973   -0.780558    1.417731
     35          1           0       -3.681515   -1.336397   -0.188813
     36          1           0       -0.816914   -1.194023    0.873128
     37          1           0       -1.275298   -1.749277   -0.732853
     38          1           0       -2.603771   -3.626924    0.290022
     39          1           0       -2.142783   -3.068515    1.905129
     40          1           0       -0.908893   -3.699690    0.801298
 ---------------------------------------------------------------------

 SCF Done:  E(RHF) =  -470.732283579     A.U. after   11 cycles
 E2 =    -0.1584394837D+01 EUMP2 =    -0.47231667841547D+03

 The electronic state is 1-A.
 Alpha  occ. eigenvalues --  -11.21599 -11.21591 -11.21587 -11.21557 -11.21404
 Alpha  occ. eigenvalues --  -11.21359 -11.21344 -11.21282 -11.21083 -11.21066
 Alpha  occ. eigenvalues --  -11.21064 -11.20984  -1.08455  -1.08375  -1.03584
 Alpha  occ. eigenvalues --   -1.03458  -0.96029  -0.95910  -0.87037  -0.86933
 Alpha  occ. eigenvalues --   -0.79699  -0.79498  -0.78388  -0.78049  -0.65135
 Alpha  occ. eigenvalues --   -0.64973  -0.61000  -0.60900  -0.59478  -0.59217
 Alpha  occ. eigenvalues --   -0.57795  -0.57388  -0.55280  -0.55218  -0.52740
 Alpha  occ. eigenvalues --   -0.52637  -0.52540  -0.52202  -0.49951  -0.49846
 Alpha  occ. eigenvalues --   -0.48037  -0.47778  -0.46737  -0.46530  -0.46138
 Alpha  occ. eigenvalues --   -0.45786  -0.45612  -0.45207  -0.43800  -0.43738
 Alpha virt. eigenvalues --    0.21233   0.23008   0.23359   0.24682   0.25115
 Alpha virt. eigenvalues --    0.26381   0.26658   0.27474   0.28805   0.29825
 Alpha virt. eigenvalues --    0.30611   0.30847   0.31505   0.31770   0.32044

 Mulliken charges:
               1
     1  C   -0.303698
     2  C   -0.299001
     3  C   -0.484387
     4  H    0.155915
     5  H    0.149137
     6  H    0.151175
     7  H    0.151578
     8  H    0.154379
     9  H    0.166309
    10  H    0.159350
    11  C   -0.297949
    12  C   -0.299387
    13  C   -0.475682
    14  H    0.149056
    15  H    0.149539
    16  H    0.150972
    17  H    0.152306
    18  H    0.155272
    19  H    0.155036
    20  H    0.160170
    21  C   -0.298260
    22  C   -0.299682
    23  C   -0.475649
    24  H    0.149529
    25  H    0.149788
    26  H    0.151801
    27  H    0.151956
    28  H    0.155182
    29  H    0.155288
    30  H    0.160186
    31  C   -0.298010
    32  C   -0.305261
    33  C   -0.480393
    34  H    0.149125
    35  H    0.149730
    36  H    0.155036
    37  H    0.155109
    38  H    0.155928
    39  H    0.155117
    40  H    0.163393
 Sum of Mulliken charges =  -0.00000

 Dipole moment (field-independent basis, Debye):
    X=             -0.0338    Y=             -0.0068    Z=             -0.0086  Tot=              0.0356
 Quadrupole moment (field-independent basis, Debye-Ang):
   XX=            -85.1345   YY=            -86.6232   ZZ=            -83.2056
   XY=             -0.3082   XZ=             -0.1718   YZ=              0.2220

 Normal termination of Gaussian 16 at Wed May  5 23:10:09 2021.
