 Gaussian 16, Revision A.03,
 Gaussian 16:  EM64L-G16RevA.03 25-Dec-2016

 -------------
 #p 6-31g* mp2
 -------------

 ------------------------------------------------------
 Input file generated by CHIRIPA (05-May-2021 14:57:21)
 ------------------------------------------------------
 Symbolic Z-matrix:
 Charge =  0 Multiplicity = 1

                         Standard orientation:
 ---------------------------------------------------------------------
 Center     Atomic      Atomic             Coordinates (Angstroms)
 Number     Number       Type             X           Y           Z
 ---------------------------------------------------------------------
      1          6           0       -1.929903    2.594481    0.573912
      2          6           0       -1.416681    1.452080    1.196845
      3          6           0       -2.003533    0.201594    0.981351
      4          6           0       -3.107341    0.129625    0.132988
      5          6           0       -3.641791    1.249552   -0.502163
      6          6           0       -3.038864    2.489755   -0.272112
      7          1           0       -1.467778    3.561894    0.746967
      8          1           0       -0.555547    1.530418    1.854383
      9          1           0       -1.626610   -0.698939    1.450804
     10          1           0       -4.501263    1.139913   -1.152320
     11          1           0       -3.439577    3.375268   -0.757232
     12          7           0       -3.737123   -1.188766   -0.102851
     13          8           0       -4.708692   -1.225536   -0.854742
     14          8           0       -3.247253   -2.160386    0.468654
     15          6           0        4.853856    1.367706   -0.123286
     16          6           0        3.606347    1.699149   -0.662163
     17          6           0        2.573842    0.757103   -0.694282
     18          6           0        2.824664   -0.512674   -0.176553
     19          6           0        4.056713   -0.873183    0.366933
     20          6           0        5.074668    0.084859    0.388639
     21          1           0        5.650279    2.105723   -0.102380
     22          1           0        3.432010    2.694652   -1.060442
     23          1           0        1.598467    0.986975   -1.105647
     24          1           0        4.200464   -1.873691    0.756468
     25          1           0        6.042494   -0.175345    0.807748
     26          7           0        1.739299   -1.518444   -0.205043
     27          8           0        1.985632   -2.630246    0.257398
     28          8           0        0.662809   -1.175919   -0.689278
 ---------------------------------------------------------------------

 SCF Done:  E(RHF) =  -868.337141528     A.U. after   16 cycles
 E2 =    -0.2600761226D+01 EUMP2 =    -0.87093790275364D+03

 The electronic state is 1-A.
 Alpha  occ. eigenvalues --  -20.61117 -20.61110 -20.59860 -20.59798 -15.86155
 Alpha  occ. eigenvalues --  -15.84893 -11.31601 -11.30389 -11.28178 -11.28155
 Alpha  occ. eigenvalues --  -11.27923 -11.27217 -11.27176 -11.27098 -11.26979
 Alpha  occ. eigenvalues --  -11.26962 -11.26160 -11.26119  -1.60189  -1.58899
 Alpha  occ. eigenvalues --   -1.39738  -1.38448  -1.19780  -1.18640  -1.09159
 Alpha  occ. eigenvalues --   -1.08035  -1.05188  -1.04077  -0.95978  -0.94829
 Alpha  occ. eigenvalues --   -0.86579  -0.85481  -0.82805  -0.81666  -0.77845
 Alpha  occ. eigenvalues --   -0.76650  -0.72369  -0.71541  -0.71122  -0.70869
 Alpha  occ. eigenvalues --   -0.70207  -0.69803  -0.65425  -0.65182  -0.64316
 Alpha  occ. eigenvalues --   -0.64124  -0.62525  -0.61417  -0.55675  -0.54666
 Alpha  occ. eigenvalues --   -0.53527  -0.53273  -0.52391  -0.52197  -0.49124
 Alpha  occ. eigenvalues --   -0.49114  -0.47902  -0.47849  -0.45128  -0.43821
 Alpha  occ. eigenvalues --   -0.37771  -0.36824  -0.36668  -0.35617
 Alpha virt. eigenvalues --    0.04624   0.05950   0.10810   0.11993   0.16149
 Alpha virt. eigenvalues --    0.17322   0.21012   0.21917   0.26907   0.27720
 Alpha virt. eigenvalues --    0.27990   0.28852   0.30577   0.31412   0.32115

 Mulliken charges:
               1
     1  C   -0.174475
     2  C   -0.223942
     3  C   -0.150262
     4  C    0.156964
     5  C   -0.170664
     6  C   -0.220314
     7  H    0.218985
     8  H    0.218004
     9  H    0.281686
    10  H    0.273923
    11  H    0.219203
    12  N    0.488791
    13  O   -0.465649
    14  O   -0.453242
    15  C   -0.170914
    16  C   -0.219498
    17  C   -0.174889
    18  C    0.156466
    19  C   -0.170971
    20  C   -0.218585
    21  H    0.226391
    22  H    0.222502
    23  H    0.277221
    24  H    0.277396
    25  H    0.224972
    26  N    0.486225
    27  O   -0.455793
    28  O   -0.459532
 Sum of Mulliken charges =  -0.00000

 Dipole moment (field-independent basis, Debye):
    X=              6.2042    Y=              7.8041    Z=              0.9410  Tot=             10.0141
 Quadrupole moment (field-independent basis, Debye-Ang):
   XX=            -93.8960   YY=           -105.4270   ZZ=           -103.1776
   XY=             -9.5283   XZ=              1.1079   YZ=             -3.3271

 Normal termination of Gaussian 16 at Thu May  6 21:04:07 2021.
