 Gaussian 16, Revision A.03,
 Gaussian 16:  EM64L-G16RevA.03 25-Dec-2016

 -------------
 #p 6-31g* mp2
 -------------

 ------------------------------------------------------
 Input file generated by CHIRIPA (05-May-2021 14:57:24)
 ------------------------------------------------------
 Symbolic Z-matrix:
 Charge =  0 Multiplicity = 1

                         Standard orientation:
 ---------------------------------------------------------------------
 Center     Atomic      Atomic             Coordinates (Angstroms)
 Number     Number       Type             X           Y           Z
 ---------------------------------------------------------------------
      1          6           0       -1.434721    2.506496    0.613136
      2          6           0       -1.732293    1.679585    1.701341
      3          6           0       -2.431797    0.483704    1.513962
      4          6           0       -2.820257    0.144038    0.218966
      5          6           0       -2.538733    0.946753   -0.885427
      6          6           0       -1.838180    2.138090   -0.674505
      7          1           0       -0.890922    3.433720    0.767841
      8          1           0       -1.420212    1.963161    2.702458
      9          1           0       -2.675361   -0.175131    2.338602
     10          1           0       -2.863003    0.637381   -1.871610
     11          1           0       -1.608465    2.778323   -1.521486
     12          7           0       -3.561346   -1.119583    0.008134
     13          8           0       -3.892460   -1.396297   -1.142705
     14          8           0       -3.797065   -1.809368    0.997714
     15          6           0        4.991981   -0.027727    0.745668
     16          6           0        4.186604   -1.089050    1.171677
     17          6           0        2.913933   -1.278514    0.624903
     18          6           0        2.476354   -0.383676   -0.350330
     19          6           0        3.255222    0.683283   -0.795586
     20          6           0        4.524544    0.853499   -0.234875
     21          1           0        5.979321    0.111977    1.175829
     22          1           0        4.547020   -1.774980    1.933022
     23          1           0        2.269658   -2.091739    0.936340
     24          1           0        2.868517    1.350629   -1.556195
     25          1           0        5.147832    1.678617   -0.567643
     26          7           0        1.130808   -0.574064   -0.936553
     27          8           0        0.768454    0.228154   -1.794330
     28          8           0        0.464001   -1.521904   -0.527156
 ---------------------------------------------------------------------

 SCF Done:  E(RHF) =  -868.337951248     A.U. after   16 cycles
 E2 =    -0.2601855097D+01 EUMP2 =    -0.87093980634528D+03

 The electronic state is 1-A.
 Alpha  occ. eigenvalues --  -20.61117 -20.61101 -20.59518 -20.59489 -15.86130
 Alpha  occ. eigenvalues --  -15.84561 -11.31510 -11.29893 -11.28104 -11.28040
 Alpha  occ. eigenvalues --  -11.27812 -11.27108 -11.27065 -11.26552 -11.26405
 Alpha  occ. eigenvalues --  -11.26344 -11.25666 -11.25493  -1.60157  -1.58564
 Alpha  occ. eigenvalues --   -1.39718  -1.38127  -1.19679  -1.18094  -1.09071
 Alpha  occ. eigenvalues --   -1.07525  -1.05083  -1.03510  -0.95909  -0.94359
 Alpha  occ. eigenvalues --   -0.86479  -0.84933  -0.82746  -0.81202  -0.77791
 Alpha  occ. eigenvalues --   -0.76223  -0.72376  -0.71480  -0.70808  -0.70784
 Alpha  occ. eigenvalues --   -0.69838  -0.69295  -0.65333  -0.65084  -0.63783
 Alpha  occ. eigenvalues --   -0.63576  -0.62429  -0.60882  -0.55582  -0.54118
 Alpha  occ. eigenvalues --   -0.53423  -0.53173  -0.51865  -0.51650  -0.49128
 Alpha  occ. eigenvalues --   -0.49068  -0.47562  -0.47541  -0.45158  -0.43547
 Alpha  occ. eigenvalues --   -0.37666  -0.36692  -0.36092  -0.34982
 Alpha virt. eigenvalues --    0.04727   0.06370   0.10964   0.12569   0.16233
 Alpha virt. eigenvalues --    0.17826   0.21116   0.22428   0.27020   0.27987
 Alpha virt. eigenvalues --    0.28383   0.29322   0.30675   0.31898   0.32243

 Mulliken charges:
               1
     1  C   -0.177618
     2  C   -0.222208
     3  C   -0.171927
     4  C    0.165874
     5  C   -0.154617
     6  C   -0.207181
     7  H    0.217630
     8  H    0.215925
     9  H    0.270718
    10  H    0.276263
    11  H    0.220503
    12  N    0.490650
    13  O   -0.459784
    14  O   -0.466278
    15  C   -0.171022
    16  C   -0.218790
    17  C   -0.171191
    18  C    0.159621
    19  C   -0.172039
    20  C   -0.218837
    21  H    0.226281
    22  H    0.224897
    23  H    0.278306
    24  H    0.272747
    25  H    0.223085
    26  N    0.489780
    27  O   -0.464208
    28  O   -0.456582
 Sum of Mulliken charges =  -0.00000

 Dipole moment (field-independent basis, Debye):
    X=              7.4622    Y=              4.8875    Z=              2.5358  Tot=              9.2737
 Quadrupole moment (field-independent basis, Debye-Ang):
   XX=            -97.5708   YY=           -102.0906   ZZ=           -100.3002
   XY=            -11.7115   XZ=              2.6425   YZ=             -4.1035

 Normal termination of Gaussian 16 at Wed May  5 16:22:47 2021.
