 Gaussian 16, Revision A.03,
 Gaussian 16:  EM64L-G16RevA.03 25-Dec-2016

 -------------
 #p 6-31g* mp2
 -------------

 ------------------------------------------------------
 Input file generated by CHIRIPA (05-May-2021 14:53:14)
 ------------------------------------------------------
 Symbolic Z-matrix:
 Charge =  0 Multiplicity = 1

                         Standard orientation:
 ---------------------------------------------------------------------
 Center     Atomic      Atomic             Coordinates (Angstroms)
 Number     Number       Type             X           Y           Z
 ---------------------------------------------------------------------
      1          6           0       -3.070120    0.543179   -0.525976
      2          6           0       -2.777701    2.043998   -0.521623
      3          6           0       -1.769700    2.452986   -1.596079
      4          1           0       -2.130947   -0.007344   -0.378248
      5          1           0       -3.449866    0.253550   -1.515574
      6          1           0       -2.399927    2.330962    0.468101
      7          1           0       -3.717707    2.591016   -0.669188
      8          1           0       -2.142703    2.194824   -2.592484
      9          1           0       -0.817434    1.933292   -1.448733
     10          1           0       -1.575299    3.529846   -1.575096
     11          6           0       -4.076048    0.118867    0.542573
     12          6           0       -4.368467   -1.381952    0.538220
     13          6           0       -5.376469   -1.790940    1.612675
     14          1           0       -3.696303    0.408496    1.532170
     15          1           0       -5.015221    0.669390    0.394844
     16          1           0       -3.428461   -1.928971    0.685784
     17          1           0       -4.746242   -1.668916   -0.451504
     18          1           0       -6.328734   -1.271247    1.465330
     19          1           0       -5.003466   -1.532779    2.609080
     20          1           0       -5.570870   -2.867800    1.591692
     21          6           0        3.782412    1.191948    1.804548
     22          6           0        4.361060   -0.045495    1.503851
     23          6           0        3.820454   -0.857503    0.502384
     24          6           0        2.695672   -0.398846   -0.181566
     25          6           0        2.096389    0.829049    0.094881
     26          6           0        2.653913    1.624510    1.100346
     27          1           0        4.208939    1.816309    2.584064
     28          1           0        5.237508   -0.383988    2.049110
     29          1           0        4.248341   -1.819903    0.249171
     30          1           0        1.223123    1.139493   -0.465876
     31          1           0        2.202422    2.585062    1.331731
     32          7           0        2.114401   -1.249724   -1.243891
     33          8           0        1.123113   -0.822866   -1.831919
     34          8           0        2.661096   -2.327387   -1.468398
 ---------------------------------------------------------------------

 SCF Done:  E(RHF) =  -669.535633299     A.U. after   15 cycles
 E2 =    -0.2091446923D+01 EUMP2 =    -0.67162708022243D+03

 The electronic state is 1-A.
 Alpha  occ. eigenvalues --  -20.60831 -20.60826 -15.85875 -11.31229 -11.27796
 Alpha  occ. eigenvalues --  -11.27791 -11.27539 -11.26813 -11.26802 -11.21545
 Alpha  occ. eigenvalues --  -11.21290 -11.21144 -11.21074 -11.21033 -11.20838
 Alpha  occ. eigenvalues --   -1.59900  -1.39455  -1.19403  -1.08800  -1.08203
 Alpha  occ. eigenvalues --   -1.04805  -1.03361  -0.95808  -0.95635  -0.86826
 Alpha  occ. eigenvalues --   -0.86204  -0.82467  -0.79415  -0.77983  -0.77514
 Alpha  occ. eigenvalues --   -0.72094  -0.71220  -0.70521  -0.65056  -0.64907
 Alpha  occ. eigenvalues --   -0.64757  -0.62188  -0.60753  -0.59171  -0.57400
 Alpha  occ. eigenvalues --   -0.55349  -0.55069  -0.53134  -0.52914  -0.52527
 Alpha  occ. eigenvalues --   -0.52196  -0.49750  -0.48857  -0.48850  -0.47717
 Alpha  occ. eigenvalues --   -0.46446  -0.45528  -0.45454  -0.44847  -0.43592
 Alpha  occ. eigenvalues --   -0.37384  -0.36407
 Alpha virt. eigenvalues --    0.05005   0.11237   0.16503   0.20125   0.22989
 Alpha virt. eigenvalues --    0.23974   0.26008   0.27234   0.27617   0.28062
 Alpha virt. eigenvalues --    0.29274   0.30398   0.31497   0.31832   0.32109

 Mulliken charges:
               1
     1  C   -0.299963
     2  C   -0.299808
     3  C   -0.482630
     4  H    0.157010
     5  H    0.153237
     6  H    0.145408
     7  H    0.152232
     8  H    0.162670
     9  H    0.157950
    10  H    0.156021
    11  C   -0.298230
    12  C   -0.299776
    13  C   -0.475606
    14  H    0.146267
    15  H    0.148294
    16  H    0.154613
    17  H    0.153767
    18  H    0.154242
    19  H    0.153432
    20  H    0.160647
    21  C   -0.170313
    22  C   -0.219187
    23  C   -0.169523
    24  C    0.155592
    25  C   -0.179271
    26  C   -0.223872
    27  H    0.225833
    28  H    0.223623
    29  H    0.275782
    30  H    0.292723
    31  H    0.224466
    32  N    0.486497
    33  O   -0.462519
    34  O   -0.459610
 Sum of Mulliken charges =  -0.00000

 Dipole moment (field-independent basis, Debye):
    X=              2.0624    Y=              2.9055    Z=              3.6509  Tot=              5.1014
 Quadrupole moment (field-independent basis, Debye-Ang):
   XX=            -81.4967   YY=            -95.5975   ZZ=            -96.7022
   XY=              4.2594   XZ=             12.0760   YZ=             -2.4121

 Normal termination of Gaussian 16 at Thu May  6 05:50:09 2021.
