 Gaussian 16, Revision A.03,
 Gaussian 16:  EM64L-G16RevA.03 25-Dec-2016

 -------------
 #p 6-31g* mp2
 -------------

 ------------------------------------------------------
 Input file generated by CHIRIPA (05-May-2021 14:55:25)
 ------------------------------------------------------
 Symbolic Z-matrix:
 Charge =  0 Multiplicity = 1

                         Standard orientation:
 ---------------------------------------------------------------------
 Center     Atomic      Atomic             Coordinates (Angstroms)
 Number     Number       Type             X           Y           Z
 ---------------------------------------------------------------------
      1          6           0        1.556559   -1.529104    1.610747
      2          6           0        1.213984   -1.360403    0.265123
      3          6           0        1.994649   -0.556540   -0.570888
      4          6           0        3.116152    0.066556   -0.025660
      5          6           0        3.483504   -0.081939    1.310862
      6          6           0        2.688230   -0.890459    2.128409
      7          1           0        0.944445   -2.155373    2.253008
      8          1           0        0.335669   -1.855162   -0.139626
      9          1           0        1.752413   -0.408656   -1.616292
     10          1           0        4.364908    0.424127    1.685618
     11          1           0        2.956686   -1.019663    3.173054
     12          7           0        3.950340    0.920036   -0.900933
     13          8           0        4.933440    1.458122   -0.396341
     14          8           0        3.605280    1.034746   -2.074992
     15          6           0       -4.020828   -0.638023   -0.206572
     16          6           0       -2.942127   -1.530386   -0.821451
     17          6           0       -3.373360   -2.993685   -0.924359
     18          1           0       -4.276262   -1.017601    0.792236
     19          1           0       -4.935231   -0.710090   -0.811608
     20          1           0       -2.029595   -1.455587   -0.216220
     21          1           0       -2.689095   -1.148526   -1.818834
     22          1           0       -4.269978   -3.088304   -1.545429
     23          1           0       -3.606730   -3.397109    0.066291
     24          1           0       -2.587335   -3.613710   -1.366617
     25          6           0       -3.604561    0.827737   -0.097034
     26          6           0       -4.683263    1.720101    0.517845
     27          6           0       -4.252029    3.183399    0.620755
     28          1           0       -2.690158    0.899805    0.508004
     29          1           0       -3.349127    1.207317   -1.095841
     30          1           0       -4.936294    1.338241    1.515229
     31          1           0       -5.595795    1.645301   -0.087386
     32          1           0       -4.018660    3.586823   -0.369897
     33          1           0       -3.355412    3.278018    1.241823
     34          1           0       -5.038055    3.803425    1.063012
 ---------------------------------------------------------------------

 SCF Done:  E(RHF) =  -669.535541237     A.U. after   15 cycles
 E2 =    -0.2091086243D+01 EUMP2 =    -0.67162662748033D+03

 The electronic state is 1-A.
 Alpha  occ. eigenvalues --  -20.60750 -20.60744 -15.85803 -11.31171 -11.27746
 Alpha  occ. eigenvalues --  -11.27733 -11.27490 -11.26761 -11.26719 -11.22504
 Alpha  occ. eigenvalues --  -11.22031 -11.21978 -11.21899 -11.21849 -11.21333
 Alpha  occ. eigenvalues --   -1.59825  -1.39378  -1.19345  -1.09029  -1.08741
 Alpha  occ. eigenvalues --   -1.04747  -1.04125  -0.96545  -0.95575  -0.87561
 Alpha  occ. eigenvalues --   -0.86149  -0.82407  -0.80222  -0.78816  -0.77448
 Alpha  occ. eigenvalues --   -0.72021  -0.71148  -0.70456  -0.65689  -0.64996
 Alpha  occ. eigenvalues --   -0.64749  -0.62135  -0.61489  -0.59939  -0.58158
 Alpha  occ. eigenvalues --   -0.55820  -0.55253  -0.53260  -0.53079  -0.52972
 Alpha  occ. eigenvalues --   -0.52839  -0.50479  -0.48794  -0.48776  -0.48497
 Alpha  occ. eigenvalues --   -0.47247  -0.46347  -0.46257  -0.44783  -0.44364
 Alpha  occ. eigenvalues --   -0.37329  -0.36343
 Alpha virt. eigenvalues --    0.05083   0.11222   0.16540   0.20134   0.22588
 Alpha virt. eigenvalues --    0.23685   0.25564   0.26356   0.27255   0.28273
 Alpha virt. eigenvalues --    0.28584   0.30230   0.30920   0.31444   0.32067

 Mulliken charges:
               1
     1  C   -0.172444
     2  C   -0.223288
     3  C   -0.171972
     4  C    0.158631
     5  C   -0.170999
     6  C   -0.218552
     7  H    0.225334
     8  H    0.231580
     9  H    0.275979
    10  H    0.275565
    11  H    0.223275
    12  N    0.488082
    13  O   -0.460545
    14  O   -0.460363
    15  C   -0.297739
    16  C   -0.305174
    17  C   -0.476661
    18  H    0.149519
    19  H    0.152597
    20  H    0.144231
    21  H    0.154898
    22  H    0.160315
    23  H    0.155366
    24  H    0.158187
    25  C   -0.299382
    26  C   -0.300102
    27  C   -0.476137
    28  H    0.149459
    29  H    0.151792
    30  H    0.151461
    31  H    0.152941
    32  H    0.157022
    33  H    0.155765
    34  H    0.161360
 Sum of Mulliken charges =  -0.00000

 Dipole moment (field-independent basis, Debye):
    X=             -3.0896    Y=             -2.9497    Z=              3.0576  Tot=              5.2532
 Quadrupole moment (field-independent basis, Debye-Ang):
   XX=           -111.0102   YY=            -96.8101   ZZ=            -91.3009
   XY=             -9.2349   XZ=             12.9677   YZ=              0.8032

 Normal termination of Gaussian 16 at Thu May  6 07:59:45 2021.
