 Gaussian 16, Revision A.03,
 Gaussian 16:  EM64L-G16RevA.03 25-Dec-2016

 -------------
 #p 6-31g* mp2
 -------------

 ------------------------------------------------------
 Input file generated by CHIRIPA (05-May-2021 14:53:16)
 ------------------------------------------------------
 Symbolic Z-matrix:
 Charge =  0 Multiplicity = 1

                         Standard orientation:
 ---------------------------------------------------------------------
 Center     Atomic      Atomic             Coordinates (Angstroms)
 Number     Number       Type             X           Y           Z
 ---------------------------------------------------------------------
      1          6           0        4.000701    0.797001   -0.479741
      2          6           0        2.571295    1.319618   -0.332587
      3          6           0        2.317169    2.584963   -1.152415
      4          1           0        4.704890    1.582279   -0.172492
      5          1           0        4.202129    0.594211   -1.540731
      6          1           0        2.372162    1.520053    0.727973
      7          1           0        1.870421    0.532938   -0.640041
      8          1           0        2.488592    2.395183   -2.216933
      9          1           0        2.993184    3.387906   -0.841146
     10          1           0        1.289300    2.941303   -1.032551
     11          6           0        4.270160   -0.467559    0.333896
     12          6           0        5.699566   -0.990176    0.186743
     13          6           0        5.953692   -2.255521    1.006570
     14          1           0        4.068731   -0.264769    1.394886
     15          1           0        3.565971   -1.252837    0.026647
     16          1           0        6.400439   -0.203497    0.494196
     17          1           0        5.898699   -1.190611   -0.873818
     18          1           0        5.277677   -3.058464    0.695301
     19          1           0        5.782269   -2.065741    2.071088
     20          1           0        6.981561   -2.611861    0.886706
     21          6           0       -2.498628    2.173474    0.784906
     22          6           0       -3.704843    1.641940    1.252922
     23          6           0       -4.120471    0.367408    0.856222
     24          6           0       -3.301589   -0.351253   -0.013403
     25          6           0       -2.094430    0.150934   -0.497001
     26          6           0       -1.698682    1.427589   -0.087024
     27          1           0       -2.183480    3.164386    1.098229
     28          1           0       -4.328115    2.218939    1.930157
     29          1           0       -5.049538   -0.068260    1.203276
     30          1           0       -1.494441   -0.448109   -1.171227
     31          1           0       -0.761422    1.837852   -0.452092
     32          7           0       -3.731073   -1.701667   -0.440400
     33          8           0       -2.991638   -2.314664   -1.207281
     34          8           0       -4.799005   -2.121553   -0.000113
 ---------------------------------------------------------------------

 SCF Done:  E(RHF) =  -669.535485026     A.U. after   15 cycles
 E2 =    -0.2091194903D+01 EUMP2 =    -0.67162667992914D+03

 The electronic state is 1-A.
 Alpha  occ. eigenvalues --  -20.60735 -20.60730 -15.85787 -11.31143 -11.27710
 Alpha  occ. eigenvalues --  -11.27702 -11.27445 -11.26728 -11.26682 -11.22474
 Alpha  occ. eigenvalues --  -11.22120 -11.21979 -11.21895 -11.21769 -11.21263
 Alpha  occ. eigenvalues --   -1.59810  -1.39364  -1.19311  -1.08983  -1.08709
 Alpha  occ. eigenvalues --   -1.04714  -1.04118  -0.96566  -0.95547  -0.87579
 Alpha  occ. eigenvalues --   -0.86113  -0.82379  -0.80196  -0.78742  -0.77429
 Alpha  occ. eigenvalues --   -0.72007  -0.71133  -0.70425  -0.65607  -0.64963
 Alpha  occ. eigenvalues --   -0.64758  -0.62129  -0.61492  -0.59961  -0.58163
 Alpha  occ. eigenvalues --   -0.55822  -0.55214  -0.53353  -0.53072  -0.53040
 Alpha  occ. eigenvalues --   -0.52626  -0.50481  -0.48764  -0.48762  -0.48508
 Alpha  occ. eigenvalues --   -0.47218  -0.46291  -0.46180  -0.44772  -0.44360
 Alpha  occ. eigenvalues --   -0.37294  -0.36310
 Alpha virt. eigenvalues --    0.05101   0.11330   0.16577   0.19387   0.22650
 Alpha virt. eigenvalues --    0.23783   0.25756   0.26031   0.26736   0.28182
 Alpha virt. eigenvalues --    0.28863   0.30094   0.30978   0.31345   0.32047

 Mulliken charges:
               1
     1  C   -0.298695
     2  C   -0.302015
     3  C   -0.479784
     4  H    0.151141
     5  H    0.151766
     6  H    0.153218
     7  H    0.149011
     8  H    0.160560
     9  H    0.160583
    10  H    0.149936
    11  C   -0.299256
    12  C   -0.300233
    13  C   -0.476226
    14  H    0.150036
    15  H    0.152036
    16  H    0.151932
    17  H    0.152958
    18  H    0.157117
    19  H    0.155415
    20  H    0.161350
    21  C   -0.173386
    22  C   -0.218429
    23  C   -0.171338
    24  C    0.159005
    25  C   -0.173872
    26  C   -0.226575
    27  H    0.225508
    28  H    0.223186
    29  H    0.275393
    30  H    0.275499
    31  H    0.237363
    32  N    0.488076
    33  O   -0.460662
    34  O   -0.460615
 Sum of Mulliken charges =  -0.00000

 Dipole moment (field-independent basis, Debye):
    X=              1.7336    Y=              4.7256    Z=              1.5137  Tot=              5.2562
 Quadrupole moment (field-independent basis, Debye-Ang):
   XX=           -100.8101   YY=            -99.2416   ZZ=            -93.4761
   XY=            -16.3197   XZ=             -7.7450   YZ=              0.6925

 Normal termination of Gaussian 16 at Thu May  6 12:12:51 2021.
