 Gaussian 16, Revision A.03,
 Gaussian 16:  EM64L-G16RevA.03 25-Dec-2016

 -------------
 #p 6-31g* mp2
 -------------

 ------------------------------------------------------
 Input file generated by CHIRIPA (05-May-2021 14:57:25)
 ------------------------------------------------------
 Symbolic Z-matrix:
 Charge =  0 Multiplicity = 1

                         Standard orientation:
 ---------------------------------------------------------------------
 Center     Atomic      Atomic             Coordinates (Angstroms)
 Number     Number       Type             X           Y           Z
 ---------------------------------------------------------------------
      1          6           0        5.337786    1.796373    0.666625
      2          6           0        4.008540    2.096077    0.350709
      3          6           0        3.125690    1.084215   -0.038210
      4          6           0        3.607886   -0.222256   -0.100756
      5          6           0        4.926587   -0.552605    0.207770
      6          6           0        5.791767    0.475318    0.594274
      7          1           0        6.016742    2.588650    0.967809
      8          1           0        3.653209    3.121126    0.406015
      9          1           0        2.091637    1.288222   -0.288278
     10          1           0        5.251674   -1.583908    0.143342
     11          1           0        6.823554    0.239627    0.839043
     12          7           0        2.682606   -1.301970   -0.511209
     13          8           0        3.132010   -2.444966   -0.558464
     14          8           0        1.525486   -0.984810   -0.777894
     15          6           0       -3.213674   -2.381634    0.459545
     16          6           0       -4.368317   -1.816843    1.011207
     17          6           0       -4.681180   -0.473739    0.781563
     18          6           0       -3.813238    0.278836   -0.008118
     19          6           0       -2.655373   -0.255075   -0.571658
     20          6           0       -2.362388   -1.600325   -0.328737
     21          1           0       -2.978356   -3.425823    0.643095
     22          1           0       -5.031268   -2.421226    1.623794
     23          1           0       -5.568479   -0.011082    1.196371
     24          1           0       -2.013792    0.372608   -1.178128
     25          1           0       -1.464986   -2.036285   -0.758451
     26          7           0       -4.133930    1.701856   -0.258260
     27          8           0       -3.352993    2.343597   -0.957506
     28          8           0       -5.160152    2.148534    0.249662
 ---------------------------------------------------------------------

 SCF Done:  E(RHF) =  -868.340702985     A.U. after   16 cycles
 E2 =    -0.2598181612D+01 EUMP2 =    -0.87093888459725D+03

 The electronic state is 1-A.
 Alpha  occ. eigenvalues --  -20.61516 -20.61496 -20.60241 -20.60234 -15.86536
 Alpha  occ. eigenvalues --  -15.85280 -11.31589 -11.30404 -11.28128 -11.28102
 Alpha  occ. eigenvalues --  -11.27806 -11.27078 -11.27038 -11.26972 -11.26822
 Alpha  occ. eigenvalues --  -11.26578 -11.25973 -11.25654  -1.60567  -1.59319
 Alpha  occ. eigenvalues --   -1.40130  -1.38879  -1.19732  -1.18528  -1.09186
 Alpha  occ. eigenvalues --   -1.07970  -1.05085  -1.03860  -0.96073  -0.94852
 Alpha  occ. eigenvalues --   -0.86499  -0.85276  -0.82920  -0.81669  -0.77996
 Alpha  occ. eigenvalues --   -0.76749  -0.72781  -0.71862  -0.71506  -0.70837
 Alpha  occ. eigenvalues --   -0.70638  -0.69640  -0.65390  -0.65083  -0.64163
 Alpha  occ. eigenvalues --   -0.63817  -0.62433  -0.61186  -0.55600  -0.54387
 Alpha  occ. eigenvalues --   -0.53435  -0.53171  -0.52247  -0.51914  -0.49535
 Alpha  occ. eigenvalues --   -0.49492  -0.48273  -0.48235  -0.45599  -0.44339
 Alpha  occ. eigenvalues --   -0.37697  -0.36674  -0.36517  -0.35459
 Alpha virt. eigenvalues --    0.04516   0.05725   0.10983   0.12182   0.16073
 Alpha virt. eigenvalues --    0.17295   0.21106   0.22415   0.27036   0.27642
 Alpha virt. eigenvalues --    0.28648   0.29156   0.30816   0.32005   0.32229

 Mulliken charges:
               1
     1  C   -0.169852
     2  C   -0.218703
     3  C   -0.170290
     4  C    0.157601
     5  C   -0.170647
     6  C   -0.218673
     7  H    0.227656
     8  H    0.227343
     9  H    0.276522
    10  H    0.275409
    11  H    0.224592
    12  N    0.491036
    13  O   -0.458831
    14  O   -0.470964
    15  C   -0.172705
    16  C   -0.218711
    17  C   -0.173593
    18  C    0.157672
    19  C   -0.173823
    20  C   -0.222474
    21  H    0.225525
    22  H    0.220077
    23  H    0.272018
    24  H    0.275994
    25  H    0.246430
    26  N    0.488156
    27  O   -0.463675
    28  O   -0.463091
 Sum of Mulliken charges =  -0.00000

 Dipole moment (field-independent basis, Debye):
    X=              4.8683    Y=             -1.2621    Z=              2.2966  Tot=              5.5288
 Quadrupole moment (field-independent basis, Debye-Ang):
   XX=            -84.8066   YY=           -107.7657   ZZ=           -105.0824
   XY=             30.9129   XZ=             -0.2570   YZ=             -0.8991

 Normal termination of Gaussian 16 at Thu May  6 09:53:22 2021.
