 Gaussian 16, Revision A.03,
 Gaussian 16:  EM64L-G16RevA.03 25-Dec-2016

 -------------
 #p 6-31g* mp2
 -------------

 ------------------------------------------------------
 Input file generated by CHIRIPA (05-May-2021 14:57:22)
 ------------------------------------------------------
 Symbolic Z-matrix:
 Charge =  0 Multiplicity = 1

                         Standard orientation:
 ---------------------------------------------------------------------
 Center     Atomic      Atomic             Coordinates (Angstroms)
 Number     Number       Type             X           Y           Z
 ---------------------------------------------------------------------
      1          6           0        4.652247    2.183357    0.726204
      2          6           0        3.563733    1.684322    1.449132
      3          6           0        2.946519    0.489047    1.068460
      4          6           0        3.445986   -0.184360   -0.045248
      5          6           0        4.528748    0.287157   -0.785916
      6          6           0        5.130437    1.484414   -0.387049
      7          1           0        5.125683    3.112645    1.028986
      8          1           0        3.190234    2.225007    2.314120
      9          1           0        2.102283    0.080049    1.610128
     10          1           0        4.878622   -0.274207   -1.643748
     11          1           0        5.975629    1.869595   -0.950371
     12          7           0        2.800787   -1.450794   -0.457879
     13          8           0        3.259770   -2.025168   -1.442798
     14          8           0        1.848314   -1.845069    0.211433
     15          6           0       -2.199880   -2.011185    0.744942
     16          6           0       -3.268418   -1.549834    1.520768
     17          6           0       -4.024655   -0.449856    1.105195
     18          6           0       -3.683072    0.167715   -0.096976
     19          6           0       -2.624281   -0.268334   -0.892033
     20          6           0       -1.881783   -1.370093   -0.456863
     21          1           0       -1.617753   -2.866365    1.075380
     22          1           0       -3.517736   -2.045757    2.454548
     23          1           0       -4.857016   -0.071865    1.686328
     24          1           0       -2.399777    0.246654   -1.818210
     25          1           0       -1.052482   -1.726200   -1.061422
     26          7           0       -4.476394    1.333155   -0.547299
     27          8           0       -4.155171    1.859822   -1.610348
     28          8           0       -5.404402    1.697892    0.171316
 ---------------------------------------------------------------------

 SCF Done:  E(RHF) =  -868.340339367     A.U. after   16 cycles
 E2 =    -0.2598388437D+01 EUMP2 =    -0.87093872780354D+03

 The electronic state is 1-A.
 Alpha  occ. eigenvalues --  -20.61683 -20.61640 -20.60328 -20.60322 -15.86688
 Alpha  occ. eigenvalues --  -15.85372 -11.31749 -11.30548 -11.28284 -11.28275
 Alpha  occ. eigenvalues --  -11.27959 -11.27223 -11.27213 -11.27117 -11.27025
 Alpha  occ. eigenvalues --  -11.26646 -11.26078 -11.25844  -1.60731  -1.59408
 Alpha  occ. eigenvalues --   -1.40291  -1.38967  -1.19892  -1.18674  -1.09343
 Alpha  occ. eigenvalues --   -1.08073  -1.05248  -1.04038  -0.96229  -0.94952
 Alpha  occ. eigenvalues --   -0.86660  -0.85417  -0.83073  -0.81792  -0.78154
 Alpha  occ. eigenvalues --   -0.76889  -0.72927  -0.72035  -0.71591  -0.70993
 Alpha  occ. eigenvalues --   -0.70732  -0.69713  -0.65548  -0.65245  -0.64300
 Alpha  occ. eigenvalues --   -0.63980  -0.62598  -0.61377  -0.55755  -0.54449
 Alpha  occ. eigenvalues --   -0.53594  -0.53334  -0.52396  -0.52090  -0.49690
 Alpha  occ. eigenvalues --   -0.49647  -0.48361  -0.48328  -0.45754  -0.44416
 Alpha  occ. eigenvalues --   -0.37852  -0.36836  -0.36607  -0.35655
 Alpha virt. eigenvalues --    0.04335   0.05619   0.10823   0.12007   0.15895
 Alpha virt. eigenvalues --    0.17192   0.20994   0.22326   0.26930   0.27800
 Alpha virt. eigenvalues --    0.28248   0.29149   0.30608   0.31958   0.32059

 Mulliken charges:
               1
     1  C   -0.169501
     2  C   -0.218198
     3  C   -0.170337
     4  C    0.157184
     5  C   -0.170526
     6  C   -0.218441
     7  H    0.228216
     8  H    0.225861
     9  H    0.274964
    10  H    0.276160
    11  H    0.225523
    12  N    0.488530
    13  O   -0.457465
    14  O   -0.469927
    15  C   -0.171825
    16  C   -0.220476
    17  C   -0.173491
    18  C    0.157479
    19  C   -0.175087
    20  C   -0.219262
    21  H    0.233670
    22  H    0.220560
    23  H    0.272311
    24  H    0.273062
    25  H    0.238415
    26  N    0.488077
    27  O   -0.462448
    28  O   -0.463030
 Sum of Mulliken charges =  -0.00000

 Dipole moment (field-independent basis, Debye):
    X=              5.5347    Y=              0.3067    Z=              3.0192  Tot=              6.3121
 Quadrupole moment (field-independent basis, Debye-Ang):
   XX=           -107.3579   YY=           -108.7898   ZZ=            -99.6530
   XY=             31.5242   XZ=             -6.6523   YZ=              0.4386

 Normal termination of Gaussian 16 at Thu May  6 04:56:15 2021.
