 Gaussian 16, Revision A.03,
 Gaussian 16:  EM64L-G16RevA.03 25-Dec-2016

 -------------
 #p 6-31g* mp2
 -------------

 ------------------------------------------------------
 Input file generated by CHIRIPA (05-May-2021 14:53:16)
 ------------------------------------------------------
 Symbolic Z-matrix:
 Charge =  0 Multiplicity = 1

                         Standard orientation:
 ---------------------------------------------------------------------
 Center     Atomic      Atomic             Coordinates (Angstroms)
 Number     Number       Type             X           Y           Z
 ---------------------------------------------------------------------
      1          6           0        3.010612   -0.984311    0.692753
      2          6           0        1.794063   -1.676927    0.077710
      3          6           0        1.002637   -2.496994    1.096989
      4          1           0        3.666014   -1.741361    1.144714
      5          1           0        2.677153   -0.330975    1.510892
      6          1           0        2.129574   -2.327707   -0.739929
      7          1           0        1.141575   -0.918158   -0.373007
      8          1           0        0.640061   -1.857234    1.908067
      9          1           0        1.633674   -3.274791    1.539060
     10          1           0        0.137382   -2.983474    0.635980
     11          6           0        3.811952   -0.160613   -0.313778
     12          6           0        5.028500    0.532002    0.301265
     13          6           0        5.819926    1.352069   -0.718014
     14          1           0        4.145410   -0.813950   -1.131917
     15          1           0        3.156549    0.596436   -0.765739
     16          1           0        5.680988   -0.226766    0.751982
     17          1           0        4.692989    1.182782    1.118904
     18          1           0        5.188890    2.129866   -1.160084
     19          1           0        6.182502    0.712309   -1.529091
     20          1           0        6.685182    1.838549   -0.257004
     21          6           0       -3.604482   -1.849306   -0.605541
     22          6           0       -4.335331   -0.933493    0.158440
     23          6           0       -3.824638    0.341748    0.418249
     24          6           0       -2.574245    0.669258   -0.103807
     25          6           0       -1.822028   -0.221100   -0.868481
     26          6           0       -2.352370   -1.490819   -1.115663
     27          1           0       -4.008833   -2.837800   -0.802463
     28          1           0       -5.308004   -1.209156    0.555885
     29          1           0       -4.369213    1.070232    1.006609
     30          1           0       -0.855230    0.082600   -1.251215
     31          1           0       -1.782559   -2.200008   -1.709305
     32          7           0       -2.023196    2.016375    0.164557
     33          8           0       -0.919223    2.280507   -0.306736
     34          8           0       -2.705690    2.782606    0.841114
 ---------------------------------------------------------------------

 SCF Done:  E(RHF) =  -669.535458276     A.U. after   15 cycles
 E2 =    -0.2092257603D+01 EUMP2 =    -0.67162771587852D+03

 The electronic state is 1-A.
 Alpha  occ. eigenvalues --  -20.60827 -20.60819 -15.85877 -11.31223 -11.27796
 Alpha  occ. eigenvalues --  -11.27785 -11.27538 -11.26810 -11.26800 -11.21866
 Alpha  occ. eigenvalues --  -11.21383 -11.21363 -11.21318 -11.21209 -11.20818
 Alpha  occ. eigenvalues --   -1.59900  -1.39454  -1.19401  -1.08798  -1.08392
 Alpha  occ. eigenvalues --   -1.04805  -1.03525  -0.95955  -0.95635  -0.86977
 Alpha  occ. eigenvalues --   -0.86201  -0.82468  -0.79626  -0.78195  -0.77511
 Alpha  occ. eigenvalues --   -0.72097  -0.71222  -0.70520  -0.65081  -0.65032
 Alpha  occ. eigenvalues --   -0.64771  -0.62196  -0.60888  -0.59358  -0.57579
 Alpha  occ. eigenvalues --   -0.55317  -0.55212  -0.53137  -0.52922  -0.52657
 Alpha  occ. eigenvalues --   -0.52359  -0.49883  -0.48854  -0.48852  -0.47924
 Alpha  occ. eigenvalues --   -0.46638  -0.45732  -0.45616  -0.44860  -0.43763
 Alpha  occ. eigenvalues --   -0.37375  -0.36370
 Alpha virt. eigenvalues --    0.04984   0.11162   0.16441   0.20489   0.23075
 Alpha virt. eigenvalues --    0.24249   0.25466   0.26840   0.27209   0.28339
 Alpha virt. eigenvalues --    0.29280   0.30273   0.31488   0.31699   0.32577

 Mulliken charges:
               1
     1  C   -0.297434
     2  C   -0.304628
     3  C   -0.474939
     4  H    0.149028
     5  H    0.154749
     6  H    0.148961
     7  H    0.149347
     8  H    0.159251
     9  H    0.155801
    10  H    0.153781
    11  C   -0.300342
    12  C   -0.299929
    13  C   -0.476311
    14  H    0.146645
    15  H    0.155823
    16  H    0.150222
    17  H    0.155199
    18  H    0.158422
    19  H    0.153336
    20  H    0.160169
    21  C   -0.171167
    22  C   -0.218296
    23  C   -0.170783
    24  C    0.158048
    25  C   -0.171222
    26  C   -0.218578
    27  H    0.225889
    28  H    0.223647
    29  H    0.275687
    30  H    0.278580
    31  H    0.224617
    32  N    0.487987
    33  O   -0.461523
    34  O   -0.460041
 Sum of Mulliken charges =  -0.00000

 Dipole moment (field-independent basis, Debye):
    X=             -1.9537    Y=             -4.6557    Z=             -0.8904  Tot=              5.1269
 Quadrupole moment (field-independent basis, Debye-Ang):
   XX=            -81.5547   YY=           -101.4270   ZZ=            -94.0961
   XY=              9.4271   XZ=              0.6033   YZ=              1.1425

 Normal termination of Gaussian 16 at Wed May  5 20:21:51 2021.
