 Gaussian 16, Revision A.03,
 Gaussian 16:  EM64L-G16RevA.03 25-Dec-2016

 -------------
 #p 6-31g* mp2
 -------------

 ------------------------------------------------------
 Input file generated by CHIRIPA (05-May-2021 14:53:18)
 ------------------------------------------------------
 Symbolic Z-matrix:
 Charge =  0 Multiplicity = 1

                         Standard orientation:
 ---------------------------------------------------------------------
 Center     Atomic      Atomic             Coordinates (Angstroms)
 Number     Number       Type             X           Y           Z
 ---------------------------------------------------------------------
      1          6           0        4.238541   -0.076986   -0.294875
      2          6           0        4.900583   -1.102173    0.626362
      3          6           0        5.647997   -2.192122   -0.142520
      4          1           0        3.542743   -0.594812   -0.969165
      5          1           0        5.006644    0.383305   -0.931699
      6          1           0        4.131659   -1.559399    1.262220
      7          1           0        5.594744   -0.581823    1.298665
      8          1           0        6.435319   -1.753950   -0.764397
      9          1           0        4.963921   -2.737080   -0.801049
     10          1           0        6.113608   -2.914250    0.535416
     11          6           0        3.487458    1.019012    0.459042
     12          6           0        2.825415    2.044199   -0.462195
     13          6           0        2.078001    3.134147    0.306687
     14          1           0        2.719355    0.558721    1.095866
     15          1           0        4.183256    1.536837    1.133332
     16          1           0        2.131255    1.523848   -1.134499
     17          1           0        3.594339    2.501424   -1.098053
     18          1           0        2.762077    3.679106    0.965216
     19          1           0        1.290680    2.695975    0.928564
     20          1           0        1.612390    3.856275   -0.371250
     21          6           0       -0.663461   -1.224069   -0.363006
     22          6           0       -1.697841   -2.113631   -0.054369
     23          6           0       -3.006216   -1.650453    0.113471
     24          6           0       -3.245593   -0.285215   -0.035233
     25          6           0       -2.236365    0.626035   -0.342433
     26          6           0       -0.935544    0.140519   -0.505801
     27          1           0        0.349982   -1.592552   -0.491650
     28          1           0       -1.489469   -3.173913    0.057122
     29          1           0       -3.825838   -2.317102    0.352672
     30          1           0       -2.474979    1.677454   -0.447304
     31          1           0       -0.134206    0.833674   -0.745463
     32          7           0       -4.626712    0.216955    0.140084
     33          8           0       -4.811517    1.424392    0.003782
     34          8           0       -5.498277   -0.606391    0.410480
 ---------------------------------------------------------------------

 SCF Done:  E(RHF) =  -669.535505819     A.U. after   15 cycles
 E2 =    -0.2091754343D+01 EUMP2 =    -0.67162726016132D+03

 The electronic state is 1-A.
 Alpha  occ. eigenvalues --  -20.60751 -20.60746 -15.85804 -11.31175 -11.27748
 Alpha  occ. eigenvalues --  -11.27735 -11.27494 -11.26766 -11.26721 -11.22739
 Alpha  occ. eigenvalues --  -11.22457 -11.22403 -11.22343 -11.22032 -11.21823
 Alpha  occ. eigenvalues --   -1.59827  -1.39380  -1.19348  -1.09429  -1.08743
 Alpha  occ. eigenvalues --   -1.04755  -1.04480  -0.96908  -0.95577  -0.87916
 Alpha  occ. eigenvalues --   -0.86152  -0.82408  -0.80544  -0.79224  -0.77456
 Alpha  occ. eigenvalues --   -0.72023  -0.71150  -0.70463  -0.66162  -0.64998
 Alpha  occ. eigenvalues --   -0.64734  -0.62280  -0.61686  -0.60270  -0.58510
 Alpha  occ. eigenvalues --   -0.56222  -0.55237  -0.53582  -0.53314  -0.53080
 Alpha  occ. eigenvalues --   -0.52825  -0.50857  -0.48863  -0.48777  -0.48757
 Alpha  occ. eigenvalues --   -0.47601  -0.46760  -0.46694  -0.44784  -0.44734
 Alpha  occ. eigenvalues --   -0.37333  -0.36351
 Alpha virt. eigenvalues --    0.05074   0.11250   0.16537   0.18100   0.22406
 Alpha virt. eigenvalues --    0.23533   0.25094   0.26251   0.26401   0.28351
 Alpha virt. eigenvalues --    0.29605   0.30500   0.30813   0.31074   0.32011

 Mulliken charges:
               1
     1  C   -0.298386
     2  C   -0.300291
     3  C   -0.475803
     4  H    0.142771
     5  H    0.153604
     6  H    0.150238
     7  H    0.155440
     8  H    0.157581
     9  H    0.153031
    10  H    0.162923
    11  C   -0.300276
    12  C   -0.304122
    13  C   -0.480133
    14  H    0.148313
    15  H    0.155041
    16  H    0.142312
    17  H    0.158571
    18  H    0.161501
    19  H    0.155208
    20  H    0.162763
    21  C   -0.174448
    22  C   -0.218497
    23  C   -0.171132
    24  C    0.159033
    25  C   -0.172901
    26  C   -0.227486
    27  H    0.225991
    28  H    0.223370
    29  H    0.275574
    30  H    0.276382
    31  H    0.236662
    32  N    0.487986
    33  O   -0.460280
    34  O   -0.460542
 Sum of Mulliken charges =  -0.00000

 Dipole moment (field-independent basis, Debye):
    X=              5.1047    Y=             -1.6790    Z=             -0.5494  Tot=              5.4017
 Quadrupole moment (field-independent basis, Debye-Ang):
   XX=           -124.9056   YY=            -89.4556   ZZ=            -95.5962
   XY=              7.3417   XZ=              1.9581   YZ=             -1.0467

 Normal termination of Gaussian 16 at Wed May  5 17:16:00 2021.
