 Gaussian 16, Revision A.03,
 Gaussian 16:  EM64L-G16RevA.03 25-Dec-2016

 -------------
 #p 6-31g* mp2
 -------------

 ------------------------------------------------------
 Input file generated by CHIRIPA (05-May-2021 14:57:21)
 ------------------------------------------------------
 Symbolic Z-matrix:
 Charge =  0 Multiplicity = 1

                         Standard orientation:
 ---------------------------------------------------------------------
 Center     Atomic      Atomic             Coordinates (Angstroms)
 Number     Number       Type             X           Y           Z
 ---------------------------------------------------------------------
      1          6           0       -2.891233    2.417062    0.045660
      2          6           0       -2.209575    1.390665    0.707757
      3          6           0       -2.722684    0.090236    0.720049
      4          6           0       -3.925307   -0.149424    0.057061
      5          6           0       -4.627896    0.851957   -0.611440
      6          6           0       -4.096093    2.144913   -0.610668
      7          1           0       -2.485377    3.424364    0.041185
      8          1           0       -1.273662    1.599107    1.218309
      9          1           0       -2.215648   -0.723112    1.224824
     10          1           0       -5.558726    0.613482   -1.111542
     11          1           0       -4.627645    2.940062   -1.125679
     12          7           0       -4.478407   -1.522174    0.063160
     13          8           0       -5.539721   -1.707404   -0.528398
     14          8           0       -3.840141   -2.386912    0.659382
     15          6           0        6.336053   -0.397888   -0.113622
     16          6           0        5.485372   -1.492195   -0.301647
     17          6           0        4.097553   -1.326024   -0.271772
     18          6           0        3.592274   -0.045783   -0.050491
     19          6           0        4.413767    1.064196    0.140263
     20          6           0        5.798484    0.874572    0.106345
     21          1           0        7.412939   -0.536083   -0.138400
     22          1           0        5.900052   -2.481557   -0.472673
     23          1           0        3.415988   -2.155824   -0.414318
     24          1           0        3.970849    2.038299    0.308681
     25          1           0        6.456724    1.726246    0.252684
     26          7           0        2.124695    0.142550   -0.016724
     27          8           0        1.704486    1.280694    0.179972
     28          8           0        1.422402   -0.851546   -0.187592
 ---------------------------------------------------------------------

 SCF Done:  E(RHF) =  -868.340124695     A.U. after   16 cycles
 E2 =    -0.2598538730D+01 EUMP2 =    -0.87093866342500D+03

 The electronic state is 1-A.
 Alpha  occ. eigenvalues --  -20.61575 -20.61539 -20.59710 -20.59692 -15.86574
 Alpha  occ. eigenvalues --  -15.84745 -11.31695 -11.29885 -11.28255 -11.28207
 Alpha  occ. eigenvalues --  -11.27932 -11.27205 -11.27172 -11.26490 -11.26293
 Alpha  occ. eigenvalues --  -11.26119 -11.25510 -11.25187  -1.60618  -1.58782
 Alpha  occ. eigenvalues --   -1.40176  -1.38341  -1.19845  -1.18023  -1.09287
 Alpha  occ. eigenvalues --   -1.07470  -1.05209  -1.03367  -0.96162  -0.94346
 Alpha  occ. eigenvalues --   -0.86619  -0.84785  -0.83001  -0.81170  -0.78075
 Alpha  occ. eigenvalues --   -0.76239  -0.72806  -0.71916  -0.70975  -0.70949
 Alpha  occ. eigenvalues --   -0.70098  -0.69156  -0.65500  -0.65210  -0.63672
 Alpha  occ. eigenvalues --   -0.63351  -0.62557  -0.60709  -0.55720  -0.53921
 Alpha  occ. eigenvalues --   -0.53553  -0.53297  -0.51742  -0.51457  -0.49562
 Alpha  occ. eigenvalues --   -0.49532  -0.47737  -0.47707  -0.45632  -0.43797
 Alpha  occ. eigenvalues --   -0.37811  -0.36801  -0.36019  -0.34941
 Alpha virt. eigenvalues --    0.04435   0.06253   0.10858   0.12696   0.15976
 Alpha virt. eigenvalues --    0.17805   0.21024   0.22827   0.26953   0.27882
 Alpha virt. eigenvalues --    0.28865   0.29581   0.30617   0.32074   0.32402

 Mulliken charges:
               1
     1  C   -0.172853
     2  C   -0.214403
     3  C   -0.168304
     4  C    0.156804
     5  C   -0.173740
     6  C   -0.219178
     7  H    0.222499
     8  H    0.238243
     9  H    0.277963
    10  H    0.270704
    11  H    0.217800
    12  N    0.488223
    13  O   -0.465369
    14  O   -0.461242
    15  C   -0.169871
    16  C   -0.218594
    17  C   -0.170277
    18  C    0.157685
    19  C   -0.170765
    20  C   -0.218552
    21  H    0.227487
    22  H    0.225925
    23  H    0.278192
    24  H    0.273971
    25  H    0.224434
    26  N    0.489244
    27  O   -0.469333
    28  O   -0.456694
 Sum of Mulliken charges =  -0.00000

 Dipole moment (field-independent basis, Debye):
    X=              7.7189    Y=              4.0723    Z=             -0.0815  Tot=              8.7276
 Quadrupole moment (field-independent basis, Debye-Ang):
   XX=            -81.6854   YY=           -101.7593   ZZ=           -104.7147
   XY=            -22.8784   XZ=              1.7222   YZ=              0.4305

 Normal termination of Gaussian 16 at Thu May  6 04:51:47 2021.
