 Gaussian 16, Revision A.03,
 Gaussian 16:  EM64L-G16RevA.03 25-Dec-2016

 -------------
 #p 6-31g* mp2
 -------------

 ------------------------------------------------------
 Input file generated by CHIRIPA (05-May-2021 14:53:18)
 ------------------------------------------------------
 Symbolic Z-matrix:
 Charge =  0 Multiplicity = 1

                         Standard orientation:
 ---------------------------------------------------------------------
 Center     Atomic      Atomic             Coordinates (Angstroms)
 Number     Number       Type             X           Y           Z
 ---------------------------------------------------------------------
      1          6           0       -3.272903   -0.349493   -0.197405
      2          6           0       -4.608359   -1.053801   -0.439258
      3          6           0       -4.468378   -2.574099   -0.522277
      4          1           0       -2.575917   -0.611399   -1.005217
      5          1           0       -2.829372   -0.729178    0.733463
      6          1           0       -5.049895   -0.671899   -1.368673
      7          1           0       -5.302308   -0.790035    0.369122
      8          1           0       -4.050876   -2.973867    0.407497
      9          1           0       -3.797029   -2.855059   -1.340172
     10          1           0       -5.434955   -3.057394   -0.695526
     11          6           0       -3.396501    1.170757   -0.112010
     12          6           0       -2.061045    1.875065    0.129843
     13          6           0       -2.201026    3.395363    0.212862
     14          1           0       -3.840032    1.550442   -1.042878
     15          1           0       -4.093487    1.432663    0.695803
     16          1           0       -1.367096    1.611299   -0.678537
     17          1           0       -1.619509    1.493163    1.059258
     18          1           0       -2.872375    3.676323    1.030758
     19          1           0       -2.618528    3.795131   -0.716911
     20          1           0       -1.234449    3.878658    0.386111
     21          6           0        4.670781    0.146193   -1.250761
     22          6           0        3.426011    0.028269   -1.877788
     23          6           0        2.274867   -0.230374   -1.127774
     24          6           0        2.405547   -0.365954    0.253469
     25          6           0        3.631595   -0.253883    0.907331
     26          6           0        4.769426    0.004990    0.137349
     27          1           0        5.559847    0.347202   -1.841146
     28          1           0        3.346405    0.137457   -2.955649
     29          1           0        1.298724   -0.326448   -1.587482
     30          1           0        3.679377   -0.367701    1.983520
     31          1           0        5.734823    0.096070    0.627001
     32          7           0        1.193929   -0.639889    1.058045
     33          8           0        1.335714   -0.755136    2.273467
     34          8           0        0.125419   -0.734164    0.458014
 ---------------------------------------------------------------------

 SCF Done:  E(RHF) =  -669.535413705     A.U. after   15 cycles
 E2 =    -0.2092720415D+01 EUMP2 =    -0.67162813411984D+03

 The electronic state is 1-A.
 Alpha  occ. eigenvalues --  -20.60987 -20.60948 -15.85979 -11.31308 -11.27873
 Alpha  occ. eigenvalues --  -11.27866 -11.27605 -11.26877 -11.26867 -11.20527
 Alpha  occ. eigenvalues --  -11.20354 -11.20240 -11.20221 -11.20132 -11.19874
 Alpha  occ. eigenvalues --   -1.60028  -1.39585  -1.19475  -1.08882  -1.07218
 Alpha  occ. eigenvalues --   -1.04871  -1.02468  -0.95727  -0.94931  -0.86272
 Alpha  occ. eigenvalues --   -0.85952  -0.82570  -0.78504  -0.77663  -0.76932
 Alpha  occ. eigenvalues --   -0.72187  -0.71330  -0.70584  -0.65130  -0.64877
 Alpha  occ. eigenvalues --   -0.63870  -0.62220  -0.59883  -0.58306  -0.56529
 Alpha  occ. eigenvalues --   -0.55376  -0.54235  -0.53203  -0.52964  -0.51680
 Alpha  occ. eigenvalues --   -0.51354  -0.49020  -0.48979  -0.48882  -0.46897
 Alpha  occ. eigenvalues --   -0.45528  -0.45107  -0.44455  -0.44198  -0.42669
 Alpha  occ. eigenvalues --   -0.37450  -0.36472
 Alpha virt. eigenvalues --    0.04894   0.11171   0.16381   0.21115   0.23796
 Alpha virt. eigenvalues --    0.25196   0.26288   0.27529   0.28288   0.28787
 Alpha virt. eigenvalues --    0.29313   0.31151   0.31922   0.32586   0.32684

 Mulliken charges:
               1
     1  C   -0.295541
     2  C   -0.299610
     3  C   -0.473939
     4  H    0.148030
     5  H    0.167773
     6  H    0.145780
     7  H    0.148790
     8  H    0.158200
     9  H    0.152503
    10  H    0.155178
    11  C   -0.299451
    12  C   -0.295550
    13  C   -0.475520
    14  H    0.141837
    15  H    0.146018
    16  H    0.145996
    17  H    0.165172
    18  H    0.153592
    19  H    0.149926
    20  H    0.154745
    21  C   -0.170545
    22  C   -0.218523
    23  C   -0.170864
    24  C    0.157974
    25  C   -0.170592
    26  C   -0.218556
    27  H    0.226062
    28  H    0.223881
    29  H    0.275665
    30  H    0.275828
    31  H    0.223861
    32  N    0.492131
    33  O   -0.460127
    34  O   -0.460124
 Sum of Mulliken charges =  -0.00000

 Dipole moment (field-independent basis, Debye):
    X=              4.5902    Y=              0.7861    Z=             -2.6691  Tot=              5.3677
 Quadrupole moment (field-independent basis, Debye-Ang):
   XX=            -74.3415   YY=            -98.5382   ZZ=            -91.9330
   XY=              0.9859   XZ=             -3.9532   YZ=              1.0310

 Normal termination of Gaussian 16 at Thu May  6 13:59:11 2021.
