 Gaussian 16, Revision A.03,
 Gaussian 16:  EM64L-G16RevA.03 25-Dec-2016

 -------------
 #p 6-31g* mp2
 -------------

 ------------------------------------------------------
 Input file generated by CHIRIPA (05-May-2021 14:57:24)
 ------------------------------------------------------
 Symbolic Z-matrix:
 Charge =  0 Multiplicity = 1

                         Standard orientation:
 ---------------------------------------------------------------------
 Center     Atomic      Atomic             Coordinates (Angstroms)
 Number     Number       Type             X           Y           Z
 ---------------------------------------------------------------------
      1          6           0        3.465188   -2.254773    0.788829
      2          6           0        2.447813   -1.685932    0.015596
      3          6           0        2.553835   -0.368026   -0.438752
      4          6           0        3.696131    0.355495   -0.099685
      5          6           0        4.726754   -0.183195    0.669028
      6          6           0        4.599412   -1.502914    1.112506
      7          1           0        3.374547   -3.279258    1.137555
      8          1           0        1.565828   -2.267469   -0.237310
      9          1           0        1.781206    0.097111   -1.038844
     10          1           0        5.594030    0.421434    0.904980
     11          1           0        5.391089   -1.942089    1.712854
     12          7           0        3.819657    1.751663   -0.574929
     13          8           0        4.836094    2.368043   -0.262570
     14          8           0        2.897701    2.203162   -1.250786
     15          6           0       -5.356434    1.550141    0.878038
     16          6           0       -4.121807    1.406451    1.519576
     17          6           0       -3.182964    0.481247    1.053615
     18          6           0       -3.513293   -0.287374   -0.061462
     19          6           0       -4.734883   -0.167453   -0.722236
     20          6           0       -5.658499    0.764117   -0.238852
     21          1           0       -6.079835    2.271335    1.246776
     22          1           0       -3.884502    2.015546    2.387178
     23          1           0       -2.219658    0.349499    1.531216
     24          1           0       -4.942814   -0.788775   -1.584873
     25          1           0       -6.616540    0.873559   -0.739075
     26          7           0       -2.527442   -1.270215   -0.563976
     27          8           0       -2.842630   -1.935428   -1.548246
     28          8           0       -1.458211   -1.356743    0.035937
 ---------------------------------------------------------------------

 SCF Done:  E(RHF) =  -868.340573435     A.U. after   16 cycles
 E2 =    -0.2598209067D+01 EUMP2 =    -0.87093878250211D+03

 The electronic state is 1-A.
 Alpha  occ. eigenvalues --  -20.61493 -20.61457 -20.60157 -20.60151 -15.86500
 Alpha  occ. eigenvalues --  -15.85197 -11.31556 -11.30342 -11.28090 -11.28085
 Alpha  occ. eigenvalues --  -11.27779 -11.27040 -11.27025 -11.26926 -11.26746
 Alpha  occ. eigenvalues --  -11.26546 -11.25937 -11.25606  -1.60538  -1.59237
 Alpha  occ. eigenvalues --   -1.40100  -1.38795  -1.19701  -1.18474  -1.09155
 Alpha  occ. eigenvalues --   -1.07917  -1.05057  -1.03805  -0.96042  -0.94792
 Alpha  occ. eigenvalues --   -0.86471  -0.85225  -0.82888  -0.81604  -0.77964
 Alpha  occ. eigenvalues --   -0.76678  -0.72741  -0.71833  -0.71422  -0.70808
 Alpha  occ. eigenvalues --   -0.70557  -0.69592  -0.65360  -0.65060  -0.64109
 Alpha  occ. eigenvalues --   -0.63767  -0.62409  -0.61128  -0.55573  -0.54348
 Alpha  occ. eigenvalues --   -0.53401  -0.53147  -0.52198  -0.51860  -0.49501
 Alpha  occ. eigenvalues --   -0.49460  -0.48188  -0.48156  -0.45572  -0.44249
 Alpha  occ. eigenvalues --   -0.37663  -0.36643  -0.36476  -0.35404
 Alpha virt. eigenvalues --    0.04543   0.05794   0.11015   0.12232   0.16097
 Alpha virt. eigenvalues --    0.17349   0.21165   0.22461   0.27107   0.27931
 Alpha virt. eigenvalues --    0.28578   0.29185   0.30783   0.31990   0.32313

 Mulliken charges:
               1
     1  C   -0.172893
     2  C   -0.221814
     3  C   -0.173213
     4  C    0.157288
     5  C   -0.173757
     6  C   -0.218877
     7  H    0.224184
     8  H    0.245484
     9  H    0.277867
    10  H    0.271814
    11  H    0.219596
    12  N    0.488004
    13  O   -0.463750
    14  O   -0.462267
    15  C   -0.169551
    16  C   -0.218147
    17  C   -0.169875
    18  C    0.157688
    19  C   -0.170148
    20  C   -0.218499
    21  H    0.227543
    22  H    0.225700
    23  H    0.275625
    24  H    0.275908
    25  H    0.224891
    26  N    0.490681
    27  O   -0.457775
    28  O   -0.471708
 Sum of Mulliken charges =  -0.00000

 Dipole moment (field-independent basis, Debye):
    X=             -4.4215    Y=             -1.5237    Z=              3.4074  Tot=              5.7864
 Quadrupole moment (field-independent basis, Debye-Ang):
   XX=            -78.7311   YY=           -111.2193   ZZ=           -102.7246
   XY=            -29.0480   XZ=              4.9433   YZ=              1.9655

 Normal termination of Gaussian 16 at Thu May  6 14:37:23 2021.
