 Gaussian 16, Revision A.03,
 Gaussian 16:  EM64L-G16RevA.03 25-Dec-2016

 -------------
 #p 6-31g* mp2
 -------------

 ------------------------------------------------------
 Input file generated by CHIRIPA (05-May-2021 14:57:26)
 ------------------------------------------------------
 Symbolic Z-matrix:
 Charge =  0 Multiplicity = 1

                         Standard orientation:
 ---------------------------------------------------------------------
 Center     Atomic      Atomic             Coordinates (Angstroms)
 Number     Number       Type             X           Y           Z
 ---------------------------------------------------------------------
      1          6           0        1.931366    2.608420   -0.151527
      2          6           0        3.030604    2.263313   -0.944683
      3          6           0        3.640131    1.012590   -0.807867
      4          6           0        3.122125    0.127379    0.136252
      5          6           0        2.028320    0.441890    0.941214
      6          6           0        1.434608    1.698212    0.787235
      7          1           0        1.464014    3.582186   -0.264475
      8          1           0        3.418527    2.968190   -1.674553
      9          1           0        4.492354    0.719542   -1.408913
     10          1           0        1.664106   -0.281866    1.660201
     11          1           0        0.581054    1.963515    1.404572
     12          7           0        3.759032   -1.199669    0.290178
     13          8           0        3.283683   -1.961727    1.129194
     14          8           0        4.721529   -1.452623   -0.431106
     15          6           0       -4.559217    1.612248    0.280100
     16          6           0       -3.176349    1.812242    0.215284
     17          6           0       -2.312452    0.734520   -0.000921
     18          6           0       -2.868074   -0.535418   -0.148682
     19          6           0       -4.241458   -0.766838   -0.089103
     20          6           0       -5.086428    0.325616    0.127968
     21          1           0       -5.222961    2.455171    0.448390
     22          1           0       -2.764104    2.810351    0.333080
     23          1           0       -1.237999    0.860970   -0.055509
     24          1           0       -4.622830   -1.773466   -0.210242
     25          1           0       -6.159975    0.167323    0.177842
     26          7           0       -1.963523   -1.684151   -0.378027
     27          8           0       -2.477996   -2.793121   -0.505068
     28          8           0       -0.757190   -1.453807   -0.426403
 ---------------------------------------------------------------------

 SCF Done:  E(RHF) =  -868.336423730     A.U. after   16 cycles
 E2 =    -0.2601821494D+01 EUMP2 =    -0.87093824522368D+03

 The electronic state is 1-A.
 Alpha  occ. eigenvalues --  -20.61002 -20.60983 -20.60199 -20.60157 -15.86052
 Alpha  occ. eigenvalues --  -15.85248 -11.31553 -11.30829 -11.28136 -11.28118
 Alpha  occ. eigenvalues --  -11.27921 -11.27526 -11.27508 -11.27453 -11.27260
 Alpha  occ. eigenvalues --  -11.27153 -11.26662 -11.26566  -1.60064  -1.59244
 Alpha  occ. eigenvalues --   -1.39616  -1.38793  -1.19749  -1.19100  -1.09115
 Alpha  occ. eigenvalues --   -1.08476  -1.05189  -1.04560  -0.95925  -0.95251
 Alpha  occ. eigenvalues --   -0.86577  -0.85960  -0.82763  -0.82099  -0.77807
 Alpha  occ. eigenvalues --   -0.77053  -0.72268  -0.71481  -0.71395  -0.70859
 Alpha  occ. eigenvalues --   -0.70551  -0.70255  -0.65409  -0.65228  -0.64778
 Alpha  occ. eigenvalues --   -0.64613  -0.62571  -0.61847  -0.55672  -0.55131
 Alpha  occ. eigenvalues --   -0.53499  -0.53376  -0.52767  -0.52638  -0.49025
 Alpha  occ. eigenvalues --   -0.49007  -0.48257  -0.48200  -0.44992  -0.44150
 Alpha  occ. eigenvalues --   -0.37731  -0.37130  -0.36800  -0.36113
 Alpha virt. eigenvalues --    0.04718   0.05527   0.10839   0.11359   0.16194
 Alpha virt. eigenvalues --    0.16795   0.20198   0.22005   0.25944   0.27572
 Alpha virt. eigenvalues --    0.28401   0.29111   0.30615   0.31123   0.32452

 Mulliken charges:
               1
     1  C   -0.171856
     2  C   -0.219029
     3  C   -0.167880
     4  C    0.159350
     5  C   -0.151445
     6  C   -0.232172
     7  H    0.220080
     8  H    0.222102
     9  H    0.276365
    10  H    0.281372
    11  H    0.215937
    12  N    0.489209
    13  O   -0.454620
    14  O   -0.462771
    15  C   -0.170204
    16  C   -0.222017
    17  C   -0.180520
    18  C    0.157155
    19  C   -0.169286
    20  C   -0.218734
    21  H    0.226059
    22  H    0.217712
    23  H    0.282002
    24  H    0.277694
    25  H    0.225083
    26  N    0.487887
    27  O   -0.456600
    28  O   -0.460874
 Sum of Mulliken charges =  -0.00000

 Dipole moment (field-independent basis, Debye):
    X=             -5.3604    Y=              8.3286    Z=              0.2510  Tot=              9.9076
 Quadrupole moment (field-independent basis, Debye-Ang):
   XX=            -95.0909   YY=           -107.2632   ZZ=           -103.9318
   XY=              7.9478   XZ=             -6.3181   YZ=             -1.4457

 Normal termination of Gaussian 16 at Wed May  5 16:29:31 2021.
