 Gaussian 16, Revision A.03,
 Gaussian 16:  EM64L-G16RevA.03 25-Dec-2016

 -------------
 #p 6-31g* mp2
 -------------

 ------------------------------------------------------
 Input file generated by CHIRIPA (05-May-2021 14:51:11)
 ------------------------------------------------------
 Symbolic Z-matrix:
 Charge =  0 Multiplicity = 1

                         Standard orientation:
 ---------------------------------------------------------------------
 Center     Atomic      Atomic             Coordinates (Angstroms)
 Number     Number       Type             X           Y           Z
 ---------------------------------------------------------------------
      1          6           0       -3.221159   -0.246929   -0.156903
      2          6           0       -4.600493   -0.720476   -0.616439
      3          6           0       -4.736642   -2.243347   -0.605456
      4          1           0       -2.453410   -0.689815   -0.806023
      5          1           0       -3.030008   -0.625774    0.856672
      6          1           0       -4.789560   -0.339695   -1.628307
      7          1           0       -5.365060   -0.276258    0.033733
      8          1           0       -4.574216   -2.637378    0.402987
      9          1           0       -3.995445   -2.701176   -1.268496
     10          1           0       -5.730316   -2.559981   -0.937442
     11          6           0       -3.069621    1.273181   -0.162451
     12          6           0       -1.690286    1.746729    0.297086
     13          6           0       -1.554138    3.269600    0.286103
     14          1           0       -3.260771    1.652027   -1.176025
     15          1           0       -3.837370    1.716068    0.486670
     16          1           0       -0.925719    1.302510   -0.353086
     17          1           0       -1.501220    1.365948    1.308953
     18          1           0       -2.295335    3.727429    0.949142
     19          1           0       -1.716564    3.663631   -0.722340
     20          1           0       -0.560464    3.586234    0.618089
     21          6           0        2.672778   -0.980270    0.536303
     22          6           0        1.221178   -0.499827    0.540422
     23          6           0        0.287846   -1.444884    1.297753
     24          1           0        2.719566   -1.981834    0.087275
     25          1           0        3.019561   -1.086247    1.573561
     26          1           0        0.877677   -0.393461   -0.496550
     27          1           0        1.177867    0.500789    0.989319
     28          1           0        0.603291   -1.543258    2.341505
     29          1           0        0.301395   -2.442589    0.847195
     30          1           0       -0.744771   -1.082294    1.288152
     31          6           0        3.618001   -0.045983   -0.216950
     32          6           0        5.069601   -0.526425   -0.221068
     33          6           0        6.002933    0.418632   -0.978400
     34          1           0        3.271218    0.059995   -1.254208
     35          1           0        3.571214    0.955581    0.232079
     36          1           0        5.112912   -1.527041   -0.669965
     37          1           0        5.413102   -0.632792    0.815903
     38          1           0        5.989384    1.416336   -0.527842
     39          1           0        5.687488    0.517006   -2.022152
     40          1           0        7.035549    0.056040   -0.968799
 ---------------------------------------------------------------------

 SCF Done:  E(RHF) =  -470.731184532     A.U. after   11 cycles
 E2 =    -0.1585168182D+01 EUMP2 =    -0.47231635271416D+03

 The electronic state is 1-A.
 Alpha  occ. eigenvalues --  -11.21615 -11.21582 -11.21507 -11.21501 -11.21417
 Alpha  occ. eigenvalues --  -11.21364 -11.21348 -11.21294 -11.21075 -11.21059
 Alpha  occ. eigenvalues --  -11.21049 -11.20870  -1.08482  -1.08350  -1.03575
 Alpha  occ. eigenvalues --   -1.03423  -0.95992  -0.95915  -0.87007  -0.86931
 Alpha  occ. eigenvalues --   -0.79787  -0.79391  -0.78411  -0.78073  -0.65121
 Alpha  occ. eigenvalues --   -0.64978  -0.60977  -0.60826  -0.59555  -0.59142
 Alpha  occ. eigenvalues --   -0.57627  -0.57525  -0.55270  -0.55205  -0.52824
 Alpha  occ. eigenvalues --   -0.52560  -0.52380  -0.52299  -0.49933  -0.49856
 Alpha  occ. eigenvalues --   -0.48183  -0.47675  -0.46711  -0.46511  -0.45963
 Alpha  occ. eigenvalues --   -0.45763  -0.45588  -0.45372  -0.43785  -0.43637
 Alpha virt. eigenvalues --    0.21662   0.23188   0.23755   0.24331   0.25185
 Alpha virt. eigenvalues --    0.26218   0.26675   0.27476   0.28274   0.29506
 Alpha virt. eigenvalues --    0.30859   0.31012   0.31440   0.31735   0.32212

 Mulliken charges:
               1
     1  C   -0.303026
     2  C   -0.298703
     3  C   -0.475730
     4  H    0.151263
     5  H    0.151139
     6  H    0.151931
     7  H    0.152014
     8  H    0.155429
     9  H    0.155179
    10  H    0.160272
    11  C   -0.297421
    12  C   -0.306684
    13  C   -0.475544
    14  H    0.149169
    15  H    0.149121
    16  H    0.160815
    17  H    0.152581
    18  H    0.154794
    19  H    0.154936
    20  H    0.159810
    21  C   -0.297809
    22  C   -0.300379
    23  C   -0.485073
    24  H    0.149213
    25  H    0.149269
    26  H    0.150414
    27  H    0.154372
    28  H    0.153407
    29  H    0.153906
    30  H    0.172204
    31  C   -0.298094
    32  C   -0.299545
    33  C   -0.475657
    34  H    0.148932
    35  H    0.149326
    36  H    0.151895
    37  H    0.151918
    38  H    0.155114
    39  H    0.155051
    40  H    0.160190
 Sum of Mulliken charges =  -0.00000

 Dipole moment (field-independent basis, Debye):
    X=             -0.0406    Y=              0.0095    Z=             -0.0090  Tot=              0.0426
 Quadrupole moment (field-independent basis, Debye-Ang):
   XX=            -85.5005   YY=            -86.1670   ZZ=            -83.3733
   XY=             -0.5490   XZ=              0.2053   YZ=              0.7711

 Normal termination of Gaussian 16 at Wed May  5 23:06:49 2021.
