 Gaussian 16, Revision A.03,
 Gaussian 16:  EM64L-G16RevA.03 25-Dec-2016

 -------------
 #p 6-31g* mp2
 -------------

 ------------------------------------------------------
 Input file generated by CHIRIPA (05-May-2021 14:51:13)
 ------------------------------------------------------
 Symbolic Z-matrix:
 Charge =  0 Multiplicity = 1

                         Standard orientation:
 ---------------------------------------------------------------------
 Center     Atomic      Atomic             Coordinates (Angstroms)
 Number     Number       Type             X           Y           Z
 ---------------------------------------------------------------------
      1          6           0        2.506293    0.192192   -0.185428
      2          6           0        3.493380    0.275772   -1.350185
      3          6           0        3.639254    1.694699   -1.900785
      4          1           0        1.525930    0.561051   -0.516754
      5          1           0        2.838729    0.865430    0.616839
      6          1           0        3.159928   -0.398463   -2.149455
      7          1           0        4.471458   -0.093508   -1.016101
      8          1           0        3.994485    2.375945   -1.120840
      9          1           0        2.675503    2.069258   -2.260634
     10          1           0        4.349548    1.731486   -2.732644
     11          6           0        2.349670   -1.219979    0.375794
     12          6           0        1.362582   -1.303558    1.540551
     13          6           0        1.216708   -2.722485    2.091152
     14          1           0        2.017233   -1.893216   -0.426472
     15          1           0        3.330032   -1.588837    0.707121
     16          1           0        0.384504   -0.934278    1.206468
     17          1           0        1.696034   -0.629323    2.339822
     18          1           0        2.180459   -3.097044    2.451001
     19          1           0        0.861477   -3.403731    1.311207
     20          1           0        0.506414   -2.759272    2.923010
     21          6           0       -2.524871    0.217772   -0.792576
     22          6           0       -3.215617   -1.146315   -0.781531
     23          6           0       -3.402336   -1.725761   -2.184090
     24          1           0       -3.114233    0.915170   -1.403504
     25          1           0       -1.546691    0.121689   -1.283828
     26          1           0       -4.191612   -1.047975   -0.289212
     27          1           0       -2.624642   -1.840494   -0.170401
     28          1           0       -2.434800   -1.852542   -2.680478
     29          1           0       -4.010673   -1.055519   -2.799965
     30          1           0       -3.897982   -2.701065   -2.152826
     31          6           0       -2.331091    0.810014    0.602209
     32          6           0       -1.640346    2.174101    0.591164
     33          6           0       -1.453626    2.753547    1.993723
     34          1           0       -3.309270    0.906097    1.093462
     35          1           0       -1.741729    0.112616    1.213138
     36          1           0       -2.231320    2.868280   -0.019966
     37          1           0       -0.664350    2.075761    0.098845
     38          1           0       -0.845289    2.083305    2.609599
     39          1           0       -2.421163    2.880329    2.490112
     40          1           0       -0.957981    3.728852    1.962460
 ---------------------------------------------------------------------

 SCF Done:  E(RHF) =  -470.733267397     A.U. after   11 cycles
 E2 =    -0.1584161912D+01 EUMP2 =    -0.47231742930867D+03

 The electronic state is 1-A.
 Alpha  occ. eigenvalues --  -11.21672 -11.21656 -11.21642 -11.21586 -11.21481
 Alpha  occ. eigenvalues --  -11.21437 -11.21422 -11.21357 -11.21140 -11.21108
 Alpha  occ. eigenvalues --  -11.21108 -11.21040  -1.08522  -1.08437  -1.03596
 Alpha  occ. eigenvalues --   -1.03539  -0.96042  -0.95991  -0.87057  -0.87007
 Alpha  occ. eigenvalues --   -0.79689  -0.79583  -0.78329  -0.78263  -0.65379
 Alpha  occ. eigenvalues --   -0.64871  -0.60999  -0.60933  -0.59419  -0.59349
 Alpha  occ. eigenvalues --   -0.57660  -0.57597  -0.55346  -0.55269  -0.52731
 Alpha  occ. eigenvalues --   -0.52683  -0.52474  -0.52410  -0.50018  -0.49920
 Alpha  occ. eigenvalues --   -0.48027  -0.47927  -0.46834  -0.46578  -0.46148
 Alpha  occ. eigenvalues --   -0.45808  -0.45617  -0.45404  -0.43849  -0.43797
 Alpha virt. eigenvalues --    0.19029   0.23056   0.23634   0.24253   0.25329
 Alpha virt. eigenvalues --    0.26530   0.26814   0.27906   0.28299   0.30183
 Alpha virt. eigenvalues --    0.30926   0.31470   0.31754   0.31943   0.32096

 Mulliken charges:
               1
     1  C   -0.303913
     2  C   -0.299492
     3  C   -0.475866
     4  H    0.153810
     5  H    0.150059
     6  H    0.151922
     7  H    0.152323
     8  H    0.155382
     9  H    0.155222
    10  H    0.160534
    11  C   -0.297429
    12  C   -0.308762
    13  C   -0.475513
    14  H    0.149315
    15  H    0.150216
    16  H    0.159635
    17  H    0.152068
    18  H    0.155723
    19  H    0.155146
    20  H    0.160439
    21  C   -0.299654
    22  C   -0.299994
    23  C   -0.475662
    24  H    0.150165
    25  H    0.149020
    26  H    0.152396
    27  H    0.151870
    28  H    0.154808
    29  H    0.155370
    30  H    0.160474
    31  C   -0.304102
    32  C   -0.303583
    33  C   -0.475909
    34  H    0.150142
    35  H    0.155112
    36  H    0.151851
    37  H    0.155696
    38  H    0.156093
    39  H    0.154898
    40  H    0.160188
 Sum of Mulliken charges =  -0.00000

 Dipole moment (field-independent basis, Debye):
    X=              0.0168    Y=             -0.0038    Z=              0.0090  Tot=              0.0194
 Quadrupole moment (field-independent basis, Debye-Ang):
   XX=            -83.3491   YY=            -85.7805   ZZ=            -85.4859
   XY=             -0.5909   XZ=              0.4927   YZ=              0.0375

 Normal termination of Gaussian 16 at Wed May  5 19:57:48 2021.
