 Gaussian 16, Revision A.03,
 Gaussian 16:  EM64L-G16RevA.03 25-Dec-2016

 -------------
 #p 6-31g* mp2
 -------------

 ------------------------------------------------------
 Input file generated by CHIRIPA (05-May-2021 14:51:08)
 ------------------------------------------------------
 Symbolic Z-matrix:
 Charge =  0 Multiplicity = 1

                         Standard orientation:
 ---------------------------------------------------------------------
 Center     Atomic      Atomic             Coordinates (Angstroms)
 Number     Number       Type             X           Y           Z
 ---------------------------------------------------------------------
      1          6           0       -3.952642    0.032111   -0.070312
      2          6           0       -3.276254    1.279659    0.498992
      3          6           0       -1.779868    1.334043    0.189692
      4          1           0       -3.460080   -0.861942    0.335886
      5          1           0       -3.800956    0.005462   -1.158281
      6          1           0       -3.430353    1.304670    1.585382
      7          1           0       -3.770607    2.170845    0.091539
      8          1           0       -1.609780    1.333884   -0.891821
      9          1           0       -1.267593    0.462787    0.610510
     10          1           0       -1.316335    2.233920    0.605889
     11          6           0       -5.448783   -0.036567    0.230644
     12          6           0       -6.125171   -1.284116   -0.338661
     13          6           0       -7.621557   -1.338500   -0.029361
     14          1           0       -5.600469   -0.009918    1.318612
     15          1           0       -5.941344    0.857485   -0.175555
     16          1           0       -5.630817   -2.175302    0.068792
     17          1           0       -5.971072   -1.309126   -1.425051
     18          1           0       -8.133832   -0.467243   -0.450179
     19          1           0       -7.791644   -1.338340    1.052152
     20          1           0       -8.085090   -2.238376   -0.445557
     21          6           0        3.947720   -0.004637   -0.208178
     22          6           0        3.318784    1.389055   -0.201483
     23          6           0        1.811942    1.358859   -0.458989
     24          1           0        3.749260   -0.484871   -1.176132
     25          1           0        3.456766   -0.624516    0.554783
     26          1           0        3.811719    2.006539   -0.963285
     27          1           0        3.518928    1.866100    0.766498
     28          1           0        1.302030    0.765691    0.307002
     29          1           0        1.596485    0.906927   -1.432610
     30          1           0        1.382845    2.365662   -0.449879
     31          6           0        5.453704    0.009094    0.047847
     32          6           0        6.082641   -1.384599    0.041151
     33          6           0        7.589482   -1.354403    0.298658
     34          1           0        5.944658    0.628973   -0.715114
     35          1           0        5.652165    0.489327    1.015801
     36          1           0        5.882497   -1.861644   -0.926829
     37          1           0        5.589706   -2.002083    0.802954
     38          1           0        7.804940   -0.902471    1.272278
     39          1           0        8.099395   -0.761234   -0.467333
     40          1           0        8.018580   -2.361206    0.289547
 ---------------------------------------------------------------------

 SCF Done:  E(RHF) =  -470.732947040     A.U. after   11 cycles
 E2 =    -0.1582427344D+01 EUMP2 =    -0.47231537438445D+03

 The electronic state is 1-A.
 Alpha  occ. eigenvalues --  -11.21579 -11.21576 -11.21524 -11.21511 -11.21368
 Alpha  occ. eigenvalues --  -11.21362 -11.21307 -11.21301 -11.21054 -11.21051
 Alpha  occ. eigenvalues --  -11.20957 -11.20916  -1.08393  -1.08375  -1.03509
 Alpha  occ. eigenvalues --   -1.03442  -0.96007  -0.95841  -0.87089  -0.86792
 Alpha  occ. eigenvalues --   -0.79674  -0.79404  -0.78223  -0.78168  -0.65032
 Alpha  occ. eigenvalues --   -0.65001  -0.60937  -0.60818  -0.59401  -0.59191
 Alpha  occ. eigenvalues --   -0.57624  -0.57451  -0.55338  -0.55099  -0.52896
 Alpha  occ. eigenvalues --   -0.52507  -0.52382  -0.52140  -0.50007  -0.49716
 Alpha  occ. eigenvalues --   -0.47995  -0.47707  -0.46662  -0.46478  -0.45799
 Alpha  occ. eigenvalues --   -0.45691  -0.45673  -0.45621  -0.43866  -0.43571
 Alpha virt. eigenvalues --    0.22486   0.23009   0.23574   0.24845   0.26210
 Alpha virt. eigenvalues --    0.26571   0.26851   0.27429   0.27664   0.29351
 Alpha virt. eigenvalues --    0.29716   0.30669   0.31354   0.32067   0.32317

 Mulliken charges:
               1
     1  C   -0.298266
     2  C   -0.301560
     3  C   -0.472871
     4  H    0.149403
     5  H    0.149421
     6  H    0.151320
     7  H    0.151434
     8  H    0.156096
     9  H    0.154964
    10  H    0.160437
    11  C   -0.298163
    12  C   -0.299581
    13  C   -0.475673
    14  H    0.149392
    15  H    0.149572
    16  H    0.151852
    17  H    0.151876
    18  H    0.155142
    19  H    0.155124
    20  H    0.160163
    21  C   -0.298237
    22  C   -0.301030
    23  C   -0.474510
    24  H    0.149473
    25  H    0.149137
    26  H    0.151237
    27  H    0.151369
    28  H    0.158149
    29  H    0.154115
    30  H    0.160577
    31  C   -0.298161
    32  C   -0.299575
    33  C   -0.475667
    34  H    0.149453
    35  H    0.149518
    36  H    0.151871
    37  H    0.151792
    38  H    0.155121
    39  H    0.155147
    40  H    0.160139
 Sum of Mulliken charges =  -0.00000

 Dipole moment (field-independent basis, Debye):
    X=             -0.0079    Y=              0.0074    Z=             -0.0053  Tot=              0.0120
 Quadrupole moment (field-independent basis, Debye-Ang):
   XX=            -87.4727   YY=            -84.6133   ZZ=            -83.0529
   XY=             -0.1431   XZ=              0.0012   YZ=             -0.4924

 Normal termination of Gaussian 16 at Wed May  5 22:53:45 2021.
