 Gaussian 16, Revision A.03,
 Gaussian 16:  EM64L-G16RevA.03 25-Dec-2016

 -------------
 #p 6-31g* mp2
 -------------

 ------------------------------------------------------
 Input file generated by CHIRIPA (05-May-2021 14:55:20)
 ------------------------------------------------------
 Symbolic Z-matrix:
 Charge =  0 Multiplicity = 1

                         Standard orientation:
 ---------------------------------------------------------------------
 Center     Atomic      Atomic             Coordinates (Angstroms)
 Number     Number       Type             X           Y           Z
 ---------------------------------------------------------------------
      1          6           0        0.285016   -1.628556    0.848200
      2          6           0        0.611546   -0.359421    1.337275
      3          6           0        1.809143    0.258431    0.965026
      4          6           0        2.660749   -0.424586    0.098110
      5          6           0        2.363555   -1.689791   -0.406095
      6          6           0        1.160519   -2.288527   -0.020393
      7          1           0       -0.647419   -2.101094    1.142597
      8          1           0       -0.066468    0.155477    2.011976
      9          1           0        2.086758    1.240306    1.328715
     10          1           0        3.059587   -2.178242   -1.077194
     11          1           0        0.909533   -3.274222   -0.401781
     12          7           0        3.931471    0.219388   -0.303094
     13          8           0        4.664723   -0.403309   -1.068095
     14          8           0        4.170148    1.334638    0.155039
     15          6           0       -3.519939    0.111789   -0.549664
     16          6           0       -4.719459   -0.380945    0.260491
     17          6           0       -5.474043   -1.516438   -0.431646
     18          1           0       -3.865402    0.447555   -1.537014
     19          1           0       -2.835811   -0.729515   -0.727342
     20          1           0       -5.400444    0.461340    0.437773
     21          1           0       -4.371126   -0.715399    1.246098
     22          1           0       -4.813968   -2.374568   -0.594479
     23          1           0       -5.849135   -1.191142   -1.407398
     24          1           0       -6.327615   -1.853358    0.164810
     25          6           0       -2.755439    1.246856    0.129225
     26          6           0       -1.555918    1.739591   -0.680929
     27          6           0       -0.801333    2.875084    0.011208
     28          1           0       -3.439566    2.088160    0.306905
     29          1           0       -2.409975    0.911090    1.116577
     30          1           0       -1.904251    2.074043   -1.666536
     31          1           0       -0.874933    0.897305   -0.858211
     32          1           0       -0.426243    2.549787    0.986959
     33          1           0       -1.461409    3.733213    0.174042
     34          1           0        0.052238    3.212004   -0.585248
 ---------------------------------------------------------------------

 SCF Done:  E(RHF) =  -669.534233292     A.U. after   15 cycles
 E2 =    -0.2094773402D+01 EUMP2 =    -0.67162900669332D+03

 The electronic state is 1-A.
 Alpha  occ. eigenvalues --  -20.60815 -20.60810 -15.85869 -11.31266 -11.27824
 Alpha  occ. eigenvalues --  -11.27803 -11.27580 -11.26863 -11.26834 -11.22322
 Alpha  occ. eigenvalues --  -11.22128 -11.22067 -11.21959 -11.21731 -11.21579
 Alpha  occ. eigenvalues --   -1.59889  -1.39442  -1.19448  -1.09111  -1.08821
 Alpha  occ. eigenvalues --   -1.04872  -1.04112  -0.96607  -0.95659  -0.87619
 Alpha  occ. eigenvalues --   -0.86244  -0.82496  -0.80190  -0.78912  -0.77536
 Alpha  occ. eigenvalues --   -0.72086  -0.71213  -0.70547  -0.65860  -0.65098
 Alpha  occ. eigenvalues --   -0.64791  -0.62306  -0.61447  -0.59951  -0.58197
 Alpha  occ. eigenvalues --   -0.55961  -0.55327  -0.53288  -0.53127  -0.53011
 Alpha  occ. eigenvalues --   -0.52922  -0.50572  -0.48851  -0.48838  -0.48495
 Alpha  occ. eigenvalues --   -0.47230  -0.46449  -0.46352  -0.44840  -0.44396
 Alpha  occ. eigenvalues --   -0.37404  -0.36383
 Alpha virt. eigenvalues --    0.04960   0.11117   0.16311   0.19147   0.22583
 Alpha virt. eigenvalues --    0.23828   0.25258   0.25885   0.26620   0.28947
 Alpha virt. eigenvalues --    0.29574   0.29766   0.31191   0.31601   0.31739

 Mulliken charges:
               1
     1  C   -0.172444
     2  C   -0.217950
     3  C   -0.169031
     4  C    0.157980
     5  C   -0.171203
     6  C   -0.218652
     7  H    0.226407
     8  H    0.225819
     9  H    0.276928
    10  H    0.275955
    11  H    0.223947
    12  N    0.488092
    13  O   -0.460203
    14  O   -0.459943
    15  C   -0.299348
    16  C   -0.299598
    17  C   -0.475332
    18  H    0.153797
    19  H    0.145569
    20  H    0.155025
    21  H    0.146807
    22  H    0.152107
    23  H    0.157955
    24  H    0.162060
    25  C   -0.297608
    26  C   -0.305705
    27  C   -0.475228
    28  H    0.152778
    29  H    0.137919
    30  H    0.154815
    31  H    0.160694
    32  H    0.142518
    33  H    0.157325
    34  H    0.167747
 Sum of Mulliken charges =  -0.00000

 Dipole moment (field-independent basis, Debye):
    X=             -4.4756    Y=             -2.2284    Z=              1.2890  Tot=              5.1632
 Quadrupole moment (field-independent basis, Debye-Ang):
   XX=           -118.7558   YY=            -89.9923   ZZ=            -93.4291
   XY=             -6.2162   XZ=              2.9297   YZ=              0.9370

 Normal termination of Gaussian 16 at Thu May  6 12:28:30 2021.
