 Gaussian 16, Revision A.03,
 Gaussian 16:  EM64L-G16RevA.03 25-Dec-2016

 -------------
 #p 6-31g* mp2
 -------------

 ------------------------------------------------------
 Input file generated by CHIRIPA (05-May-2021 14:55:20)
 ------------------------------------------------------
 Symbolic Z-matrix:
 Charge =  0 Multiplicity = 1

                         Standard orientation:
 ---------------------------------------------------------------------
 Center     Atomic      Atomic             Coordinates (Angstroms)
 Number     Number       Type             X           Y           Z
 ---------------------------------------------------------------------
      1          6           0        0.609521   -0.218848    0.963673
      2          6           0        1.122913    0.952772    0.397759
      3          6           0        2.441658    0.999503   -0.064059
      4          6           0        3.222552   -0.148987    0.056215
      5          6           0        2.739899   -1.331259    0.615295
      6          6           0        1.418227   -1.355120    1.070446
      7          1           0       -0.416048   -0.246266    1.319834
      8          1           0        0.497159    1.836732    0.313552
      9          1           0        2.864566    1.893332   -0.506365
     10          1           0        3.387890   -2.196458    0.685698
     11          1           0        1.022189   -2.266398    1.509503
     12          7           0        4.620198   -0.111621   -0.429162
     13          8           0        5.287728   -1.136930   -0.311771
     14          8           0        5.021677    0.942269   -0.917801
     15          6           0       -4.335524   -0.356444   -0.033499
     16          6           0       -3.951930   -1.698634   -0.657490
     17          6           0       -4.972990   -2.798994   -0.366909
     18          1           0       -4.442761   -0.481569    1.052682
     19          1           0       -5.321298   -0.052430   -0.411947
     20          1           0       -2.966558   -1.999355   -0.279040
     21          1           0       -3.845407   -1.570256   -1.742289
     22          1           0       -5.957381   -2.524564   -0.759672
     23          1           0       -5.073538   -2.956101    0.711892
     24          1           0       -4.679066   -3.749839   -0.822280
     25          6           0       -3.324516    0.753616   -0.315200
     26          6           0       -3.708110    2.095807    0.308791
     27          6           0       -2.687050    3.196167    0.018208
     28          1           0       -2.338742    0.449604    0.063248
     29          1           0       -3.217279    0.878742   -1.401381
     30          1           0       -3.814633    1.967429    1.393589
     31          1           0       -4.693482    2.396528   -0.069661
     32          1           0       -2.586502    3.353274   -1.060591
     33          1           0       -1.702659    2.921737    0.410972
     34          1           0       -2.980975    4.147012    0.473580
 ---------------------------------------------------------------------

 SCF Done:  E(RHF) =  -669.534969191     A.U. after   15 cycles
 E2 =    -0.2092341944D+01 EUMP2 =    -0.67162731113477D+03

 The electronic state is 1-A.
 Alpha  occ. eigenvalues --  -20.60741 -20.60736 -15.85794 -11.31163 -11.27729
 Alpha  occ. eigenvalues --  -11.27720 -11.27462 -11.26751 -11.26723 -11.22633
 Alpha  occ. eigenvalues --  -11.22473 -11.22434 -11.22284 -11.22228 -11.21759
 Alpha  occ. eigenvalues --   -1.59817  -1.39370  -1.19334  -1.09417  -1.08730
 Alpha  occ. eigenvalues --   -1.04736  -1.04470  -0.96929  -0.95568  -0.87942
 Alpha  occ. eigenvalues --   -0.86139  -0.82399  -0.80535  -0.79223  -0.77441
 Alpha  occ. eigenvalues --   -0.72013  -0.71139  -0.70480  -0.66079  -0.64985
 Alpha  occ. eigenvalues --   -0.64744  -0.62153  -0.61807  -0.60281  -0.58535
 Alpha  occ. eigenvalues --   -0.56310  -0.55218  -0.53587  -0.53377  -0.53062
 Alpha  occ. eigenvalues --   -0.52799  -0.50862  -0.48857  -0.48768  -0.48750
 Alpha  occ. eigenvalues --   -0.47573  -0.46743  -0.46673  -0.44775  -0.44726
 Alpha  occ. eigenvalues --   -0.37303  -0.36335
 Alpha virt. eigenvalues --    0.05066   0.11286   0.16466   0.18543   0.22248
 Alpha virt. eigenvalues --    0.23472   0.25194   0.25321   0.26368   0.28175
 Alpha virt. eigenvalues --    0.29521   0.30896   0.31061   0.31237   0.31449

 Mulliken charges:
               1
     1  C   -0.174616
     2  C   -0.224821
     3  C   -0.172360
     4  C    0.159015
     5  C   -0.171153
     6  C   -0.219041
     7  H    0.228035
     8  H    0.232655
     9  H    0.276296
    10  H    0.275490
    11  H    0.223306
    12  N    0.487943
    13  O   -0.460531
    14  O   -0.460337
    15  C   -0.299237
    16  C   -0.299103
    17  C   -0.476311
    18  H    0.148654
    19  H    0.153653
    20  H    0.146521
    21  H    0.155510
    22  H    0.157603
    23  H    0.154893
    24  H    0.162588
    25  C   -0.302692
    26  C   -0.300685
    27  C   -0.479097
    28  H    0.141415
    29  H    0.154884
    30  H    0.152213
    31  H    0.157270
    32  H    0.159753
    33  H    0.146086
    34  H    0.166200
 Sum of Mulliken charges =  -0.00000

 Dipole moment (field-independent basis, Debye):
    X=             -5.1675    Y=             -0.1016    Z=              1.6153  Tot=              5.4150
 Quadrupole moment (field-independent basis, Debye-Ang):
   XX=           -126.1770   YY=            -90.5877   ZZ=            -94.2091
   XY=             -1.2483   XZ=              6.2628   YZ=             -1.9631

 Normal termination of Gaussian 16 at Wed May  5 18:54:07 2021.
