 Gaussian 16, Revision A.03,
 Gaussian 16:  EM64L-G16RevA.03 25-Dec-2016

 -------------
 #p 6-31g* mp2
 -------------

 ------------------------------------------------------
 Input file generated by CHIRIPA (05-May-2021 14:57:23)
 ------------------------------------------------------
 Symbolic Z-matrix:
 Charge =  0 Multiplicity = 1

                         Standard orientation:
 ---------------------------------------------------------------------
 Center     Atomic      Atomic             Coordinates (Angstroms)
 Number     Number       Type             X           Y           Z
 ---------------------------------------------------------------------
      1          6           0       -5.227569   -2.070381    0.567275
      2          6           0       -3.931436   -2.117356    0.043488
      3          6           0       -3.274554   -0.941906   -0.332508
      4          6           0       -3.946496    0.268661   -0.170303
      5          6           0       -5.237909    0.348170    0.348562
      6          6           0       -5.875527   -0.839937    0.717874
      7          1           0       -5.730369   -2.988415    0.856761
      8          1           0       -3.425785   -3.071515   -0.074595
      9          1           0       -2.271169   -0.949413   -0.740651
     10          1           0       -5.716271    1.314287    0.454423
     11          1           0       -6.882125   -0.800431    1.124377
     12          7           0       -3.261281    1.519757   -0.564815
     13          8           0       -3.874957    2.573635   -0.411909
     14          8           0       -2.123509    1.422798   -1.019470
     15          6           0        1.571530    0.279506    0.348889
     16          6           0        2.463037    1.120543    1.022978
     17          6           0        3.843538    0.940335    0.895348
     18          6           0        4.299948   -0.095526    0.081732
     19          6           0        3.437015   -0.950038   -0.602699
     20          6           0        2.060502   -0.751282   -0.460370
     21          1           0        0.500673    0.426701    0.453744
     22          1           0        2.086140    1.921887    1.652138
     23          1           0        4.556034    1.576819    1.405893
     24          1           0        3.842706   -1.740221   -1.222733
     25          1           0        1.370485   -1.405974   -0.985062
     26          7           0        5.759312   -0.296122   -0.061164
     27          8           0        6.136096   -1.216008   -0.783993
     28          8           0        6.498744    0.470335    0.552368
 ---------------------------------------------------------------------

 SCF Done:  E(RHF) =  -868.338895386     A.U. after   16 cycles
 E2 =    -0.2598827132D+01 EUMP2 =    -0.87093772251746D+03

 The electronic state is 1-A.
 Alpha  occ. eigenvalues --  -20.61864 -20.61797 -20.60424 -20.60417 -15.86860
 Alpha  occ. eigenvalues --  -15.85476 -11.32094 -11.30743 -11.28706 -11.28588
 Alpha  occ. eigenvalues --  -11.28303 -11.27628 -11.27566 -11.27357 -11.27307
 Alpha  occ. eigenvalues --  -11.26934 -11.26337 -11.26231  -1.60891  -1.59502
 Alpha  occ. eigenvalues --   -1.40453  -1.39058  -1.20239  -1.18909  -1.09648
 Alpha  occ. eigenvalues --   -1.08297  -1.05624  -1.04315  -0.96512  -0.95148
 Alpha  occ. eigenvalues --   -0.87025  -0.85707  -0.83351  -0.81998  -0.78431
 Alpha  occ. eigenvalues --   -0.77082  -0.73081  -0.72205  -0.71696  -0.71337
 Alpha  occ. eigenvalues --   -0.70825  -0.69943  -0.65891  -0.65616  -0.64557
 Alpha  occ. eigenvalues --   -0.64326  -0.62984  -0.61680  -0.56099  -0.54720
 Alpha  occ. eigenvalues --   -0.53951  -0.53710  -0.52629  -0.52410  -0.49850
 Alpha  occ. eigenvalues --   -0.49813  -0.48456  -0.48446  -0.45877  -0.44486
 Alpha  occ. eigenvalues --   -0.38189  -0.37220  -0.36835  -0.35930
 Alpha virt. eigenvalues --    0.04063   0.05478   0.10419   0.11736   0.15586
 Alpha virt. eigenvalues --    0.17005   0.19637   0.21809   0.25623   0.26976
 Alpha virt. eigenvalues --    0.28037   0.28793   0.30691   0.31338   0.32169

 Mulliken charges:
               1
     1  C   -0.170021
     2  C   -0.217479
     3  C   -0.172535
     4  C    0.158724
     5  C   -0.170356
     6  C   -0.217962
     7  H    0.228840
     8  H    0.224841
     9  H    0.268126
    10  H    0.277616
    11  H    0.226636
    12  N    0.488937
    13  O   -0.454255
    14  O   -0.468259
    15  C   -0.170694
    16  C   -0.219447
    17  C   -0.170899
    18  C    0.157507
    19  C   -0.171171
    20  C   -0.218760
    21  H    0.236546
    22  H    0.225291
    23  H    0.274602
    24  H    0.273239
    25  H    0.216185
    26  N    0.488257
    27  O   -0.462288
    28  O   -0.461220
 Sum of Mulliken charges =  -0.00000

 Dipole moment (field-independent basis, Debye):
    X=             -8.0268    Y=             -3.6201    Z=              1.9746  Tot=              9.0241
 Quadrupole moment (field-independent basis, Debye-Ang):
   XX=           -126.5205   YY=           -103.4040   ZZ=           -104.3263
   XY=             19.1322   XZ=             -4.2994   YZ=              4.6764

 Normal termination of Gaussian 16 at Fri May  7 10:59:52 2021.
