 Gaussian 16, Revision A.03,
 Gaussian 16:  EM64L-G16RevA.03 25-Dec-2016

 -------------
 #p 6-31g* mp2
 -------------

 ------------------------------------------------------
 Input file generated by CHIRIPA (05-May-2021 14:53:16)
 ------------------------------------------------------
 Symbolic Z-matrix:
 Charge =  0 Multiplicity = 1

                         Standard orientation:
 ---------------------------------------------------------------------
 Center     Atomic      Atomic             Coordinates (Angstroms)
 Number     Number       Type             X           Y           Z
 ---------------------------------------------------------------------
      1          6           0        4.136925   -0.096960    0.331663
      2          6           0        5.441601   -0.174805   -0.461902
      3          6           0        6.625244    0.441215    0.284626
      4          1           0        3.918691    0.954385    0.564024
      5          1           0        4.270635   -0.608693    1.294807
      6          1           0        5.305045    0.335724   -1.423842
      7          1           0        5.656655   -1.226072   -0.692566
      8          1           0        6.789914   -0.073115    1.236965
      9          1           0        6.436306    1.497555    0.501534
     10          1           0        7.547619    0.374780   -0.300755
     11          6           0        2.944475   -0.708712   -0.401515
     12          6           0        1.639798   -0.630867    0.392050
     13          6           0        0.456155   -1.246887   -0.354478
     14          1           0        2.810765   -0.196979   -1.364659
     15          1           0        3.162708   -1.760057   -0.633876
     16          1           0        1.424745    0.420400    0.622714
     17          1           0        1.776354   -1.141396    1.353990
     18          1           0        0.645093   -2.303227   -0.571386
     19          1           0        0.291486   -0.732557   -1.306817
     20          1           0       -0.466219   -1.180452    0.230903
     21          6           0       -3.655904   -2.043727    0.137042
     22          6           0       -3.501574   -1.410685   -1.100681
     23          6           0       -3.009504   -0.104118   -1.173459
     24          6           0       -2.680156    0.542722    0.016675
     25          6           0       -2.822636   -0.061133    1.265013
     26          6           0       -3.316541   -1.368122    1.313865
     27          1           0       -4.038868   -3.058864    0.184284
     28          1           0       -3.764318   -1.932938   -2.016248
     29          1           0       -2.880073    0.409664   -2.118283
     30          1           0       -2.552176    0.485089    2.160508
     31          1           0       -3.435351   -1.857267    2.276500
     32          7           0       -2.158252    1.926149   -0.047707
     33          8           0       -1.875310    2.474389    1.015314
     34          8           0       -2.042009    2.436043   -1.159971
 ---------------------------------------------------------------------

 SCF Done:  E(RHF) =  -669.534058029     A.U. after   15 cycles
 E2 =    -0.2094072492D+01 EUMP2 =    -0.67162813052081D+03

 The electronic state is 1-A.
 Alpha  occ. eigenvalues --  -20.60810 -20.60804 -15.85859 -11.31181 -11.27788
 Alpha  occ. eigenvalues --  -11.27784 -11.27580 -11.26850 -11.26834 -11.21366
 Alpha  occ. eigenvalues --  -11.21336 -11.21144 -11.21079 -11.20846 -11.20785
 Alpha  occ. eigenvalues --   -1.59883  -1.39437  -1.19434  -1.08811  -1.08177
 Alpha  occ. eigenvalues --   -1.04831  -1.03298  -0.95778  -0.95623  -0.86780
 Alpha  occ. eigenvalues --   -0.86218  -0.82475  -0.79367  -0.77990  -0.77518
 Alpha  occ. eigenvalues --   -0.72082  -0.71214  -0.70527  -0.65070  -0.64826
 Alpha  occ. eigenvalues --   -0.64805  -0.62170  -0.60699  -0.59250  -0.57442
 Alpha  occ. eigenvalues --   -0.55329  -0.55070  -0.53745  -0.52912  -0.52221
 Alpha  occ. eigenvalues --   -0.51663  -0.49690  -0.48839  -0.48836  -0.47669
 Alpha  occ. eigenvalues --   -0.46395  -0.45534  -0.45455  -0.44837  -0.43490
 Alpha  occ. eigenvalues --   -0.37365  -0.36418
 Alpha virt. eigenvalues --    0.04998   0.11177   0.16497   0.21362   0.23096
 Alpha virt. eigenvalues --    0.24506   0.26866   0.27242   0.27776   0.28086
 Alpha virt. eigenvalues --    0.28373   0.30923   0.31564   0.32035   0.32332

 Mulliken charges:
               1
     1  C   -0.298719
     2  C   -0.299563
     3  C   -0.475708
     4  H    0.153250
     5  H    0.147920
     6  H    0.152694
     7  H    0.150269
     8  H    0.154281
     9  H    0.156572
    10  H    0.159479
    11  C   -0.298071
    12  C   -0.300895
    13  C   -0.484294
    14  H    0.151280
    15  H    0.146925
    16  H    0.158438
    17  H    0.148492
    18  H    0.150261
    19  H    0.153993
    20  H    0.167785
    21  C   -0.170544
    22  C   -0.216030
    23  C   -0.169009
    24  C    0.163572
    25  C   -0.178581
    26  C   -0.216204
    27  H    0.226200
    28  H    0.224031
    29  H    0.275525
    30  H    0.275960
    31  H    0.224114
    32  N    0.488271
    33  O   -0.460827
    34  O   -0.460868
 Sum of Mulliken charges =  -0.00000

 Dipole moment (field-independent basis, Debye):
    X=             -1.9764    Y=             -4.8190    Z=              0.2198  Tot=              5.2131
 Quadrupole moment (field-independent basis, Debye-Ang):
   XX=            -86.5208   YY=           -100.1974   ZZ=            -89.7626
   XY=             12.1232   XZ=             -0.4642   YZ=             -0.4254

 Normal termination of Gaussian 16 at Thu May  6 07:30:50 2021.
