 Gaussian 16, Revision A.03,
 Gaussian 16:  EM64L-G16RevA.03 25-Dec-2016

 -------------
 #p 6-31g* mp2
 -------------

 ------------------------------------------------------
 Input file generated by CHIRIPA (05-May-2021 14:55:22)
 ------------------------------------------------------
 Symbolic Z-matrix:
 Charge =  0 Multiplicity = 1

                         Standard orientation:
 ---------------------------------------------------------------------
 Center     Atomic      Atomic             Coordinates (Angstroms)
 Number     Number       Type             X           Y           Z
 ---------------------------------------------------------------------
      1          6           0        2.221391    2.746769    0.612599
      2          6           0        3.198929    1.866481    1.088028
      3          6           0        3.262416    0.552778    0.614002
      4          6           0        2.328406    0.150999   -0.339669
      5          6           0        1.342648    1.004421   -0.832865
      6          6           0        1.297998    2.313693   -0.344643
      7          1           0        2.179389    3.765564    0.986347
      8          1           0        3.917344    2.200067    1.831429
      9          1           0        4.008771   -0.149562    0.964844
     10          1           0        0.640151    0.642936   -1.573976
     11          1           0        0.537736    2.995150   -0.715672
     12          7           0        2.385645   -1.237415   -0.849014
     13          8           0        1.551253   -1.566941   -1.689156
     14          8           0        3.263818   -1.969837   -0.398451
     15          6           0       -3.318151   -0.081465   -0.217866
     16          6           0       -4.621401    0.566911    0.250249
     17          6           0       -5.309644    1.373147   -0.851613
     18          1           0       -2.637348    0.700108   -0.582002
     19          1           0       -3.529524   -0.735956   -1.074812
     20          1           0       -4.407850    1.218915    1.106931
     21          1           0       -5.299108   -0.216278    0.613491
     22          1           0       -5.551191    0.731257   -1.704979
     23          1           0       -4.654870    2.174604   -1.208737
     24          1           0       -6.239215    1.827914   -0.495319
     25          6           0       -2.618417   -0.890890    0.872516
     26          6           0       -1.315167   -1.539266    0.404402
     27          6           0       -0.626924   -2.345502    1.506264
     28          1           0       -2.407044   -0.236399    1.729463
     29          1           0       -3.299220   -1.672463    1.236653
     30          1           0       -0.637461   -0.756077    0.041159
     31          1           0       -1.528719   -2.191270   -0.452279
     32          1           0       -1.281699   -3.146960    1.863388
     33          1           0       -0.385378   -1.703612    2.359630
     34          1           0        0.302647   -2.800268    1.149971
 ---------------------------------------------------------------------

 SCF Done:  E(RHF) =  -669.534872321     A.U. after   15 cycles
 E2 =    -0.2094304800D+01 EUMP2 =    -0.67162917712104D+03

 The electronic state is 1-A.
 Alpha  occ. eigenvalues --  -20.60902 -20.60868 -15.85911 -11.31271 -11.27843
 Alpha  occ. eigenvalues --  -11.27835 -11.27588 -11.26858 -11.26846 -11.21664
 Alpha  occ. eigenvalues --  -11.21401 -11.21199 -11.21153 -11.21019 -11.20533
 Alpha  occ. eigenvalues --   -1.59949  -1.39503  -1.19457  -1.08847  -1.08289
 Alpha  occ. eigenvalues --   -1.04861  -1.03326  -0.95807  -0.95682  -0.86822
 Alpha  occ. eigenvalues --   -0.86258  -0.82516  -0.79422  -0.78126  -0.77517
 Alpha  occ. eigenvalues --   -0.72137  -0.71284  -0.70567  -0.65109  -0.64988
 Alpha  occ. eigenvalues --   -0.64811  -0.62215  -0.60736  -0.59166  -0.57374
 Alpha  occ. eigenvalues --   -0.55359  -0.55122  -0.53195  -0.52950  -0.52459
 Alpha  occ. eigenvalues --   -0.52215  -0.49772  -0.48935  -0.48893  -0.47717
 Alpha  occ. eigenvalues --   -0.46485  -0.45760  -0.45519  -0.44717  -0.43567
 Alpha  occ. eigenvalues --   -0.37408  -0.36411
 Alpha virt. eigenvalues --    0.04934   0.11092   0.16410   0.20915   0.23013
 Alpha virt. eigenvalues --    0.24483   0.25645   0.27147   0.27743   0.28017
 Alpha virt. eigenvalues --    0.29372   0.30599   0.31553   0.31852   0.32310

 Mulliken charges:
               1
     1  C   -0.170622
     2  C   -0.218506
     3  C   -0.170473
     4  C    0.162364
     5  C   -0.175053
     6  C   -0.219648
     7  H    0.226033
     8  H    0.223872
     9  H    0.276039
    10  H    0.277659
    11  H    0.223911
    12  N    0.488934
    13  O   -0.457973
    14  O   -0.460220
    15  C   -0.295931
    16  C   -0.299348
    17  C   -0.475081
    18  H    0.139419
    19  H    0.152723
    20  H    0.150079
    21  H    0.153699
    22  H    0.156750
    23  H    0.151240
    24  H    0.160280
    25  C   -0.298394
    26  C   -0.300948
    27  C   -0.482314
    28  H    0.145880
    29  H    0.149878
    30  H    0.149165
    31  H    0.160749
    32  H    0.154901
    33  H    0.149591
    34  H    0.171345
 Sum of Mulliken charges =  -0.00000

 Dipole moment (field-independent basis, Debye):
    X=             -0.0745    Y=              4.7785    Z=              1.7253  Tot=              5.0810
 Quadrupole moment (field-independent basis, Debye-Ang):
   XX=            -93.0511   YY=            -93.1087   ZZ=            -95.3071
   XY=             11.7265   XZ=              6.8695   YZ=             -1.1450

 Normal termination of Gaussian 16 at Wed May  5 16:01:07 2021.
