 Gaussian 16, Revision A.03,
 Gaussian 16:  EM64L-G16RevA.03 25-Dec-2016

 -------------
 #p 6-31g* mp2
 -------------

 ------------------------------------------------------
 Input file generated by CHIRIPA (05-May-2021 14:57:21)
 ------------------------------------------------------
 Symbolic Z-matrix:
 Charge =  0 Multiplicity = 1

                         Standard orientation:
 ---------------------------------------------------------------------
 Center     Atomic      Atomic             Coordinates (Angstroms)
 Number     Number       Type             X           Y           Z
 ---------------------------------------------------------------------
      1          6           0        3.324474    2.420738    0.305822
      2          6           0        2.881861    1.938655   -0.930386
      3          6           0        2.663849    0.571122   -1.122403
      4          6           0        2.899545   -0.289956   -0.051757
      5          6           0        3.340719    0.159739    1.191798
      6          6           0        3.552089    1.531309    1.361108
      7          1           0        3.491252    3.484639    0.446165
      8          1           0        2.704267    2.627078   -1.751715
      9          1           0        2.321357    0.170895   -2.068942
     10          1           0        3.509061   -0.550958    1.991791
     11          1           0        3.895846    1.902870    2.322263
     12          7           0        2.672261   -1.739839   -0.243017
     13          8           0        2.887247   -2.477812    0.716052
     14          8           0        2.283433   -2.110831   -1.348375
     15          6           0       -2.795625   -2.462113    0.194044
     16          6           0       -4.011816   -1.811641    0.427039
     17          6           0       -4.101815   -0.419628    0.333521
     18          6           0       -2.950672    0.293956    0.003432
     19          6           0       -1.724555   -0.325175   -0.234486
     20          6           0       -1.657883   -1.718116   -0.135394
     21          1           0       -2.734773   -3.543823    0.268855
     22          1           0       -4.897029   -2.386880    0.683057
     23          1           0       -5.030647    0.109490    0.508800
     24          1           0       -0.859266    0.275227   -0.487883
     25          1           0       -0.712041   -2.220603   -0.316876
     26          7           0       -3.033602    1.768110   -0.098521
     27          8           0       -2.004979    2.374002   -0.390862
     28          8           0       -4.125657    2.289744    0.115839
 ---------------------------------------------------------------------

 SCF Done:  E(RHF) =  -868.340512038     A.U. after   16 cycles
 E2 =    -0.2599279311D+01 EUMP2 =    -0.87093979134893D+03

 The electronic state is 1-A.
 Alpha  occ. eigenvalues --  -20.61550 -20.61531 -20.60678 -20.60659 -15.86559
 Alpha  occ. eigenvalues --  -15.85715 -11.31600 -11.30867 -11.28103 -11.28083
 Alpha  occ. eigenvalues --  -11.27699 -11.27410 -11.27359 -11.27026 -11.27011
 Alpha  occ. eigenvalues --  -11.26982 -11.26388 -11.26200  -1.60626  -1.59749
 Alpha  occ. eigenvalues --   -1.40179  -1.39309  -1.19712  -1.18994  -1.09155
 Alpha  occ. eigenvalues --   -1.08418  -1.05046  -1.04354  -0.96048  -0.95300
 Alpha  occ. eigenvalues --   -0.86455  -0.85751  -0.82884  -0.82135  -0.77989
 Alpha  occ. eigenvalues --   -0.77221  -0.72765  -0.71957  -0.71942  -0.71066
 Alpha  occ. eigenvalues --   -0.70775  -0.70088  -0.65347  -0.65018  -0.64636
 Alpha  occ. eigenvalues --   -0.64313  -0.62395  -0.61693  -0.55518  -0.54833
 Alpha  occ. eigenvalues --   -0.53410  -0.53115  -0.52708  -0.52397  -0.49554
 Alpha  occ. eigenvalues --   -0.49504  -0.48707  -0.48672  -0.45639  -0.44764
 Alpha  occ. eigenvalues --   -0.37640  -0.36951  -0.36629  -0.35954
 Alpha virt. eigenvalues --    0.04468   0.05286   0.10974   0.11704   0.16068
 Alpha virt. eigenvalues --    0.16850   0.21186   0.21902   0.26923   0.27444
 Alpha virt. eigenvalues --    0.28335   0.28676   0.30906   0.31520   0.32245

 Mulliken charges:
               1
     1  C   -0.167523
     2  C   -0.213985
     3  C   -0.177339
     4  C    0.154614
     5  C   -0.170982
     6  C   -0.217506
     7  H    0.230313
     8  H    0.229488
     9  H    0.275448
    10  H    0.275426
    11  H    0.225767
    12  N    0.485466
    13  O   -0.458261
    14  O   -0.465253
    15  C   -0.171312
    16  C   -0.218595
    17  C   -0.172362
    18  C    0.158046
    19  C   -0.174653
    20  C   -0.224359
    21  H    0.228658
    22  H    0.222310
    23  H    0.273571
    24  H    0.270983
    25  H    0.240304
    26  N    0.488269
    27  O   -0.465297
    28  O   -0.461238
 Sum of Mulliken charges =  -0.00000

 Dipole moment (field-independent basis, Debye):
    X=              1.3776    Y=             -0.0038    Z=              1.0828  Tot=              1.7523
 Quadrupole moment (field-independent basis, Debye-Ang):
   XX=            -97.3565   YY=           -111.2227   ZZ=           -100.9477
   XY=             31.2672   XZ=              1.2259   YZ=             -1.4044

 Normal termination of Gaussian 16 at Thu May  6 14:29:17 2021.
