 Gaussian 16, Revision A.03,
 Gaussian 16:  EM64L-G16RevA.03 25-Dec-2016

 -------------
 #p 6-31g* mp2
 -------------

 ------------------------------------------------------
 Input file generated by CHIRIPA (05-May-2021 14:51:14)
 ------------------------------------------------------
 Symbolic Z-matrix:
 Charge =  0 Multiplicity = 1

                         Standard orientation:
 ---------------------------------------------------------------------
 Center     Atomic      Atomic             Coordinates (Angstroms)
 Number     Number       Type             X           Y           Z
 ---------------------------------------------------------------------
      1          6           0        3.287082    0.782611   -0.728353
      2          6           0        2.420805    1.758537    0.068590
      3          6           0        1.944174    2.945601   -0.768962
      4          1           0        4.155663    1.319749   -1.133317
      5          1           0        2.715117    0.416833   -1.592330
      6          1           0        2.993750    2.121305    0.931579
      7          1           0        1.554285    1.218972    0.471865
      8          1           0        1.350151    2.601542   -1.621817
      9          1           0        2.797794    3.509002   -1.159491
     10          1           0        1.326601    3.630548   -0.179631
     11          6           0        3.771247   -0.409397    0.095315
     12          6           0        4.637524   -1.385322   -0.701629
     13          6           0        5.114155   -2.572387    0.135924
     14          1           0        4.343212   -0.043619    0.959292
     15          1           0        2.902666   -0.946534    0.500279
     16          1           0        5.504044   -0.845757   -1.104903
     17          1           0        4.064579   -1.748091   -1.564617
     18          1           0        4.260535   -3.135788    0.526453
     19          1           0        5.708178   -2.228328    0.988779
     20          1           0        5.731728   -3.257334   -0.453407
     21          6           0       -4.130370    0.031357   -0.101183
     22          6           0       -5.076834   -1.118465   -0.447742
     23          6           0       -6.274705   -0.666626   -1.283650
     24          1           0       -4.688144    0.805542    0.443308
     25          1           0       -3.775132    0.497460   -1.030672
     26          1           0       -5.429098   -1.583142    0.482097
     27          1           0       -4.516698   -1.890089   -0.991304
     28          1           0       -5.940632   -0.221809   -2.226589
     29          1           0       -6.858217    0.086881   -0.744816
     30          1           0       -6.938200   -1.504345   -1.520000
     31          6           0       -2.927959   -0.404571    0.734222
     32          6           0       -1.981495    0.745250    1.080780
     33          6           0       -0.783624    0.293412    1.916688
     34          1           0       -3.283197   -0.870674    1.663710
     35          1           0       -2.370185   -1.178756    0.189730
     36          1           0       -2.541631    1.516874    1.624343
     37          1           0       -1.629232    1.209928    0.150942
     38          1           0       -0.200112   -0.460096    1.377855
     39          1           0       -1.117697   -0.151405    2.859627
     40          1           0       -0.120129    1.131131    2.153038
 ---------------------------------------------------------------------

 SCF Done:  E(RHF) =  -470.732744006     A.U. after   11 cycles
 E2 =    -0.1583161601D+01 EUMP2 =    -0.47231590560787D+03

 The electronic state is 1-A.
 Alpha  occ. eigenvalues --  -11.21655 -11.21628 -11.21585 -11.21459 -11.21444
 Alpha  occ. eigenvalues --  -11.21383 -11.21369 -11.21307 -11.21117 -11.21091
 Alpha  occ. eigenvalues --  -11.21057 -11.21037  -1.08474  -1.08387  -1.03593
 Alpha  occ. eigenvalues --   -1.03473  -0.96036  -0.95940  -0.87065  -0.86946
 Alpha  occ. eigenvalues --   -0.79686  -0.79510  -0.78284  -0.78198  -0.65170
 Alpha  occ. eigenvalues --   -0.64975  -0.61127  -0.60778  -0.59496  -0.59214
 Alpha  occ. eigenvalues --   -0.57704  -0.57476  -0.55348  -0.55210  -0.52767
 Alpha  occ. eigenvalues --   -0.52618  -0.52450  -0.52360  -0.50050  -0.49834
 Alpha  occ. eigenvalues --   -0.47988  -0.47818  -0.46747  -0.46503  -0.45840
 Alpha  occ. eigenvalues --   -0.45765  -0.45719  -0.45587  -0.43807  -0.43717
 Alpha virt. eigenvalues --    0.21034   0.23137   0.23581   0.24811   0.25919
 Alpha virt. eigenvalues --    0.26744   0.27041   0.27061   0.28100   0.29325
 Alpha virt. eigenvalues --    0.30622   0.31408   0.31606   0.31995   0.32071

 Mulliken charges:
               1
     1  C   -0.297434
     2  C   -0.310972
     3  C   -0.475269
     4  H    0.149265
     5  H    0.148551
     6  H    0.150779
     7  H    0.166285
     8  H    0.154244
     9  H    0.155008
    10  H    0.159782
    11  C   -0.299063
    12  C   -0.299593
    13  C   -0.475665
    14  H    0.149693
    15  H    0.149890
    16  H    0.152006
    17  H    0.151621
    18  H    0.155112
    19  H    0.155250
    20  H    0.160145
    21  C   -0.298329
    22  C   -0.299684
    23  C   -0.475731
    24  H    0.149824
    25  H    0.149582
    26  H    0.151998
    27  H    0.151881
    28  H    0.155228
    29  H    0.155257
    30  H    0.160330
    31  C   -0.298380
    32  C   -0.301681
    33  C   -0.480567
    34  H    0.149814
    35  H    0.149464
    36  H    0.152522
    37  H    0.153247
    38  H    0.154811
    39  H    0.156666
    40  H    0.164111
 Sum of Mulliken charges =  -0.00000

 Dipole moment (field-independent basis, Debye):
    X=             -0.0415    Y=             -0.0048    Z=              0.0354  Tot=              0.0548
 Quadrupole moment (field-independent basis, Debye-Ang):
   XX=            -84.8965   YY=            -85.4420   ZZ=            -84.5549
   XY=              0.8359   XZ=             -0.9498   YZ=              0.8893

 Normal termination of Gaussian 16 at Wed May  5 16:53:04 2021.
