 Gaussian 16, Revision A.03,
 Gaussian 16:  EM64L-G16RevA.03 25-Dec-2016

 -------------
 #p 6-31g* mp2
 -------------

 ------------------------------------------------------
 Input file generated by CHIRIPA (05-May-2021 14:53:16)
 ------------------------------------------------------
 Symbolic Z-matrix:
 Charge =  0 Multiplicity = 1

                         Standard orientation:
 ---------------------------------------------------------------------
 Center     Atomic      Atomic             Coordinates (Angstroms)
 Number     Number       Type             X           Y           Z
 ---------------------------------------------------------------------
      1          6           0       -3.825517    0.710733    0.205846
      2          6           0       -5.110249    1.526277    0.056394
      3          6           0       -4.885949    3.025087    0.259008
      4          1           0       -3.400310    0.887768    1.203244
      5          1           0       -3.083310    1.072651   -0.519095
      6          1           0       -5.850285    1.162009    0.780460
      7          1           0       -5.532549    1.347131   -0.940695
      8          1           0       -4.167148    3.409321   -0.471943
      9          1           0       -4.486689    3.223147    1.258991
     10          1           0       -5.817301    3.589056    0.147734
     11          6           0       -4.033569   -0.789446    0.006083
     12          6           0       -2.748837   -1.604991    0.155536
     13          6           0       -2.973137   -3.103800   -0.047079
     14          1           0       -4.775776   -1.151364    0.731024
     15          1           0       -4.458776   -0.966481   -0.991315
     16          1           0       -2.326537   -1.425845    1.152624
     17          1           0       -2.008801   -1.240723   -0.568531
     18          1           0       -3.372397   -3.301861   -1.047061
     19          1           0       -3.691938   -3.488035    0.683873
     20          1           0       -2.041785   -3.667769    0.064196
     21          6           0        5.172730    1.377929    0.276887
     22          6           0        5.119431    0.041132    0.685117
     23          6           0        3.959569   -0.714865    0.490862
     24          6           0        2.866666   -0.099493   -0.117557
     25          6           0        2.888877    1.230295   -0.535240
     26          6           0        4.059245    1.967206   -0.330917
     27          1           0        6.077820    1.957792    0.431699
     28          1           0        5.982653   -0.419123    1.157410
     29          1           0        3.891048   -1.751618    0.797236
     30          1           0        2.012303    1.661557   -1.003268
     31          1           0        4.097781    3.005186   -0.648967
     32          7           0        1.633211   -0.889729   -0.328535
     33          8           0        0.683932   -0.324333   -0.866896
     34          8           0        1.639062   -2.059550    0.048458
 ---------------------------------------------------------------------

 SCF Done:  E(RHF) =  -669.536345808     A.U. after   15 cycles
 E2 =    -0.2091224825D+01 EUMP2 =    -0.67162757063319D+03

 The electronic state is 1-A.
 Alpha  occ. eigenvalues --  -20.61005 -20.60986 -15.86019 -11.31325 -11.27883
 Alpha  occ. eigenvalues --  -11.27880 -11.27617 -11.26886 -11.26876 -11.20835
 Alpha  occ. eigenvalues --  -11.20500 -11.20345 -11.20121 -11.19773 -11.19532
 Alpha  occ. eigenvalues --   -1.60046  -1.39604  -1.19489  -1.08896  -1.07275
 Alpha  occ. eigenvalues --   -1.04882  -1.02345  -0.95741  -0.94858  -0.86283
 Alpha  occ. eigenvalues --   -0.85889  -0.82577  -0.78454  -0.77631  -0.76987
 Alpha  occ. eigenvalues --   -0.72238  -0.71356  -0.70597  -0.65145  -0.64885
 Alpha  occ. eigenvalues --   -0.63919  -0.62229  -0.59752  -0.58265  -0.56411
 Alpha  occ. eigenvalues --   -0.55386  -0.54180  -0.53215  -0.52974  -0.51560
 Alpha  occ. eigenvalues --   -0.51277  -0.49094  -0.48989  -0.48811  -0.46734
 Alpha  occ. eigenvalues --   -0.45489  -0.45047  -0.44558  -0.44309  -0.42603
 Alpha  occ. eigenvalues --   -0.37467  -0.36482
 Alpha virt. eigenvalues --    0.04898   0.11173   0.16400   0.21307   0.23910
 Alpha virt. eigenvalues --    0.25487   0.27229   0.27745   0.28161   0.28739
 Alpha virt. eigenvalues --    0.29085   0.30886   0.32379   0.32500   0.32833

 Mulliken charges:
               1
     1  C   -0.297322
     2  C   -0.298634
     3  C   -0.474735
     4  H    0.146819
     5  H    0.153266
     6  H    0.149941
     7  H    0.150584
     8  H    0.153557
     9  H    0.153317
    10  H    0.157430
    11  C   -0.297837
    12  C   -0.306702
    13  C   -0.476524
    14  H    0.143703
    15  H    0.146077
    16  H    0.146869
    17  H    0.180577
    18  H    0.149949
    19  H    0.146700
    20  H    0.167874
    21  C   -0.170530
    22  C   -0.218594
    23  C   -0.170630
    24  C    0.157937
    25  C   -0.170665
    26  C   -0.218545
    27  H    0.226105
    28  H    0.223916
    29  H    0.275899
    30  H    0.275749
    31  H    0.223959
    32  N    0.489614
    33  O   -0.459900
    34  O   -0.459223
 Sum of Mulliken charges =  -0.00000

 Dipole moment (field-independent basis, Debye):
    X=              4.7726    Y=              2.7625    Z=              0.6618  Tot=              5.5540
 Quadrupole moment (field-independent basis, Debye-Ang):
   XX=            -70.9130   YY=            -94.0809   ZZ=            -93.9062
   XY=              5.6840   XZ=              2.8715   YZ=             -2.5641

 Normal termination of Gaussian 16 at Wed May  5 15:42:33 2021.
