 Gaussian 16, Revision A.03,
 Gaussian 16:  EM64L-G16RevA.03 25-Dec-2016

 -------------
 #p 6-31g* mp2
 -------------

 ------------------------------------------------------
 Input file generated by CHIRIPA (05-May-2021 14:55:23)
 ------------------------------------------------------
 Symbolic Z-matrix:
 Charge =  0 Multiplicity = 1

                         Standard orientation:
 ---------------------------------------------------------------------
 Center     Atomic      Atomic             Coordinates (Angstroms)
 Number     Number       Type             X           Y           Z
 ---------------------------------------------------------------------
      1          6           0       -5.928592   -1.073105   -0.329884
      2          6           0       -4.715564   -1.689312   -0.654497
      3          6           0       -3.511992   -0.985318   -0.552748
      4          6           0       -3.558445    0.339374   -0.121095
      5          6           0       -4.750998    0.981052    0.209597
      6          6           0       -5.942413    0.257764    0.100368
      7          1           0       -6.858835   -1.627479   -0.411830
      8          1           0       -4.701808   -2.722764   -0.988912
      9          1           0       -2.558773   -1.437891   -0.797635
     10          1           0       -4.732859    2.012502    0.540053
     11          1           0       -6.882985    0.738883    0.353139
     12          7           0       -2.290712    1.094874   -0.009418
     13          8           0       -2.358529    2.260870    0.373323
     14          8           0       -1.253250    0.506733   -0.306742
     15          6           0        5.556602   -0.095392    0.287618
     16          6           0        6.317042    0.164055   -1.013306
     17          6           0        7.784851    0.522228   -0.778696
     18          1           0        5.620378    0.796261    0.926237
     19          1           0        6.050306   -0.909105    0.836728
     20          1           0        5.821242    0.976106   -1.560455
     21          1           0        6.251286   -0.728249   -1.648982
     22          1           0        8.300230   -0.288869   -0.254190
     23          1           0        7.867744    1.425169   -0.165160
     24          1           0        8.309548    0.703611   -1.721910
     25          6           0        4.087899   -0.454646    0.069502
     26          6           0        3.327458   -0.714092    1.370426
     27          6           0        1.859648   -1.072265    1.135817
     28          1           0        3.594194    0.359068   -0.479608
     29          1           0        4.024121   -1.346298   -0.569117
     30          1           0        3.393214    0.178212    2.006103
     31          1           0        3.823257   -1.526143    1.917577
     32          1           0        1.776756   -1.975207    0.522281
     33          1           0        1.344269   -0.261168    0.611310
     34          1           0        1.334952   -1.253648    2.079031
 ---------------------------------------------------------------------

 SCF Done:  E(RHF) =  -669.536096059     A.U. after   15 cycles
 E2 =    -0.2090653071D+01 EUMP2 =    -0.67162674912983D+03

 The electronic state is 1-A.
 Alpha  occ. eigenvalues --  -20.60903 -20.60889 -15.85934 -11.31256 -11.27822
 Alpha  occ. eigenvalues --  -11.27813 -11.27562 -11.26830 -11.26820 -11.21014
 Alpha  occ. eigenvalues --  -11.20691 -11.20618 -11.20583 -11.20498 -11.19732
 Alpha  occ. eigenvalues --   -1.59961  -1.39516  -1.19426  -1.08831  -1.07642
 Alpha  occ. eigenvalues --   -1.04822  -1.02700  -0.95674  -0.95132  -0.86224
 Alpha  occ. eigenvalues --   -0.86146  -0.82506  -0.78784  -0.77561  -0.77431
 Alpha  occ. eigenvalues --   -0.72162  -0.71274  -0.70535  -0.65082  -0.64826
 Alpha  occ. eigenvalues --   -0.64273  -0.62169  -0.60090  -0.58549  -0.56748
 Alpha  occ. eigenvalues --   -0.55329  -0.54405  -0.53155  -0.52914  -0.51841
 Alpha  occ. eigenvalues --   -0.51550  -0.49157  -0.48911  -0.48819  -0.47081
 Alpha  occ. eigenvalues --   -0.45822  -0.45023  -0.44951  -0.44784  -0.42970
 Alpha  occ. eigenvalues --   -0.37406  -0.36424
 Alpha virt. eigenvalues --    0.04964   0.11231   0.16451   0.21353   0.23632
 Alpha virt. eigenvalues --    0.25180   0.27268   0.27443   0.28065   0.28314
 Alpha virt. eigenvalues --    0.28988   0.30924   0.32267   0.32317   0.32643

 Mulliken charges:
               1
     1  C   -0.170622
     2  C   -0.218607
     3  C   -0.170708
     4  C    0.157759
     5  C   -0.170632
     6  C   -0.218635
     7  H    0.225844
     8  H    0.223774
     9  H    0.276429
    10  H    0.275716
    11  H    0.223644
    12  N    0.491737
    13  O   -0.459708
    14  O   -0.462795
    15  C   -0.297742
    16  C   -0.299233
    17  C   -0.475295
    18  H    0.149517
    19  H    0.147139
    20  H    0.152843
    21  H    0.150412
    22  H    0.153860
    23  H    0.154972
    24  H    0.158622
    25  C   -0.298354
    26  C   -0.299042
    27  C   -0.483806
    28  H    0.154392
    29  H    0.146583
    30  H    0.151623
    31  H    0.146086
    32  H    0.146284
    33  H    0.184136
    34  H    0.153807
 Sum of Mulliken charges =  -0.00000

 Dipole moment (field-independent basis, Debye):
    X=             -4.7496    Y=             -2.5446    Z=             -0.4538  Tot=              5.4074
 Quadrupole moment (field-independent basis, Debye-Ang):
   XX=            -64.2580   YY=            -92.8703   ZZ=            -95.2463
   XY=              5.6074   XZ=              0.8803   YZ=              1.9159

 Normal termination of Gaussian 16 at Thu May  6 19:15:21 2021.
