 Gaussian 16, Revision A.03,
 Gaussian 16:  EM64L-G16RevA.03 25-Dec-2016

 -------------
 #p 6-31g* mp2
 -------------

 ------------------------------------------------------
 Input file generated by CHIRIPA (05-May-2021 14:57:23)
 ------------------------------------------------------
 Symbolic Z-matrix:
 Charge =  0 Multiplicity = 1

                         Standard orientation:
 ---------------------------------------------------------------------
 Center     Atomic      Atomic             Coordinates (Angstroms)
 Number     Number       Type             X           Y           Z
 ---------------------------------------------------------------------
      1          6           0       -6.328195    0.046196   -0.253235
      2          6           0       -5.709774    0.613845    0.865627
      3          6           0       -4.328758    0.497031    1.049199
      4          6           0       -3.593371   -0.197350    0.089860
      5          6           0       -4.180425   -0.773963   -1.035384
      6          6           0       -5.562896   -0.644678   -1.198503
      7          1           0       -7.401566    0.141784   -0.387894
      8          1           0       -6.301608    1.150946    1.601357
      9          1           0       -3.824325    0.926735    1.906124
     10          1           0       -3.564045   -1.303480   -1.751698
     11          1           0       -6.040479   -1.086544   -2.068396
     12          7           0       -2.130581   -0.327617    0.273374
     13          8           0       -1.505002   -0.944342   -0.586241
     14          8           0       -1.637325    0.189472    1.273351
     15          6           0        5.853252   -1.310374    0.225749
     16          6           0        6.014377    0.019587   -0.176449
     17          6           0        4.902940    0.852191   -0.337766
     18          6           0        3.639287    0.319566   -0.087203
     19          6           0        3.446210   -1.001227    0.314690
     20          6           0        4.571943   -1.815646    0.469605
     21          1           0        6.722196   -1.950097    0.348578
     22          1           0        7.008263    0.414689   -0.366534
     23          1           0        4.998962    1.885580   -0.648099
     24          1           0        2.442838   -1.366615    0.496766
     25          1           0        4.443801   -2.848115    0.782066
     26          7           0        2.455091    1.191381   -0.254593
     27          8           0        1.352465    0.698103   -0.027592
     28          8           0        2.651967    2.351479   -0.609627
 ---------------------------------------------------------------------

 SCF Done:  E(RHF) =  -868.335679278     A.U. after   16 cycles
 E2 =    -0.2600763010D+01 EUMP2 =    -0.87093644228764D+03

 The electronic state is 1-A.
 Alpha  occ. eigenvalues --  -20.59761 -20.59729 -20.59408 -20.59228 -15.84812
 Alpha  occ. eigenvalues --  -15.84352 -11.30503 -11.30087 -11.27117 -11.27100
 Alpha  occ. eigenvalues --  -11.26919 -11.26761 -11.26627 -11.26568 -11.26206
 Alpha  occ. eigenvalues --  -11.26192 -11.25853 -11.25791  -1.58785  -1.58408
 Alpha  occ. eigenvalues --   -1.38345  -1.37938  -1.18703  -1.18312  -1.08036
 Alpha  occ. eigenvalues --   -1.07653  -1.04157  -1.03763  -0.94823  -0.94410
 Alpha  occ. eigenvalues --   -0.85541  -0.85145  -0.81662  -0.81228  -0.76648
 Alpha  occ. eigenvalues --   -0.76206  -0.71028  -0.70618  -0.70068  -0.69814
 Alpha  occ. eigenvalues --   -0.69750  -0.69417  -0.64354  -0.64170  -0.63944
 Alpha  occ. eigenvalues --   -0.63779  -0.61504  -0.61092  -0.54650  -0.54282
 Alpha  occ. eigenvalues --   -0.52465  -0.52258  -0.52087  -0.51859  -0.47869
 Alpha  occ. eigenvalues --   -0.47751  -0.47317  -0.47268  -0.43720  -0.43213
 Alpha  occ. eigenvalues --   -0.36702  -0.36334  -0.35775  -0.35386
 Alpha virt. eigenvalues --    0.05904   0.06316   0.11874   0.12262   0.17337
 Alpha virt. eigenvalues --    0.17726   0.21952   0.22336   0.27838   0.28224
 Alpha virt. eigenvalues --    0.28870   0.29305   0.31472   0.31852   0.33124

 Mulliken charges:
               1
     1  C   -0.171919
     2  C   -0.218508
     3  C   -0.170982
     4  C    0.160543
     5  C   -0.171321
     6  C   -0.218502
     7  H    0.223137
     8  H    0.221505
     9  H    0.275706
    10  H    0.274262
    11  H    0.221047
    12  N    0.489444
    13  O   -0.460012
    14  O   -0.453000
    15  C   -0.172130
    16  C   -0.219117
    17  C   -0.172121
    18  C    0.157608
    19  C   -0.171860
    20  C   -0.219417
    21  H    0.221533
    22  H    0.219399
    23  H    0.272999
    24  H    0.286262
    25  H    0.220966
    26  N    0.486247
    27  O   -0.440012
    28  O   -0.471759
 Sum of Mulliken charges =  -0.00000

 Dipole moment (field-independent basis, Debye):
    X=             -1.1998    Y=             -2.6502    Z=              0.0343  Tot=              2.9093
 Quadrupole moment (field-independent basis, Debye-Ang):
   XX=            -40.2444   YY=           -104.1944   ZZ=           -102.2042
   XY=             -8.5889   XZ=              2.5318   YZ=              2.1484

 Normal termination of Gaussian 16 at Fri May  7 12:32:14 2021.
