 Gaussian 16, Revision A.03,
 Gaussian 16:  EM64L-G16RevA.03 25-Dec-2016

 -------------
 #p 6-31g* mp2
 -------------

 ------------------------------------------------------
 Input file generated by CHIRIPA (05-May-2021 14:51:11)
 ------------------------------------------------------
 Symbolic Z-matrix:
 Charge =  0 Multiplicity = 1

                         Standard orientation:
 ---------------------------------------------------------------------
 Center     Atomic      Atomic             Coordinates (Angstroms)
 Number     Number       Type             X           Y           Z
 ---------------------------------------------------------------------
      1          6           0        3.669633   -0.139901    0.109918
      2          6           0        4.596699   -0.212405   -1.103868
      3          6           0        5.764659    0.770348   -1.015200
      4          1           0        3.282798    0.883736    0.207234
      5          1           0        4.251729   -0.341882    1.019732
      6          1           0        4.012751   -0.011711   -2.011250
      7          1           0        4.981221   -1.236035   -1.198418
      8          1           0        6.371699    0.568111   -0.126828
      9          1           0        5.397725    1.799391   -0.944278
     10          1           0        6.414645    0.701679   -1.893074
     11          6           0        2.497196   -1.116449    0.035928
     12          6           0        1.570130   -1.043946    1.249714
     13          6           0        0.402170   -2.026698    1.161046
     14          1           0        1.915099   -0.914468   -0.873886
     15          1           0        2.884031   -2.140086   -0.061388
     16          1           0        1.185607   -0.020315    1.344264
     17          1           0        2.154078   -1.244639    2.157096
     18          1           0        0.769103   -3.055742    1.090125
     19          1           0       -0.204870   -1.824461    0.272674
     20          1           0       -0.247816   -1.958030    2.038920
     21          6           0       -2.566837    1.175879   -0.201764
     22          6           0       -1.641828    1.429211    0.989104
     23          6           0       -0.613888    2.527643    0.716007
     24          1           0       -1.961146    0.903820   -1.077015
     25          1           0       -3.086055    2.109509   -0.458945
     26          1           0       -1.125544    0.495043    1.244838
     27          1           0       -2.249804    1.700512    1.861672
     28          1           0       -1.113521    3.473351    0.482333
     29          1           0        0.017127    2.261034   -0.138007
     30          1           0        0.036937    2.692320    1.580396
     31          6           0       -3.599992    0.080471    0.055917
     32          6           0       -4.525002   -0.172861   -1.134950
     33          6           0       -5.552940   -1.271293   -0.861853
     34          1           0       -3.080773   -0.853159    0.313099
     35          1           0       -4.205682    0.352530    0.931169
     36          1           0       -3.917025   -0.444162   -2.007519
     37          1           0       -5.041285    0.761307   -1.390684
     38          1           0       -6.183955   -1.004683   -0.007839
     39          1           0       -5.053307   -2.217001   -0.628179
     40          1           0       -6.203767   -1.435970   -1.726242
 ---------------------------------------------------------------------

 SCF Done:  E(RHF) =  -470.732654179     A.U. after   11 cycles
 E2 =    -0.1584267038D+01 EUMP2 =    -0.47231692121737D+03

 The electronic state is 1-A.
 Alpha  occ. eigenvalues --  -11.21614 -11.21609 -11.21592 -11.21535 -11.21430
 Alpha  occ. eigenvalues --  -11.21395 -11.21367 -11.21334 -11.21157 -11.21120
 Alpha  occ. eigenvalues --  -11.21075 -11.21057  -1.08486  -1.08398  -1.03627
 Alpha  occ. eigenvalues --   -1.03475  -0.96030  -0.95983  -0.87058  -0.86981
 Alpha  occ. eigenvalues --   -0.79638  -0.79584  -0.78289  -0.78219  -0.65367
 Alpha  occ. eigenvalues --   -0.64855  -0.61336  -0.60586  -0.59463  -0.59259
 Alpha  occ. eigenvalues --   -0.57693  -0.57526  -0.55322  -0.55273  -0.52741
 Alpha  occ. eigenvalues --   -0.52651  -0.52474  -0.52381  -0.50018  -0.49875
 Alpha  occ. eigenvalues --   -0.47945  -0.47902  -0.46749  -0.46513  -0.45879
 Alpha  occ. eigenvalues --   -0.45754  -0.45742  -0.45559  -0.43815  -0.43780
 Alpha virt. eigenvalues --    0.19975   0.22734   0.23829   0.24582   0.26132
 Alpha virt. eigenvalues --    0.26305   0.26706   0.27724   0.29154   0.29549
 Alpha virt. eigenvalues --    0.31086   0.31601   0.31689   0.32140   0.32228

 Mulliken charges:
               1
     1  C   -0.299089
     2  C   -0.299626
     3  C   -0.475767
     4  H    0.150600
     5  H    0.149624
     6  H    0.151781
     7  H    0.151929
     8  H    0.155197
     9  H    0.155419
    10  H    0.160272
    11  C   -0.297480
    12  C   -0.308309
    13  C   -0.480523
    14  H    0.148669
    15  H    0.149728
    16  H    0.161131
    17  H    0.152310
    18  H    0.157094
    19  H    0.155885
    20  H    0.161027
    21  C   -0.297199
    22  C   -0.311067
    23  C   -0.477007
    24  H    0.148358
    25  H    0.149457
    26  H    0.165551
    27  H    0.151748
    28  H    0.155966
    29  H    0.154318
    30  H    0.160184
    31  C   -0.300708
    32  C   -0.299516
    33  C   -0.475757
    34  H    0.151876
    35  H    0.149643
    36  H    0.151639
    37  H    0.151871
    38  H    0.155147
    39  H    0.155448
    40  H    0.160176
 Sum of Mulliken charges =  -0.00000

 Dipole moment (field-independent basis, Debye):
    X=              0.0157    Y=             -0.0137    Z=              0.0289  Tot=              0.0357
 Quadrupole moment (field-independent basis, Debye-Ang):
   XX=            -85.5112   YY=            -84.8423   ZZ=            -84.4419
   XY=             -2.0359   XZ=              0.1307   YZ=             -0.0067

 Normal termination of Gaussian 16 at Wed May  5 21:27:08 2021.
