 Gaussian 16, Revision A.03,
 Gaussian 16:  EM64L-G16RevA.03 25-Dec-2016

 -------------
 #p 6-31g* mp2
 -------------

 ------------------------------------------------------
 Input file generated by CHIRIPA (05-May-2021 14:55:20)
 ------------------------------------------------------
 Symbolic Z-matrix:
 Charge =  0 Multiplicity = 1

                         Standard orientation:
 ---------------------------------------------------------------------
 Center     Atomic      Atomic             Coordinates (Angstroms)
 Number     Number       Type             X           Y           Z
 ---------------------------------------------------------------------
      1          6           0       -3.890039   -2.421007    0.178832
      2          6           0       -4.808101   -1.541434    0.761957
      3          6           0       -4.619385   -0.158806    0.676662
      4          6           0       -3.496565    0.311876   -0.002325
      5          6           0       -2.564012   -0.538944   -0.593712
      6          6           0       -2.772894   -1.917842   -0.495952
      7          1           0       -4.044471   -3.493617    0.249933
      8          1           0       -5.676595   -1.929365    1.286621
      9          1           0       -5.314353    0.544648    1.118917
     10          1           0       -1.707786   -0.122381   -1.110211
     11          1           0       -2.058263   -2.598570   -0.949778
     12          7           0       -3.286106    1.773628   -0.099221
     13          8           0       -2.288852    2.163094   -0.702908
     14          8           0       -4.122386    2.502203    0.430353
     15          6           0        3.807996    0.170089    0.074185
     16          6           0        2.753956   -0.682869   -0.632532
     17          6           0        1.334535   -0.148139   -0.439917
     18          1           0        3.574371    0.216117    1.146680
     19          1           0        3.748991    1.200427   -0.303067
     20          1           0        2.815857   -1.711606   -0.255059
     21          1           0        2.990225   -0.727031   -1.703439
     22          1           0        1.249704    0.869963   -0.833456
     23          1           0        1.074344   -0.120207    0.623154
     24          1           0        0.597045   -0.772889   -0.953393
     25          6           0        5.232008   -0.351751   -0.109115
     26          6           0        6.286047    0.501208    0.597602
     27          6           0        7.705468   -0.033522    0.404987
     28          1           0        5.291013   -1.382088    0.268136
     29          1           0        5.465633   -0.397779   -1.181610
     30          1           0        6.049778    0.545368    1.668509
     31          1           0        6.224147    1.529944    0.220129
     32          1           0        7.965659   -0.061454   -0.658085
     33          1           0        7.790299   -1.051624    0.798525
     34          1           0        8.442959    0.591227    0.918462
 ---------------------------------------------------------------------

 SCF Done:  E(RHF) =  -669.535353880     A.U. after   15 cycles
 E2 =    -0.2091223927D+01 EUMP2 =    -0.67162657780772D+03

 The electronic state is 1-A.
 Alpha  occ. eigenvalues --  -20.60710 -20.60704 -15.85761 -11.31106 -11.27699
 Alpha  occ. eigenvalues --  -11.27637 -11.27448 -11.26712 -11.26697 -11.21789
 Alpha  occ. eigenvalues --  -11.21601 -11.21457 -11.21397 -11.21334 -11.21075
 Alpha  occ. eigenvalues --   -1.59783  -1.39336  -1.19291  -1.08692  -1.08504
 Alpha  occ. eigenvalues --   -1.04697  -1.03633  -0.96094  -0.95524  -0.87120
 Alpha  occ. eigenvalues --   -0.86089  -0.82361  -0.79702  -0.78302  -0.77401
 Alpha  occ. eigenvalues --   -0.71982  -0.71105  -0.70412  -0.65127  -0.64948
 Alpha  occ. eigenvalues --   -0.64709  -0.62096  -0.61016  -0.59466  -0.57696
 Alpha  occ. eigenvalues --   -0.55348  -0.55212  -0.53111  -0.52960  -0.52546
 Alpha  occ. eigenvalues --   -0.52500  -0.49999  -0.48739  -0.48734  -0.48006
 Alpha  occ. eigenvalues --   -0.46706  -0.45847  -0.45760  -0.44745  -0.43898
 Alpha  occ. eigenvalues --   -0.37281  -0.36286
 Alpha virt. eigenvalues --    0.05113   0.11340   0.16592   0.20667   0.22858
 Alpha virt. eigenvalues --    0.24057   0.26046   0.26619   0.27392   0.27977
 Alpha virt. eigenvalues --    0.28925   0.30333   0.31394   0.31702   0.32325

 Mulliken charges:
               1
     1  C   -0.170722
     2  C   -0.218981
     3  C   -0.170717
     4  C    0.157665
     5  C   -0.173890
     6  C   -0.220459
     7  H    0.225246
     8  H    0.223114
     9  H    0.275297
    10  H    0.283444
    11  H    0.222871
    12  N    0.488054
    13  O   -0.460515
    14  O   -0.460848
    15  C   -0.299259
    16  C   -0.299966
    17  C   -0.477562
    18  H    0.150576
    19  H    0.153109
    20  H    0.149397
    21  H    0.152261
    22  H    0.168884
    23  H    0.158876
    24  H    0.143822
    25  C   -0.298389
    26  C   -0.299889
    27  C   -0.475761
    28  H    0.148432
    29  H    0.149719
    30  H    0.152282
    31  H    0.153363
    32  H    0.155209
    33  H    0.154562
    34  H    0.160775
 Sum of Mulliken charges =  -0.00000

 Dipole moment (field-independent basis, Debye):
    X=             -0.6362    Y=             -5.0462    Z=              0.3673  Tot=              5.0994
 Quadrupole moment (field-independent basis, Debye-Ang):
   XX=            -87.3447   YY=            -98.2999   ZZ=            -93.3980
   XY=             17.8068   XZ=             -3.8004   YZ=             -0.0061

 Normal termination of Gaussian 16 at Wed May  5 22:08:35 2021.
