 Gaussian 16, Revision A.03,
 Gaussian 16:  EM64L-G16RevA.03 25-Dec-2016

 -------------
 #p 6-31g* mp2
 -------------

 ------------------------------------------------------
 Input file generated by CHIRIPA (05-May-2021 14:55:24)
 ------------------------------------------------------
 Symbolic Z-matrix:
 Charge =  0 Multiplicity = 1

                         Standard orientation:
 ---------------------------------------------------------------------
 Center     Atomic      Atomic             Coordinates (Angstroms)
 Number     Number       Type             X           Y           Z
 ---------------------------------------------------------------------
      1          6           0       -5.021138   -0.885609   -0.733861
      2          6           0       -4.867067    0.423722   -0.266489
      3          6           0       -3.636443    0.858578    0.234520
      4          6           0       -2.576308   -0.046432    0.253497
      5          6           0       -2.698385   -1.357232   -0.204969
      6          6           0       -3.938214   -1.770347   -0.701666
      7          1           0       -5.980691   -1.214972   -1.121383
      8          1           0       -5.706340    1.112996   -0.290281
      9          1           0       -3.489437    1.866676    0.602686
     10          1           0       -1.843426   -2.021409   -0.168486
     11          1           0       -4.054961   -2.787771   -1.063969
     12          7           0       -1.268628    0.402423    0.781611
     13          8           0       -0.350124   -0.414247    0.787552
     14          8           0       -1.186935    1.562407    1.179606
     15          6           0        3.509914   -0.544030    0.090194
     16          6           0        4.659024   -1.477853   -0.291258
     17          6           0        4.517560   -2.870829    0.323072
     18          1           0        3.461595   -0.460515    1.184559
     19          1           0        2.559839   -0.992806   -0.231288
     20          1           0        5.606763   -1.026803    0.029614
     21          1           0        4.704734   -1.559003   -1.384848
     22          1           0        3.587252   -3.344590   -0.006593
     23          1           0        4.494407   -2.809366    1.415906
     24          1           0        5.349612   -3.521957    0.037448
     25          6           0        3.637168    0.852276   -0.516326
     26          6           0        2.488059    1.786100   -0.134874
     27          6           0        2.629522    3.179075   -0.749204
     28          1           0        4.587244    1.301052   -0.194844
     29          1           0        3.685488    0.768761   -1.610691
     30          1           0        2.442348    1.867250    0.958717
     31          1           0        1.540319    1.335049   -0.455747
     32          1           0        2.652675    3.117612   -1.842039
     33          1           0        3.559830    3.652836   -0.419539
     34          1           0        1.797471    3.830204   -0.463580
 ---------------------------------------------------------------------

 SCF Done:  E(RHF) =  -669.536013989     A.U. after   15 cycles
 E2 =    -0.2092054679D+01 EUMP2 =    -0.67162806866838D+03

 The electronic state is 1-A.
 Alpha  occ. eigenvalues --  -20.61013 -20.61006 -15.86024 -11.31345 -11.27906
 Alpha  occ. eigenvalues --  -11.27900 -11.27638 -11.26907 -11.26897 -11.20577
 Alpha  occ. eigenvalues --  -11.20242 -11.20020 -11.19917 -11.19806 -11.19717
 Alpha  occ. eigenvalues --   -1.60060  -1.39616  -1.19510  -1.08915  -1.07071
 Alpha  occ. eigenvalues --   -1.04903  -1.02252  -0.95756  -0.94751  -0.86304
 Alpha  occ. eigenvalues --   -0.85780  -0.82593  -0.78298  -0.77646  -0.76800
 Alpha  occ. eigenvalues --   -0.72235  -0.71379  -0.70617  -0.65164  -0.64905
 Alpha  occ. eigenvalues --   -0.63722  -0.62250  -0.59673  -0.58125  -0.56315
 Alpha  occ. eigenvalues --   -0.55406  -0.54072  -0.53237  -0.52994  -0.51487
 Alpha  occ. eigenvalues --   -0.51167  -0.49073  -0.49002  -0.48725  -0.46586
 Alpha  occ. eigenvalues --   -0.45333  -0.45098  -0.44342  -0.44125  -0.42481
 Alpha  occ. eigenvalues --   -0.37484  -0.36504
 Alpha virt. eigenvalues --    0.04839   0.11152   0.16331   0.21278   0.24121
 Alpha virt. eigenvalues --    0.25476   0.27206   0.27824   0.28210   0.28903
 Alpha virt. eigenvalues --    0.29249   0.30919   0.32407   0.32540   0.32945

 Mulliken charges:
               1
     1  C   -0.170502
     2  C   -0.218575
     3  C   -0.170729
     4  C    0.159030
     5  C   -0.170848
     6  C   -0.218544
     7  H    0.226201
     8  H    0.224024
     9  H    0.275974
    10  H    0.275598
    11  H    0.224006
    12  N    0.488383
    13  O   -0.460023
    14  O   -0.458351
    15  C   -0.297616
    16  C   -0.298997
    17  C   -0.473892
    18  H    0.151871
    19  H    0.159804
    20  H    0.148625
    21  H    0.147431
    22  H    0.153113
    23  H    0.155249
    24  H    0.155546
    25  C   -0.299356
    26  C   -0.295078
    27  C   -0.476847
    28  H    0.143485
    29  H    0.142343
    30  H    0.158174
    31  H    0.161811
    32  H    0.147636
    33  H    0.149459
    34  H    0.161594
 Sum of Mulliken charges =  -0.00000

 Dipole moment (field-independent basis, Debye):
    X=             -5.0327    Y=             -1.6078    Z=             -1.6948  Tot=              5.5485
 Quadrupole moment (field-independent basis, Debye-Ang):
   XX=            -72.0339   YY=            -92.3308   ZZ=            -96.0073
   XY=              2.5411   XZ=              4.3480   YZ=              1.6106

 Normal termination of Gaussian 16 at Wed May  5 20:45:39 2021.
