 Gaussian 16, Revision A.03,
 Gaussian 16:  EM64L-G16RevA.03 25-Dec-2016

 -------------
 #p 6-31g* mp2
 -------------

 ------------------------------------------------------
 Input file generated by CHIRIPA (05-May-2021 14:53:15)
 ------------------------------------------------------
 Symbolic Z-matrix:
 Charge =  0 Multiplicity = 1

                         Standard orientation:
 ---------------------------------------------------------------------
 Center     Atomic      Atomic             Coordinates (Angstroms)
 Number     Number       Type             X           Y           Z
 ---------------------------------------------------------------------
      1          6           0       -3.330239    0.760850   -0.061689
      2          6           0       -3.469459    2.225292    0.355461
      3          6           0       -2.171553    3.014963    0.183261
      4          1           0       -2.532636    0.291755    0.530531
      5          1           0       -3.008470    0.714840   -1.111329
      6          1           0       -3.792207    2.268514    1.403593
      7          1           0       -4.266953    2.690904   -0.237687
      8          1           0       -1.848373    3.001607   -0.862672
      9          1           0       -1.370928    2.576816    0.787934
     10          1           0       -2.293627    4.059236    0.487320
     11          6           0       -4.619443   -0.041644    0.104693
     12          6           0       -4.480222   -1.506086   -0.312457
     13          6           0       -5.778129   -2.295757   -0.140258
     14          1           0       -4.941212    0.004366    1.154332
     15          1           0       -5.417046    0.427451   -0.487528
     16          1           0       -3.682728   -1.971698    0.280691
     17          1           0       -4.157475   -1.549308   -1.360590
     18          1           0       -6.578753   -1.857611   -0.744931
     19          1           0       -6.101309   -2.282401    0.905675
     20          1           0       -5.656055   -3.340030   -0.444316
     21          6           0        0.609675   -0.651235    0.004129
     22          6           0        1.476341   -1.705348    0.311141
     23          6           0        2.860882   -1.511636    0.302646
     24          6           0        3.346617   -0.245142   -0.018821
     25          6           0        2.508887    0.824985   -0.329191
     26          6           0        1.127800    0.608346   -0.314495
     27          1           0       -0.464528   -0.810620    0.013137
     28          1           0        1.076778   -2.684623    0.558960
     29          1           0        3.554547   -2.310147    0.536367
     30          1           0        2.936902    1.789925   -0.572318
     31          1           0        0.457118    1.428823   -0.553340
     32          7           0        4.810539   -0.027931   -0.031097
     33          8           0        5.213389    1.097350   -0.317612
     34          8           0        5.527392   -0.987076    0.246029
 ---------------------------------------------------------------------

 SCF Done:  E(RHF) =  -669.535433659     A.U. after   15 cycles
 E2 =    -0.2092289219D+01 EUMP2 =    -0.67162772287789D+03

 The electronic state is 1-A.
 Alpha  occ. eigenvalues --  -20.60678 -20.60673 -15.85730 -11.31071 -11.27643
 Alpha  occ. eigenvalues --  -11.27624 -11.27313 -11.26644 -11.26570 -11.22734
 Alpha  occ. eigenvalues --  -11.22674 -11.22619 -11.22406 -11.22283 -11.21868
 Alpha  occ. eigenvalues --   -1.59755  -1.39309  -1.19235  -1.09559  -1.08628
 Alpha  occ. eigenvalues --   -1.04647  -1.04575  -0.97053  -0.95472  -0.88068
 Alpha  occ. eigenvalues --   -0.86030  -0.82307  -0.80674  -0.79413  -0.77358
 Alpha  occ. eigenvalues --   -0.71949  -0.71078  -0.70347  -0.66175  -0.64881
 Alpha  occ. eigenvalues --   -0.64646  -0.62040  -0.61933  -0.60398  -0.58683
 Alpha  occ. eigenvalues --   -0.56364  -0.55148  -0.53693  -0.53510  -0.52966
 Alpha  occ. eigenvalues --   -0.52651  -0.50977  -0.48973  -0.48706  -0.48688
 Alpha  occ. eigenvalues --   -0.47692  -0.46903  -0.46824  -0.44856  -0.44720
 Alpha  occ. eigenvalues --   -0.37207  -0.36240
 Alpha virt. eigenvalues --    0.05162   0.11333   0.16629   0.19637   0.22333
 Alpha virt. eigenvalues --    0.22930   0.24666   0.25684   0.26046   0.28611
 Alpha virt. eigenvalues --    0.30015   0.30322   0.30550   0.31529   0.31608

 Mulliken charges:
               1
     1  C   -0.306541
     2  C   -0.298821
     3  C   -0.484249
     4  H    0.144969
     5  H    0.149646
     6  H    0.156446
     7  H    0.156913
     8  H    0.153377
     9  H    0.155165
    10  H    0.168107
    11  C   -0.297941
    12  C   -0.301051
    13  C   -0.476173
    14  H    0.152797
    15  H    0.153988
    16  H    0.146581
    17  H    0.152915
    18  H    0.157891
    19  H    0.157132
    20  H    0.162293
    21  C   -0.178621
    22  C   -0.219471
    23  C   -0.171059
    24  C    0.158501
    25  C   -0.172213
    26  C   -0.227087
    27  H    0.234213
    28  H    0.223011
    29  H    0.275015
    30  H    0.275512
    31  H    0.232273
    32  N    0.488038
    33  O   -0.460696
    34  O   -0.460861
 Sum of Mulliken charges =  -0.00000

 Dipole moment (field-independent basis, Debye):
    X=             -5.5211    Y=             -0.6712    Z=              0.0572  Tot=              5.5620
 Quadrupole moment (field-independent basis, Debye-Ang):
   XX=           -129.1600   YY=            -89.8293   ZZ=            -94.3350
   XY=             -2.9706   XZ=              0.7203   YZ=             -1.5253

 Normal termination of Gaussian 16 at Wed May  5 15:37:51 2021.
