 Gaussian 16, Revision A.03,
 Gaussian 16:  EM64L-G16RevA.03 25-Dec-2016

 -------------
 #p 6-31g* mp2
 -------------

 ------------------------------------------------------
 Input file generated by CHIRIPA (05-May-2021 14:51:14)
 ------------------------------------------------------
 Symbolic Z-matrix:
 Charge =  0 Multiplicity = 1

                         Standard orientation:
 ---------------------------------------------------------------------
 Center     Atomic      Atomic             Coordinates (Angstroms)
 Number     Number       Type             X           Y           Z
 ---------------------------------------------------------------------
      1          6           0       -2.720713    1.014123   -0.121288
      2          6           0       -3.040322    2.493357    0.097118
      3          6           0       -1.832304    3.400330   -0.139285
      4          1           0       -1.902258    0.719428    0.549705
      5          1           0       -2.350543    0.873607   -1.146288
      6          1           0       -3.411087    2.630823    1.120960
      7          1           0       -3.858241    2.784517   -0.574337
      8          1           0       -1.464535    3.292615   -1.164830
      9          1           0       -1.014841    3.138048    0.540099
     10          1           0       -2.083133    4.453337    0.022339
     11          6           0       -3.918409    0.094793    0.111272
     12          6           0       -3.598799   -1.384441   -0.107134
     13          6           0       -4.806818   -2.291414    0.129269
     14          1           0       -4.288579    0.235310    1.136272
     15          1           0       -4.736864    0.389488   -0.559721
     16          1           0       -2.780881   -1.675601    0.564321
     17          1           0       -3.228035   -1.521907   -1.130976
     18          1           0       -5.624281   -2.029132   -0.550115
     19          1           0       -5.174587   -2.183699    1.154815
     20          1           0       -4.555988   -3.344420   -0.032354
     21          6           0        2.653436   -0.712236    0.343852
     22          6           0        1.684438   -1.483186   -0.553179
     23          6           0        0.356282   -1.791404    0.138772
     24          1           0        2.840311   -1.294447    1.256568
     25          1           0        2.178938    0.225973    0.663248
     26          1           0        2.161149   -2.419014   -0.871910
     27          1           0        1.499998   -0.899157   -1.463952
     28          1           0       -0.143919   -0.865996    0.442121
     29          1           0        0.520989   -2.394488    1.037528
     30          1           0       -0.321320   -2.342943   -0.520409
     31          6           0        3.985687   -0.396681   -0.333837
     32          6           0        4.954683    0.374270    0.563194
     33          6           0        6.282840    0.682487   -0.128757
     34          1           0        4.460183   -1.334889   -0.653232
     35          1           0        3.798810    0.185531   -1.246553
     36          1           0        5.139125   -0.209759    1.473968
     37          1           0        4.477974    1.310098    0.881925
     38          1           0        6.118133    1.285572   -1.027512
     39          1           0        6.783041   -0.242920   -0.432105
     40          1           0        6.960442    1.234027    0.530425
 ---------------------------------------------------------------------

 SCF Done:  E(RHF) =  -470.732663790     A.U. after   11 cycles
 E2 =    -0.1583477532D+01 EUMP2 =    -0.47231614132166D+03

 The electronic state is 1-A.
 Alpha  occ. eigenvalues --  -11.21617 -11.21586 -11.21552 -11.21509 -11.21397
 Alpha  occ. eigenvalues --  -11.21382 -11.21333 -11.21323 -11.21110 -11.21058
 Alpha  occ. eigenvalues --  -11.21023 -11.20961  -1.08435  -1.08390  -1.03524
 Alpha  occ. eigenvalues --   -1.03486  -0.95981  -0.95940  -0.86997  -0.86963
 Alpha  occ. eigenvalues --   -0.79640  -0.79527  -0.78295  -0.78145  -0.65108
 Alpha  occ. eigenvalues --   -0.64988  -0.60915  -0.60897  -0.59430  -0.59229
 Alpha  occ. eigenvalues --   -0.57661  -0.57489  -0.55346  -0.55167  -0.52748
 Alpha  occ. eigenvalues --   -0.52596  -0.52437  -0.52316  -0.49986  -0.49852
 Alpha  occ. eigenvalues --   -0.47965  -0.47832  -0.46716  -0.46603  -0.45893
 Alpha  occ. eigenvalues --   -0.45734  -0.45709  -0.45346  -0.43790  -0.43694
 Alpha virt. eigenvalues --    0.21809   0.23123   0.24058   0.24111   0.25344
 Alpha virt. eigenvalues --    0.26675   0.26893   0.27693   0.27800   0.29553
 Alpha virt. eigenvalues --    0.30237   0.30984   0.31787   0.31826   0.32240

 Mulliken charges:
               1
     1  C   -0.302900
     2  C   -0.298983
     3  C   -0.475659
     4  H    0.153806
     5  H    0.149515
     6  H    0.151956
     7  H    0.152106
     8  H    0.155048
     9  H    0.154349
    10  H    0.160526
    11  C   -0.298132
    12  C   -0.303788
    13  C   -0.475631
    14  H    0.149187
    15  H    0.149362
    16  H    0.159538
    17  H    0.151206
    18  H    0.154716
    19  H    0.154919
    20  H    0.160007
    21  C   -0.298330
    22  C   -0.300021
    23  C   -0.482128
    24  H    0.149392
    25  H    0.149097
    26  H    0.151478
    27  H    0.151898
    28  H    0.161289
    29  H    0.153663
    30  H    0.162584
    31  C   -0.298235
    32  C   -0.299631
    33  C   -0.475690
    34  H    0.149469
    35  H    0.149726
    36  H    0.151815
    37  H    0.151937
    38  H    0.155217
    39  H    0.155131
    40  H    0.160194
 Sum of Mulliken charges =  -0.00000

 Dipole moment (field-independent basis, Debye):
    X=             -0.0169    Y=              0.0001    Z=              0.0032  Tot=              0.0172
 Quadrupole moment (field-independent basis, Debye-Ang):
   XX=            -86.3629   YY=            -84.7490   ZZ=            -83.8397
   XY=             -1.2712   XZ=              0.8285   YZ=             -0.1948

 Normal termination of Gaussian 16 at Thu May  6 05:36:39 2021.
