 Gaussian 16, Revision A.03,
 Gaussian 16:  EM64L-G16RevA.03 25-Dec-2016

 -------------
 #p 6-31g* mp2
 -------------

 ------------------------------------------------------
 Input file generated by CHIRIPA (05-May-2021 14:55:20)
 ------------------------------------------------------
 Symbolic Z-matrix:
 Charge =  0 Multiplicity = 1

                         Standard orientation:
 ---------------------------------------------------------------------
 Center     Atomic      Atomic             Coordinates (Angstroms)
 Number     Number       Type             X           Y           Z
 ---------------------------------------------------------------------
      1          6           0        1.414421    1.997829    0.885691
      2          6           0        2.371090    2.403257   -0.050756
      3          6           0        3.327316    1.500473   -0.525267
      4          6           0        3.297617    0.194087   -0.039714
      5          6           0        2.357288   -0.240089    0.893325
      6          6           0        1.410580    0.679774    1.353917
      7          1           0        0.675299    2.705767    1.248897
      8          1           0        2.376466    3.426246   -0.416148
      9          1           0        4.079252    1.787662   -1.250203
     10          1           0        2.377142   -1.266505    1.239003
     11          1           0        0.668804    0.362116    2.081177
     12          7           0        4.304893   -0.770691   -0.534690
     13          8           0        4.257441   -1.916003   -0.091244
     14          8           0        5.122773   -0.363302   -1.356726
     15          6           0       -4.646542   -0.096592    0.170001
     16          6           0       -5.639600    0.139864   -0.968380
     17          6           0       -6.911088    0.851714   -0.505368
     18          1           0       -5.134262   -0.688667    0.956463
     19          1           0       -4.382869    0.868829    0.623690
     20          1           0       -5.900259   -0.825584   -1.420684
     21          1           0       -5.149400    0.731282   -1.752309
     22          1           0       -6.670151    1.828133   -0.072753
     23          1           0       -7.425277    0.262421    0.260755
     24          1           0       -7.607004    1.010626   -1.335012
     25          6           0       -3.370370   -0.807327   -0.277174
     26          6           0       -2.377313   -1.043784    0.861207
     27          6           0       -1.105823   -1.755634    0.398195
     28          1           0       -3.634043   -1.772748   -0.730863
     29          1           0       -2.882651   -0.215253   -1.063636
     30          1           0       -2.867512   -1.635202    1.645136
     31          1           0       -2.116653   -0.078335    1.313512
     32          1           0       -0.591635   -1.166341   -0.367928
     33          1           0       -1.346761   -2.732053   -0.034420
     34          1           0       -0.409908   -1.914546    1.227838
 ---------------------------------------------------------------------

 SCF Done:  E(RHF) =  -669.534813176     A.U. after   15 cycles
 E2 =    -0.2092293127D+01 EUMP2 =    -0.67162710630280D+03

 The electronic state is 1-A.
 Alpha  occ. eigenvalues --  -20.60743 -20.60738 -15.85796 -11.31167 -11.27729
 Alpha  occ. eigenvalues --  -11.27717 -11.27478 -11.26758 -11.26724 -11.22301
 Alpha  occ. eigenvalues --  -11.22007 -11.21924 -11.21852 -11.21653 -11.21436
 Alpha  occ. eigenvalues --   -1.59818  -1.39371  -1.19343  -1.08957  -1.08736
 Alpha  occ. eigenvalues --   -1.04756  -1.04046  -0.96491  -0.95570  -0.87508
 Alpha  occ. eigenvalues --   -0.86140  -0.82402  -0.80122  -0.78759  -0.77448
 Alpha  occ. eigenvalues --   -0.72014  -0.71141  -0.70452  -0.65602  -0.64996
 Alpha  occ. eigenvalues --   -0.64748  -0.62178  -0.61412  -0.59852  -0.58100
 Alpha  occ. eigenvalues --   -0.55786  -0.55243  -0.53317  -0.52985  -0.52912
 Alpha  occ. eigenvalues --   -0.52769  -0.50390  -0.48774  -0.48768  -0.48436
 Alpha  occ. eigenvalues --   -0.47153  -0.46298  -0.46221  -0.44775  -0.44317
 Alpha  occ. eigenvalues --   -0.37331  -0.36283
 Alpha virt. eigenvalues --    0.05083   0.11238   0.16524   0.20004   0.22599
 Alpha virt. eigenvalues --    0.23930   0.25847   0.25956   0.26759   0.28016
 Alpha virt. eigenvalues --    0.28638   0.30342   0.30819   0.31270   0.32085

 Mulliken charges:
               1
     1  C   -0.173075
     2  C   -0.218685
     3  C   -0.171473
     4  C    0.157710
     5  C   -0.169508
     6  C   -0.216018
     7  H    0.225116
     8  H    0.223204
     9  H    0.275456
    10  H    0.275801
    11  H    0.226013
    12  N    0.488192
    13  O   -0.460199
    14  O   -0.460602
    15  C   -0.298172
    16  C   -0.300052
    17  C   -0.475860
    18  H    0.150660
    19  H    0.146836
    20  H    0.153621
    21  H    0.152135
    22  H    0.154314
    23  H    0.155873
    24  H    0.161656
    25  C   -0.298811
    26  C   -0.300660
    27  C   -0.476171
    28  H    0.152795
    29  H    0.150802
    30  H    0.153969
    31  H    0.142680
    32  H    0.162230
    33  H    0.160530
    34  H    0.149695
 Sum of Mulliken charges =  -0.00000

 Dipole moment (field-independent basis, Debye):
    X=             -3.6509    Y=              3.3446    Z=              1.6581  Tot=              5.2216
 Quadrupole moment (field-independent basis, Debye-Ang):
   XX=           -118.4847   YY=            -90.5983   ZZ=            -93.8572
   XY=             13.2278   XZ=              4.8796   YZ=             -2.3649

 Normal termination of Gaussian 16 at Wed May  5 17:25:25 2021.
