 Gaussian 16, Revision A.03,
 Gaussian 16:  EM64L-G16RevA.03 25-Dec-2016

 -------------
 #p 6-31g* mp2
 -------------

 ------------------------------------------------------
 Input file generated by CHIRIPA (05-May-2021 14:55:21)
 ------------------------------------------------------
 Symbolic Z-matrix:
 Charge =  0 Multiplicity = 1

                         Standard orientation:
 ---------------------------------------------------------------------
 Center     Atomic      Atomic             Coordinates (Angstroms)
 Number     Number       Type             X           Y           Z
 ---------------------------------------------------------------------
      1          6           0       -3.782644    1.029242    0.564846
      2          6           0       -3.668459    0.472520   -0.713255
      3          6           0       -2.700468   -0.500286   -0.980072
      4          6           0       -1.859440   -0.894817    0.059305
      5          6           0       -1.948388   -0.358958    1.343141
      6          6           0       -2.923758    0.612461    1.587163
      7          1           0       -4.537468    1.784402    0.763262
      8          1           0       -4.334121    0.794281   -1.509125
      9          1           0       -2.590173   -0.947885   -1.960332
     10          1           0       -1.270497   -0.699896    2.116214
     11          1           0       -3.010140    1.043078    2.580718
     12          7           0       -0.830765   -1.923949   -0.211096
     13          8           0       -0.101914   -2.254486    0.721727
     14          8           0       -0.772820   -2.380560   -1.350739
     15          6           0        3.229189    0.768631    0.265043
     16          6           0        3.968947   -0.469487   -0.242704
     17          6           0        5.231373   -0.775936    0.563624
     18          1           0        3.906818    1.632675    0.230483
     19          1           0        2.964080    0.621364    1.321179
     20          1           0        4.231366   -0.320496   -1.297955
     21          1           0        3.289420   -1.330644   -0.207111
     22          1           0        4.983594   -0.950846    1.615580
     23          1           0        5.930891    0.065040    0.518539
     24          1           0        5.744546   -1.664818    0.183622
     25          6           0        1.964993    1.087891   -0.530952
     26          6           0        1.225236    2.326010   -0.023205
     27          6           0       -0.037191    2.632459   -0.829533
     28          1           0        2.230103    1.235158   -1.587088
     29          1           0        1.287365    0.223847   -0.496392
     30          1           0        1.904762    3.187167   -0.058798
     31          1           0        0.962817    2.177019    1.032046
     32          1           0       -0.736708    1.791482   -0.784448
     33          1           0        0.210589    2.807369   -1.881489
     34          1           0       -0.550363    3.521341   -0.449532
 ---------------------------------------------------------------------

 SCF Done:  E(RHF) =  -669.535430863     A.U. after   15 cycles
 E2 =    -0.2094581894D+01 EUMP2 =    -0.67163001275751D+03

 The electronic state is 1-A.
 Alpha  occ. eigenvalues --  -20.60956 -20.60950 -15.85987 -11.31319 -11.27895
 Alpha  occ. eigenvalues --  -11.27879 -11.27623 -11.26902 -11.26889 -11.21372
 Alpha  occ. eigenvalues --  -11.20928 -11.20879 -11.20801 -11.20723 -11.20369
 Alpha  occ. eigenvalues --   -1.60028  -1.39578  -1.19513  -1.08901  -1.07917
 Alpha  occ. eigenvalues --   -1.04897  -1.03033  -0.95743  -0.95505  -0.86534
 Alpha  occ. eigenvalues --   -0.86290  -0.82568  -0.79117  -0.77704  -0.77623
 Alpha  occ. eigenvalues --   -0.72209  -0.71372  -0.70597  -0.65151  -0.64888
 Alpha  occ. eigenvalues --   -0.64538  -0.62238  -0.60458  -0.58904  -0.57125
 Alpha  occ. eigenvalues --   -0.55390  -0.54982  -0.53191  -0.52979  -0.52206
 Alpha  occ. eigenvalues --   -0.51857  -0.49390  -0.48974  -0.48968  -0.47409
 Alpha  occ. eigenvalues --   -0.46117  -0.45285  -0.45207  -0.44849  -0.43289
 Alpha  occ. eigenvalues --   -0.37468  -0.36488
 Alpha virt. eigenvalues --    0.04885   0.11135   0.16366   0.21276   0.23108
 Alpha virt. eigenvalues --    0.24713   0.26760   0.27189   0.27892   0.28162
 Alpha virt. eigenvalues --    0.28547   0.30984   0.31761   0.32113   0.32336

 Mulliken charges:
               1
     1  C   -0.169844
     2  C   -0.215923
     3  C   -0.174264
     4  C    0.156718
     5  C   -0.172117
     6  C   -0.216664
     7  H    0.226513
     8  H    0.224585
     9  H    0.276505
    10  H    0.275911
    11  H    0.224264
    12  N    0.489285
    13  O   -0.460379
    14  O   -0.458044
    15  C   -0.296304
    16  C   -0.304072
    17  C   -0.475440
    18  H    0.145969
    19  H    0.148764
    20  H    0.149496
    21  H    0.168538
    22  H    0.154932
    23  H    0.151098
    24  H    0.160485
    25  C   -0.299870
    26  C   -0.298137
    27  C   -0.481008
    28  H    0.149685
    29  H    0.151863
    30  H    0.150736
    31  H    0.147027
    32  H    0.161556
    33  H    0.153866
    34  H    0.154268
 Sum of Mulliken charges =  -0.00000

 Dipole moment (field-independent basis, Debye):
    X=             -3.7849    Y=              3.4261    Z=              0.9403  Tot=              5.1911
 Quadrupole moment (field-independent basis, Debye-Ang):
   XX=            -81.9952   YY=           -102.1731   ZZ=            -90.0172
   XY=             -3.3059   XZ=             -1.2000   YZ=             -0.4004

 Normal termination of Gaussian 16 at Thu May  6 20:44:30 2021.
