 Gaussian 16, Revision A.03,
 Gaussian 16:  EM64L-G16RevA.03 25-Dec-2016

 -------------
 #p 6-31g* mp2
 -------------

 ------------------------------------------------------
 Input file generated by CHIRIPA (05-May-2021 14:51:11)
 ------------------------------------------------------
 Symbolic Z-matrix:
 Charge =  0 Multiplicity = 1

                         Standard orientation:
 ---------------------------------------------------------------------
 Center     Atomic      Atomic             Coordinates (Angstroms)
 Number     Number       Type             X           Y           Z
 ---------------------------------------------------------------------
      1          6           0        3.592741   -0.292762   -0.259290
      2          6           0        4.999017   -0.873846   -0.108573
      3          6           0        5.658686   -1.181670   -1.453146
      4          1           0        2.968773   -1.000597   -0.821942
      5          1           0        3.645300    0.624784   -0.861571
      6          1           0        4.944006   -1.789271    0.494409
      7          1           0        5.619657   -0.164629    0.453951
      8          1           0        5.742820   -0.272986   -2.057973
      9          1           0        5.063330   -1.906858   -2.017286
     10          1           0        6.663120   -1.596125   -1.321997
     11          6           0        2.920220    0.020181    1.076192
     12          6           0        1.513945    0.601265    0.925475
     13          6           0        0.854276    0.909089    2.270048
     14          1           0        2.867662   -0.897365    1.678473
     15          1           0        3.544189    0.728016    1.638844
     16          1           0        0.893305   -0.107952    0.362951
     17          1           0        1.568956    1.516690    0.322493
     18          1           0        1.449632    1.634277    2.834188
     19          1           0        0.770142    0.000405    2.874875
     20          1           0       -0.150158    1.323544    2.138899
     21          6           0       -3.845588   -0.182382   -0.041256
     22          6           0       -4.029742   -1.665852   -0.362799
     23          6           0       -5.212248   -2.289244    0.379397
     24          1           0       -3.704612   -0.063222    1.041736
     25          1           0       -4.767048    0.358405   -0.297884
     26          1           0       -3.107720   -2.203459   -0.106932
     27          1           0       -4.170106   -1.781512   -1.445175
     28          1           0       -6.144449   -1.778896    0.116438
     29          1           0       -5.076026   -2.203241    1.462286
     30          1           0       -5.325580   -3.350018    0.134906
     31          6           0       -2.667374    0.454963   -0.775646
     32          6           0       -2.483220    1.938433   -0.454103
     33          6           0       -1.300713    2.561825   -1.196299
     34          1           0       -1.745914   -0.085823   -0.519019
     35          1           0       -2.808351    0.335804   -1.858638
     36          1           0       -2.342855    2.054093    0.628273
     37          1           0       -3.405242    2.476040   -0.709971
     38          1           0       -1.436935    2.475823   -2.279188
     39          1           0       -0.368512    2.051478   -0.933340
     40          1           0       -1.187382    3.622599   -0.951808
 ---------------------------------------------------------------------

 SCF Done:  E(RHF) =  -470.732829683     A.U. after   11 cycles
 E2 =    -0.1583873365D+01 EUMP2 =    -0.47231670304747D+03

 The electronic state is 1-A.
 Alpha  occ. eigenvalues --  -11.21685 -11.21627 -11.21598 -11.21571 -11.21452
 Alpha  occ. eigenvalues --  -11.21389 -11.21385 -11.21325 -11.21152 -11.21087
 Alpha  occ. eigenvalues --  -11.21067 -11.20943  -1.08493  -1.08401  -1.03616
 Alpha  occ. eigenvalues --   -1.03475  -0.96041  -0.95936  -0.87055  -0.86958
 Alpha  occ. eigenvalues --   -0.79742  -0.79503  -0.78345  -0.78176  -0.65124
 Alpha  occ. eigenvalues --   -0.65053  -0.61035  -0.60950  -0.59367  -0.59297
 Alpha  occ. eigenvalues --   -0.57654  -0.57536  -0.55361  -0.55171  -0.52729
 Alpha  occ. eigenvalues --   -0.52638  -0.52461  -0.52371  -0.50043  -0.49862
 Alpha  occ. eigenvalues --   -0.48113  -0.47805  -0.46711  -0.46574  -0.45968
 Alpha  occ. eigenvalues --   -0.45751  -0.45722  -0.45459  -0.43818  -0.43757
 Alpha virt. eigenvalues --    0.19970   0.23073   0.23716   0.25135   0.25537
 Alpha virt. eigenvalues --    0.26120   0.26366   0.27902   0.28293   0.29104
 Alpha virt. eigenvalues --    0.30270   0.30879   0.31012   0.31851   0.32319

 Mulliken charges:
               1
     1  C   -0.298587
     2  C   -0.299683
     3  C   -0.475757
     4  H    0.149726
     5  H    0.149797
     6  H    0.151952
     7  H    0.152033
     8  H    0.155341
     9  H    0.155266
    10  H    0.160338
    11  C   -0.297227
    12  C   -0.306623
    13  C   -0.479433
    14  H    0.149554
    15  H    0.149973
    16  H    0.153974
    17  H    0.155565
    18  H    0.155880
    19  H    0.155362
    20  H    0.163505
    21  C   -0.298163
    22  C   -0.299553
    23  C   -0.475706
    24  H    0.149605
    25  H    0.149577
    26  H    0.151518
    27  H    0.151924
    28  H    0.155228
    29  H    0.155244
    30  H    0.160151
    31  C   -0.302221
    32  C   -0.300808
    33  C   -0.484393
    34  H    0.152953
    35  H    0.149698
    36  H    0.152598
    37  H    0.151918
    38  H    0.154556
    39  H    0.165803
    40  H    0.159117
 Sum of Mulliken charges =  -0.00000

 Dipole moment (field-independent basis, Debye):
    X=              0.0501    Y=             -0.0085    Z=              0.0095  Tot=              0.0517
 Quadrupole moment (field-independent basis, Debye-Ang):
   XX=            -85.2977   YY=            -84.3320   ZZ=            -85.1923
   XY=             -0.0111   XZ=              1.3810   YZ=             -0.1375

 Normal termination of Gaussian 16 at Wed May  5 18:14:43 2021.
