 Gaussian 16, Revision A.03,
 Gaussian 16:  EM64L-G16RevA.03 25-Dec-2016

 -------------
 #p 6-31g* mp2
 -------------

 ------------------------------------------------------
 Input file generated by CHIRIPA (05-May-2021 14:51:07)
 ------------------------------------------------------
 Symbolic Z-matrix:
 Charge =  0 Multiplicity = 1

                         Standard orientation:
 ---------------------------------------------------------------------
 Center     Atomic      Atomic             Coordinates (Angstroms)
 Number     Number       Type             X           Y           Z
 ---------------------------------------------------------------------
      1          6           0        3.122102   -0.952244   -0.155900
      2          6           0        1.624884   -0.851102    0.137515
      3          6           0        0.872504   -2.144937   -0.175070
      4          1           0        3.265179   -1.215048   -1.212975
      5          1           0        3.548928   -1.776814    0.431722
      6          1           0        1.201275   -0.026083   -0.449437
      7          1           0        1.485358   -0.588320    1.193969
      8          1           0        1.267793   -2.974001    0.420750
      9          1           0        0.982095   -2.408569   -1.231994
     10          1           0       -0.196055   -2.050426    0.041978
     11          6           0        3.887892    0.333357    0.151550
     12          6           0        5.385110    0.232215   -0.141866
     13          6           0        6.137490    1.526050    0.170719
     14          1           0        3.461065    1.157926   -0.436072
     15          1           0        3.744815    0.596161    1.208625
     16          1           0        5.524635   -0.030567   -1.198320
     17          1           0        5.808719   -0.592805    0.445087
     18          1           0        6.027899    1.789681    1.227644
     19          1           0        5.742201    2.355114   -0.425100
     20          1           0        7.206049    1.431539   -0.046329
     21          6           0       -3.173518   -0.360930   -0.153239
     22          6           0       -3.993821   -1.565007    0.310750
     23          6           0       -3.317584   -2.898941   -0.007237
     24          1           0       -3.001499   -0.437623   -1.235585
     25          1           0       -2.184144   -0.394388    0.323640
     26          1           0       -4.981846   -1.528538   -0.165790
     27          1           0       -4.164070   -1.485340    1.392085
     28          1           0       -2.339620   -2.961105    0.480946
     29          1           0       -3.162042   -3.004549   -1.085781
     30          1           0       -3.921103   -3.746184    0.333061
     31          6           0       -3.836475    0.979817    0.157589
     32          6           0       -3.016174    2.183895   -0.306400
     33          6           0       -3.692410    3.517829    0.011588
     34          1           0       -4.825850    1.013275   -0.319290
     35          1           0       -4.008495    1.056510    1.239935
     36          1           0       -2.845924    2.104227   -1.387734
     37          1           0       -2.028148    2.147426    0.170141
     38          1           0       -3.847950    3.623437    1.090131
     39          1           0       -4.670373    3.579993   -0.476596
     40          1           0       -3.088890    4.365073   -0.328711
 ---------------------------------------------------------------------

 SCF Done:  E(RHF) =  -470.732980621     A.U. after   11 cycles
 E2 =    -0.1583056368D+01 EUMP2 =    -0.47231603698889D+03

 The electronic state is 1-A.
 Alpha  occ. eigenvalues --  -11.21606 -11.21605 -11.21596 -11.21588 -11.21415
 Alpha  occ. eigenvalues --  -11.21395 -11.21356 -11.21336 -11.21074 -11.21068
 Alpha  occ. eigenvalues --  -11.21048 -11.20994  -1.08447  -1.08413  -1.03553
 Alpha  occ. eigenvalues --   -1.03499  -0.95996  -0.95951  -0.87025  -0.86958
 Alpha  occ. eigenvalues --   -0.79646  -0.79532  -0.78261  -0.78230  -0.65082
 Alpha  occ. eigenvalues --   -0.65048  -0.60966  -0.60907  -0.59508  -0.59198
 Alpha  occ. eigenvalues --   -0.57639  -0.57531  -0.55291  -0.55234  -0.52759
 Alpha  occ. eigenvalues --   -0.52663  -0.52396  -0.52347  -0.49938  -0.49887
 Alpha  occ. eigenvalues --   -0.48024  -0.47785  -0.46621  -0.46607  -0.45788
 Alpha  occ. eigenvalues --   -0.45771  -0.45722  -0.45677  -0.43796  -0.43699
 Alpha virt. eigenvalues --    0.21337   0.23113   0.23467   0.24678   0.26200
 Alpha virt. eigenvalues --    0.26628   0.27098   0.27161   0.28019   0.29170
 Alpha virt. eigenvalues --    0.30493   0.31454   0.31625   0.31830   0.32117

 Mulliken charges:
               1
     1  C   -0.298404
     2  C   -0.299529
     3  C   -0.485297
     4  H    0.149764
     5  H    0.149511
     6  H    0.152539
     7  H    0.150867
     8  H    0.154490
     9  H    0.155377
    10  H    0.170162
    11  C   -0.298230
    12  C   -0.299623
    13  C   -0.475695
    14  H    0.149554
    15  H    0.149452
    16  H    0.151966
    17  H    0.151913
    18  H    0.155122
    19  H    0.155182
    20  H    0.160241
    21  C   -0.302330
    22  C   -0.299948
    23  C   -0.479938
    24  H    0.149823
    25  H    0.153251
    26  H    0.152020
    27  H    0.151725
    28  H    0.159554
    29  H    0.155534
    30  H    0.160467
    31  C   -0.298045
    32  C   -0.299916
    33  C   -0.475694
    34  H    0.149669
    35  H    0.149657
    36  H    0.151772
    37  H    0.152384
    38  H    0.155231
    39  H    0.155173
    40  H    0.160250
 Sum of Mulliken charges =  -0.00000

 Dipole moment (field-independent basis, Debye):
    X=             -0.0212    Y=             -0.0036    Z=             -0.0076  Tot=              0.0228
 Quadrupole moment (field-independent basis, Debye-Ang):
   XX=            -85.1856   YY=            -86.5189   ZZ=            -83.0698
   XY=             -0.2250   XZ=              0.5214   YZ=             -0.6065

 Normal termination of Gaussian 16 at Thu May  6 03:38:54 2021.
