 Gaussian 16, Revision A.03,
 Gaussian 16:  EM64L-G16RevA.03 25-Dec-2016

 -------------
 #p 6-31g* mp2
 -------------

 ------------------------------------------------------
 Input file generated by CHIRIPA (05-May-2021 14:57:26)
 ------------------------------------------------------
 Symbolic Z-matrix:
 Charge =  0 Multiplicity = 1

                         Standard orientation:
 ---------------------------------------------------------------------
 Center     Atomic      Atomic             Coordinates (Angstroms)
 Number     Number       Type             X           Y           Z
 ---------------------------------------------------------------------
      1          6           0        5.431085    0.264296   -0.305420
      2          6           0        4.894958   -0.984709    0.024847
      3          6           0        3.517742   -1.140180    0.208295
      4          6           0        2.702197   -0.020336    0.052971
      5          6           0        3.206222    1.237143   -0.275655
      6          6           0        4.586495    1.369287   -0.454354
      7          1           0        6.502127    0.376009   -0.446082
      8          1           0        5.548479   -1.844610    0.141153
      9          1           0        3.076105   -2.095589    0.464353
     10          1           0        2.529479    2.075903   -0.384834
     11          1           0        5.000071    2.340489   -0.710804
     12          7           0        1.242582   -0.172578    0.244665
     13          8           0        0.545429    0.829567    0.102117
     14          8           0        0.823327   -1.291168    0.533834
     15          6           0       -3.091145    2.497870    0.262815
     16          6           0       -3.364901    1.917033   -0.979845
     17          6           0       -3.285802    0.531489   -1.148845
     18          6           0       -2.928414   -0.246700   -0.048852
     19          6           0       -2.649714    0.302264    1.201850
     20          6           0       -2.735053    1.690058    1.347783
     21          1           0       -3.155015    3.575068    0.385139
     22          1           0       -3.641688    2.541926   -1.824204
     23          1           0       -3.492485    0.055583   -2.099747
     24          1           0       -2.376340   -0.346637    2.025021
     25          1           0       -2.521901    2.138393    2.314016
     26          7           0       -2.841373   -1.714704   -0.215556
     27          8           0       -2.524368   -2.378357    0.769182
     28          8           0       -3.091803   -2.173874   -1.327798
 ---------------------------------------------------------------------

 SCF Done:  E(RHF) =  -868.337469952     A.U. after   16 cycles
 E2 =    -0.2601606706D+01 EUMP2 =    -0.87093907665874D+03

 The electronic state is 1-A.
 Alpha  occ. eigenvalues --  -20.60906 -20.60841 -20.59118 -20.59035 -15.85887
 Alpha  occ. eigenvalues --  -15.84126 -11.31243 -11.29390 -11.27844 -11.27772
 Alpha  occ. eigenvalues --  -11.27557 -11.26845 -11.26796 -11.26112 -11.25987
 Alpha  occ. eigenvalues --  -11.25909 -11.25170 -11.25065  -1.59951  -1.58132
 Alpha  occ. eigenvalues --   -1.39496  -1.37696  -1.19418  -1.17604  -1.08820
 Alpha  occ. eigenvalues --   -1.07054  -1.04816  -1.03060  -0.95654  -0.93904
 Alpha  occ. eigenvalues --   -0.86215  -0.84493  -0.82478  -0.80775  -0.77534
 Alpha  occ. eigenvalues --   -0.75793  -0.72097  -0.71269  -0.70525  -0.70392
 Alpha  occ. eigenvalues --   -0.69406  -0.68860  -0.65067  -0.64820  -0.63337
 Alpha  occ. eigenvalues --   -0.63165  -0.62161  -0.60465  -0.55329  -0.53677
 Alpha  occ. eigenvalues --   -0.53149  -0.52910  -0.51459  -0.51240  -0.48880
 Alpha  occ. eigenvalues --   -0.48725  -0.47143  -0.47114  -0.44903  -0.43106
 Alpha  occ. eigenvalues --   -0.37403  -0.36419  -0.35585  -0.34553
 Alpha virt. eigenvalues --    0.04979   0.06820   0.11236   0.13030   0.16485
 Alpha virt. eigenvalues --    0.18275   0.21378   0.22799   0.27286   0.28280
 Alpha virt. eigenvalues --    0.28666   0.29704   0.30929   0.32238   0.32522

 Mulliken charges:
               1
     1  C   -0.170674
     2  C   -0.218648
     3  C   -0.170522
     4  C    0.158192
     5  C   -0.171437
     6  C   -0.218606
     7  H    0.225762
     8  H    0.224665
     9  H    0.279402
    10  H    0.273181
    11  H    0.222567
    12  N    0.486926
    13  O   -0.464968
    14  O   -0.453405
    15  C   -0.169515
    16  C   -0.218266
    17  C   -0.171042
    18  C    0.167150
    19  C   -0.150790
    20  C   -0.212301
    21  H    0.216972
    22  H    0.214924
    23  H    0.269200
    24  H    0.273096
    25  H    0.215261
    26  N    0.490516
    27  O   -0.456962
    28  O   -0.470678
 Sum of Mulliken charges =  -0.00000

 Dipole moment (field-independent basis, Debye):
    X=              5.2134    Y=              5.4600    Z=              0.0849  Tot=              7.5498
 Quadrupole moment (field-independent basis, Debye-Ang):
   XX=            -77.4418   YY=           -103.8863   ZZ=           -101.3682
   XY=            -14.4986   XZ=             -2.1592   YZ=             -2.1782

 Normal termination of Gaussian 16 at Thu May  6 11:30:19 2021.
