 Gaussian 16, Revision A.03,
 Gaussian 16:  EM64L-G16RevA.03 25-Dec-2016

 -------------
 #p 6-31g* mp2
 -------------

 ------------------------------------------------------
 Input file generated by CHIRIPA (05-May-2021 14:53:16)
 ------------------------------------------------------
 Symbolic Z-matrix:
 Charge =  0 Multiplicity = 1

                         Standard orientation:
 ---------------------------------------------------------------------
 Center     Atomic      Atomic             Coordinates (Angstroms)
 Number     Number       Type             X           Y           Z
 ---------------------------------------------------------------------
      1          6           0       -2.250436   -0.342872   -0.475461
      2          6           0       -2.977303   -1.659933   -0.201599
      3          6           0       -2.502855   -2.796476   -1.107668
      4          1           0       -2.398479   -0.061508   -1.527061
      5          1           0       -1.170293   -0.493463   -0.341272
      6          1           0       -4.055874   -1.506554   -0.334916
      7          1           0       -2.827672   -1.938095    0.849521
      8          1           0       -1.432178   -2.978262   -0.969085
      9          1           0       -2.667359   -2.544269   -2.160251
     10          1           0       -3.035560   -3.728576   -0.894884
     11          6           0       -2.713797    0.802881    0.422467
     12          6           0       -1.986931    2.119942    0.148605
     13          6           0       -2.461378    3.256486    1.054675
     14          1           0       -3.793941    0.953472    0.288279
     15          1           0       -2.565754    0.521517    1.474068
     16          1           0       -2.136561    2.398104   -0.902515
     17          1           0       -0.908359    1.966563    0.281922
     18          1           0       -2.296874    3.004278    2.107258
     19          1           0       -3.532055    3.438271    0.916091
     20          1           0       -1.928673    4.188585    0.841890
     21          6           0        1.552744   -2.036373    1.684835
     22          6           0        1.297758   -2.249819    0.326180
     23          6           0        1.508273   -1.228278   -0.604781
     24          6           0        1.976510   -0.000193   -0.140182
     25          6           0        2.239833    0.243283    1.206915
     26          6           0        2.022141   -0.792696    2.120099
     27          1           0        1.386424   -2.835538    2.401123
     28          1           0        0.933166   -3.214656   -0.014713
     29          1           0        1.319053   -1.366330   -1.662399
     30          1           0        2.602724    1.215823    1.516586
     31          1           0        2.221024   -0.624081    3.174641
     32          7           0        2.203172    1.088908   -1.116338
     33          8           0        2.616156    2.161783   -0.681574
     34          8           0        1.963553    0.849048   -2.297730
 ---------------------------------------------------------------------

 SCF Done:  E(RHF) =  -669.534468540     A.U. after   15 cycles
 E2 =    -0.2095131737D+01 EUMP2 =    -0.67162960027754D+03

 The electronic state is 1-A.
 Alpha  occ. eigenvalues --  -20.60847 -20.60842 -15.85902 -11.31312 -11.27906
 Alpha  occ. eigenvalues --  -11.27868 -11.27641 -11.26908 -11.26891 -11.21827
 Alpha  occ. eigenvalues --  -11.21537 -11.21390 -11.21312 -11.21248 -11.20869
 Alpha  occ. eigenvalues --   -1.59920  -1.39471  -1.19514  -1.08883  -1.08423
 Alpha  occ. eigenvalues --   -1.04923  -1.03572  -0.96037  -0.95709  -0.87067
 Alpha  occ. eigenvalues --   -0.86298  -0.82542  -0.79644  -0.78225  -0.77572
 Alpha  occ. eigenvalues --   -0.72117  -0.71247  -0.70595  -0.65173  -0.65082
 Alpha  occ. eigenvalues --   -0.64894  -0.62279  -0.60972  -0.59412  -0.57631
 Alpha  occ. eigenvalues --   -0.55447  -0.55322  -0.53317  -0.53010  -0.52727
 Alpha  occ. eigenvalues --   -0.52439  -0.50001  -0.48882  -0.48869  -0.47960
 Alpha  occ. eigenvalues --   -0.46685  -0.45745  -0.45640  -0.44855  -0.43790
 Alpha  occ. eigenvalues --   -0.37466  -0.36404
 Alpha virt. eigenvalues --    0.04932   0.11030   0.16288   0.20528   0.22970
 Alpha virt. eigenvalues --    0.24085   0.25859   0.26772   0.27275   0.28115
 Alpha virt. eigenvalues --    0.28881   0.29986   0.31501   0.31909   0.32238

 Mulliken charges:
               1
     1  C   -0.307884
     2  C   -0.297644
     3  C   -0.477272
     4  H    0.152221
     5  H    0.158277
     6  H    0.153545
     7  H    0.148470
     8  H    0.144248
     9  H    0.159119
    10  H    0.159992
    11  C   -0.297176
    12  C   -0.300062
    13  C   -0.475949
    14  H    0.148863
    15  H    0.146268
    16  H    0.156969
    17  H    0.150290
    18  H    0.151659
    19  H    0.154377
    20  H    0.164297
    21  C   -0.171610
    22  C   -0.215912
    23  C   -0.177454
    24  C    0.162959
    25  C   -0.172170
    26  C   -0.218224
    27  H    0.226592
    28  H    0.225995
    29  H    0.277589
    30  H    0.276510
    31  H    0.224185
    32  N    0.488902
    33  O   -0.460459
    34  O   -0.459514
 Sum of Mulliken charges =  -0.00000

 Dipole moment (field-independent basis, Debye):
    X=             -0.6971    Y=             -3.7543    Z=              3.3975  Tot=              5.1111
 Quadrupole moment (field-independent basis, Debye-Ang):
   XX=            -97.8322   YY=            -94.2315   ZZ=            -93.0600
   XY=             -6.7619   XZ=              9.0985   YZ=              2.1739

 Normal termination of Gaussian 16 at Thu May  6 13:55:56 2021.
