 Gaussian 16, Revision A.03,
 Gaussian 16:  EM64L-G16RevA.03 25-Dec-2016

 -------------
 #p 6-31g* mp2
 -------------

 ------------------------------------------------------
 Input file generated by CHIRIPA (05-May-2021 14:57:23)
 ------------------------------------------------------
 Symbolic Z-matrix:
 Charge =  0 Multiplicity = 1

                         Standard orientation:
 ---------------------------------------------------------------------
 Center     Atomic      Atomic             Coordinates (Angstroms)
 Number     Number       Type             X           Y           Z
 ---------------------------------------------------------------------
      1          6           0       -2.129306    2.830959   -0.072042
      2          6           0       -1.897867    2.055144    1.068601
      3          6           0       -2.278285    0.710253    1.101730
      4          6           0       -2.890569    0.171094   -0.028627
      5          6           0       -3.134739    0.918129   -1.179978
      6          6           0       -2.745916    2.260981   -1.190719
      7          1           0       -1.830523    3.874910   -0.089082
      8          1           0       -1.419189    2.495140    1.938840
      9          1           0       -2.111096    0.086764    1.971631
     10          1           0       -3.613916    0.451525   -2.032085
     11          1           0       -2.926911    2.861091   -2.077936
     12          7           0       -3.297749   -1.251603   -0.005405
     13          8           0       -3.835476   -1.702968   -1.014244
     14          8           0       -3.071461   -1.888408    1.021196
     15          6           0        0.839180   -1.923251    0.386292
     16          6           0        1.607920   -2.035794   -0.776848
     17          6           0        2.709543   -1.200158   -0.983457
     18          6           0        3.015293   -0.258847   -0.001753
     19          6           0        2.268771   -0.122370    1.167591
     20          6           0        1.171473   -0.968582    1.353094
     21          1           0       -0.014907   -2.576501    0.538593
     22          1           0        1.352199   -2.776293   -1.529386
     23          1           0        3.321787   -1.265800   -1.874673
     24          1           0        2.548364    0.625395    1.899775
     25          1           0        0.576253   -0.878928    2.257374
     26          7           0        4.179243    0.631401   -0.209310
     27          8           0        4.427775    1.452592    0.670756
     28          8           0        4.820974    0.491130   -1.248128
 ---------------------------------------------------------------------

 SCF Done:  E(RHF) =  -868.339346810     A.U. after   16 cycles
 E2 =    -0.2600528156D+01 EUMP2 =    -0.87093987496632D+03

 The electronic state is 1-A.
 Alpha  occ. eigenvalues --  -20.61753 -20.61702 -20.60839 -20.60826 -15.86748
 Alpha  occ. eigenvalues --  -15.85887 -11.31846 -11.31150 -11.28458 -11.28356
 Alpha  occ. eigenvalues --  -11.28031 -11.27760 -11.27691 -11.27346 -11.27289
 Alpha  occ. eigenvalues --  -11.27259 -11.26714 -11.26605  -1.60795  -1.59914
 Alpha  occ. eigenvalues --   -1.40358  -1.39471  -1.19990  -1.19302  -1.09422
 Alpha  occ. eigenvalues --   -1.08683  -1.05365  -1.04705  -0.96308  -0.95537
 Alpha  occ. eigenvalues --   -0.86774  -0.86087  -0.83159  -0.82389  -0.78255
 Alpha  occ. eigenvalues --   -0.77483  -0.72972  -0.72131  -0.72101  -0.71239
 Alpha  occ. eigenvalues --   -0.71096  -0.70289  -0.65648  -0.65377  -0.64939
 Alpha  occ. eigenvalues --   -0.64699  -0.62744  -0.62053  -0.55840  -0.55065
 Alpha  occ. eigenvalues --   -0.53742  -0.53466  -0.52966  -0.52776  -0.49753
 Alpha  occ. eigenvalues --   -0.49700  -0.48868  -0.48851  -0.45811  -0.44901
 Alpha  occ. eigenvalues --   -0.37978  -0.37334  -0.36911  -0.36176
 Alpha virt. eigenvalues --    0.04222   0.05067   0.10470   0.11559   0.15748
 Alpha virt. eigenvalues --    0.16641   0.19877   0.21984   0.25462   0.27258
 Alpha virt. eigenvalues --    0.28323   0.28958   0.30558   0.30996   0.31991

 Mulliken charges:
               1
     1  C   -0.168737
     2  C   -0.217297
     3  C   -0.169673
     4  C    0.158638
     5  C   -0.170277
     6  C   -0.217938
     7  H    0.229966
     8  H    0.223999
     9  H    0.268440
    10  H    0.276335
    11  H    0.226494
    12  N    0.487189
    13  O   -0.456162
    14  O   -0.468394
    15  C   -0.178376
    16  C   -0.219482
    17  C   -0.171115
    18  C    0.157772
    19  C   -0.172387
    20  C   -0.219395
    21  H    0.243582
    22  H    0.226689
    23  H    0.275072
    24  H    0.271454
    25  H    0.218962
    26  N    0.488094
    27  O   -0.463050
    28  O   -0.460404
 Sum of Mulliken charges =  -0.00000

 Dipole moment (field-independent basis, Debye):
    X=             -2.8605    Y=              1.9374    Z=              0.4552  Tot=              3.4847
 Quadrupole moment (field-independent basis, Debye-Ang):
   XX=           -138.8669   YY=           -100.9136   ZZ=            -96.9601
   XY=            -23.8729   XZ=              3.6433   YZ=              1.4475

 Normal termination of Gaussian 16 at Thu May  6 14:38:08 2021.
