 Gaussian 16, Revision A.03,
 Gaussian 16:  EM64L-G16RevA.03 25-Dec-2016

 -------------
 #p 6-31g* mp2
 -------------

 ------------------------------------------------------
 Input file generated by CHIRIPA (05-May-2021 14:57:23)
 ------------------------------------------------------
 Symbolic Z-matrix:
 Charge =  0 Multiplicity = 1

                         Standard orientation:
 ---------------------------------------------------------------------
 Center     Atomic      Atomic             Coordinates (Angstroms)
 Number     Number       Type             X           Y           Z
 ---------------------------------------------------------------------
      1          6           0       -2.406218    2.308717    0.096965
      2          6           0       -3.771414    2.354569   -0.204126
      3          6           0       -4.505560    1.174212   -0.353583
      4          6           0       -3.839616   -0.040064   -0.194387
      5          6           0       -2.480544   -0.118572    0.105694
      6          6           0       -1.766268    1.074469    0.250643
      7          1           0       -1.843633    3.230573    0.211316
      8          1           0       -4.271030    3.311674   -0.324037
      9          1           0       -5.563426    1.180745   -0.586593
     10          1           0       -2.010127   -1.087706    0.219299
     11          1           0       -0.706140    1.035824    0.484484
     12          7           0       -4.606306   -1.296368   -0.350225
     13          8           0       -3.996286   -2.353446   -0.204969
     14          8           0       -5.802739   -1.200194   -0.614675
     15          6           0        5.496150    0.189602   -1.580599
     16          6           0        4.972363    1.282393   -0.882047
     17          6           0        3.984199    1.096619    0.089329
     18          6           0        3.540893   -0.201464    0.337820
     19          6           0        4.043063   -1.310446   -0.341353
     20          6           0        5.030649   -1.101055   -1.308502
     21          1           0        6.263554    0.343088   -2.333544
     22          1           0        5.331982    2.285859   -1.091269
     23          1           0        3.561325    1.924792    0.644960
     24          1           0        3.664614   -2.298890   -0.110758
     25          1           0        5.435607   -1.951600   -1.849453
     26          7           0        2.495075   -0.410636    1.363934
     27          8           0        2.121375   -1.564265    1.564254
     28          8           0        2.068864    0.583003    1.948452
 ---------------------------------------------------------------------

 SCF Done:  E(RHF) =  -868.339500845     A.U. after   16 cycles
 E2 =    -0.2598576927D+01 EUMP2 =    -0.87093807777173D+03

 The electronic state is 1-A.
 Alpha  occ. eigenvalues --  -20.61724 -20.61684 -20.60161 -20.60147 -15.86722
 Alpha  occ. eigenvalues --  -15.85203 -11.31862 -11.30470 -11.28430 -11.28371
 Alpha  occ. eigenvalues --  -11.28087 -11.27373 -11.27330 -11.27066 -11.26931
 Alpha  occ. eigenvalues --  -11.26754 -11.26092 -11.25876  -1.60774  -1.59234
 Alpha  occ. eigenvalues --   -1.40329  -1.38789  -1.20012  -1.18626  -1.09447
 Alpha  occ. eigenvalues --   -1.08047  -1.05377  -1.03996  -0.96316  -0.94899
 Alpha  occ. eigenvalues --   -0.86785  -0.85403  -0.83152  -0.81721  -0.78233
 Alpha  occ. eigenvalues --   -0.76776  -0.72931  -0.72091  -0.71425  -0.71109
 Alpha  occ. eigenvalues --   -0.70555  -0.69749  -0.65663  -0.65370  -0.64274
 Alpha  occ. eigenvalues --   -0.63975  -0.62726  -0.61327  -0.55876  -0.54530
 Alpha  occ. eigenvalues --   -0.53722  -0.53461  -0.52358  -0.52070  -0.49715
 Alpha  occ. eigenvalues --   -0.49672  -0.48185  -0.48174  -0.45764  -0.44216
 Alpha  occ. eigenvalues --   -0.37976  -0.36970  -0.36626  -0.35598
 Alpha virt. eigenvalues --    0.04249   0.05727   0.10685   0.12049   0.15776
 Alpha virt. eigenvalues --    0.17245   0.20855   0.22213   0.26790   0.27557
 Alpha virt. eigenvalues --    0.28232   0.29027   0.30428   0.31598   0.32088

 Mulliken charges:
               1
     1  C   -0.172153
     2  C   -0.218793
     3  C   -0.172565
     4  C    0.158007
     5  C   -0.172490
     6  C   -0.222549
     7  H    0.223338
     8  H    0.220148
     9  H    0.272990
    10  H    0.279994
    11  H    0.235302
    12  N    0.487986
    13  O   -0.459928
    14  O   -0.463279
    15  C   -0.169796
    16  C   -0.218309
    17  C   -0.172067
    18  C    0.156799
    19  C   -0.170342
    20  C   -0.218303
    21  H    0.228111
    22  H    0.224719
    23  H    0.273470
    24  H    0.278021
    25  H    0.226516
    26  N    0.486184
    27  O   -0.454973
    28  O   -0.466040
 Sum of Mulliken charges =  -0.00000

 Dipole moment (field-independent basis, Debye):
    X=              6.8327    Y=              5.0183    Z=             -3.0783  Tot=              9.0192
 Quadrupole moment (field-independent basis, Debye-Ang):
   XX=            -96.8804   YY=            -99.7052   ZZ=           -108.6541
   XY=            -18.0025   XZ=            -14.1374   YZ=              0.4985

 Normal termination of Gaussian 16 at Wed May  5 16:21:17 2021.
