 Gaussian 16, Revision A.03,
 Gaussian 16:  EM64L-G16RevA.03 25-Dec-2016

 -------------
 #p 6-31g* mp2
 -------------

 ------------------------------------------------------
 Input file generated by CHIRIPA (05-May-2021 14:53:17)
 ------------------------------------------------------
 Symbolic Z-matrix:
 Charge =  0 Multiplicity = 1

                         Standard orientation:
 ---------------------------------------------------------------------
 Center     Atomic      Atomic             Coordinates (Angstroms)
 Number     Number       Type             X           Y           Z
 ---------------------------------------------------------------------
      1          6           0        4.146125    0.049842   -0.028384
      2          6           0        5.568285   -0.497040   -0.156307
      3          6           0        6.630889    0.601088   -0.103571
      4          1           0        3.965496    0.775777   -0.832956
      5          1           0        4.056951    0.602541    0.917115
      6          1           0        5.654356   -1.049718   -1.100636
      7          1           0        5.745484   -1.221900    0.648550
      8          1           0        6.573886    1.147144    0.843622
      9          1           0        6.482240    1.320305   -0.915502
     10          1           0        7.640101    0.187984   -0.196813
     11          6           0        3.072680   -1.035906   -0.079336
     12          6           0        1.650520   -0.489023    0.048588
     13          6           0        0.587916   -1.587152   -0.004149
     14          1           0        3.161854   -1.588605   -1.024835
     15          1           0        3.253309   -1.761840    0.725236
     16          1           0        1.473321    0.235837   -0.756269
     17          1           0        1.564449    0.063654    0.992916
     18          1           0        0.736565   -2.306369    0.807782
     19          1           0        0.644919   -2.133208   -0.951342
     20          1           0       -0.421297   -1.174047    0.089093
     21          6           0       -4.226570   -1.699488   -0.160905
     22          6           0       -4.074398   -0.847935   -1.260097
     23          6           0       -3.297312    0.309856   -1.159076
     24          6           0       -2.683849    0.586719    0.061701
     25          6           0       -2.816378   -0.241928    1.174837
     26          6           0       -3.598183   -1.394305    1.050917
     27          1           0       -4.832061   -2.596786   -0.248274
     28          1           0       -4.561245   -1.082429   -2.202453
     29          1           0       -3.162666    0.986551   -1.994165
     30          1           0       -2.318770    0.018335    2.101157
     31          1           0       -3.714596   -2.053803    1.906227
     32          7           0       -1.858685    1.809555    0.180769
     33          8           0       -1.328602    2.031093    1.267309
     34          8           0       -1.757629    2.523322   -0.814702
 ---------------------------------------------------------------------

 SCF Done:  E(RHF) =  -669.534668542     A.U. after   15 cycles
 E2 =    -0.2093272081D+01 EUMP2 =    -0.67162794062274D+03

 The electronic state is 1-A.
 Alpha  occ. eigenvalues --  -20.60838 -20.60824 -15.85875 -11.31219 -11.27817
 Alpha  occ. eigenvalues --  -11.27791 -11.27562 -11.26829 -11.26818 -11.21239
 Alpha  occ. eigenvalues --  -11.21073 -11.20980 -11.20898 -11.20740 -11.20716
 Alpha  occ. eigenvalues --   -1.59899  -1.39453  -1.19436  -1.08818  -1.08008
 Alpha  occ. eigenvalues --   -1.04830  -1.03144  -0.95675  -0.95599  -0.86647
 Alpha  occ. eigenvalues --   -0.86218  -0.82479  -0.79192  -0.77804  -0.77526
 Alpha  occ. eigenvalues --   -0.72096  -0.71234  -0.70527  -0.65074  -0.64822
 Alpha  occ. eigenvalues --   -0.64639  -0.62170  -0.60541  -0.59054  -0.57278
 Alpha  occ. eigenvalues --   -0.55321  -0.54913  -0.53489  -0.52911  -0.52129
 Alpha  occ. eigenvalues --   -0.51875  -0.49559  -0.48857  -0.48851  -0.47506
 Alpha  occ. eigenvalues --   -0.46219  -0.45357  -0.45282  -0.44820  -0.43401
 Alpha  occ. eigenvalues --   -0.37361  -0.36389
 Alpha virt. eigenvalues --    0.04986   0.11185   0.16475   0.21360   0.23251
 Alpha virt. eigenvalues --    0.24578   0.27062   0.27299   0.27834   0.28220
 Alpha virt. eigenvalues --    0.28406   0.30902   0.31734   0.32103   0.32318

 Mulliken charges:
               1
     1  C   -0.298513
     2  C   -0.299360
     3  C   -0.475547
     4  H    0.152007
     5  H    0.151953
     6  H    0.150457
     7  H    0.150385
     8  H    0.155826
     9  H    0.155873
    10  H    0.158619
    11  C   -0.298058
    12  C   -0.302825
    13  C   -0.482704
    14  H    0.147030
    15  H    0.147003
    16  H    0.156055
    17  H    0.160513
    18  H    0.150421
    19  H    0.152212
    20  H    0.164450
    21  C   -0.170920
    22  C   -0.217327
    23  C   -0.171619
    24  C    0.160177
    25  C   -0.177482
    26  C   -0.213597
    27  H    0.226089
    28  H    0.223798
    29  H    0.275843
    30  H    0.275881
    31  H    0.224089
    32  N    0.490081
    33  O   -0.460311
    34  O   -0.460498
 Sum of Mulliken charges =  -0.00000

 Dipole moment (field-independent basis, Debye):
    X=             -3.0323    Y=             -4.2000    Z=             -0.4004  Tot=              5.1957
 Quadrupole moment (field-independent basis, Debye-Ang):
   XX=            -80.5500   YY=           -100.9050   ZZ=            -89.2218
   XY=              9.6279   XZ=              2.1771   YZ=             -1.9007

 Normal termination of Gaussian 16 at Wed May  5 20:24:43 2021.
