 Gaussian 16, Revision A.03,
 Gaussian 16:  EM64L-G16RevA.03 25-Dec-2016

 -------------
 #p 6-31g* mp2
 -------------

 ------------------------------------------------------
 Input file generated by CHIRIPA (05-May-2021 14:51:13)
 ------------------------------------------------------
 Symbolic Z-matrix:
 Charge =  0 Multiplicity = 1

                         Standard orientation:
 ---------------------------------------------------------------------
 Center     Atomic      Atomic             Coordinates (Angstroms)
 Number     Number       Type             X           Y           Z
 ---------------------------------------------------------------------
      1          6           0       -1.929080   -0.454620   -0.717936
      2          6           0       -2.671112   -1.748006   -1.056355
      3          6           0       -1.736923   -2.854355   -1.547350
      4          1           0       -1.384154   -0.108660   -1.606931
      5          1           0       -1.172260   -0.664620    0.050516
      6          1           0       -3.427246   -1.535350   -1.822942
      7          1           0       -3.214490   -2.090824   -0.166505
      8          1           0       -0.990330   -3.095248   -0.783694
      9          1           0       -1.204295   -2.536618   -2.449543
     10          1           0       -2.288212   -3.769860   -1.783550
     11          6           0       -2.849499    0.660826   -0.225659
     12          6           0       -2.107466    1.954211    0.112760
     13          6           0       -3.041655    3.060560    0.603755
     14          1           0       -3.606319    0.870826   -0.994111
     15          1           0       -3.394425    0.314865    0.663336
     16          1           0       -1.564089    2.297029   -0.777090
     17          1           0       -1.351333    1.741555    0.879347
     18          1           0       -3.574284    2.742823    1.505948
     19          1           0       -3.788249    3.301453   -0.159901
     20          1           0       -2.490367    3.976066    0.839954
     21          6           0        2.778594   -0.160227   -0.182886
     22          6           0        3.355201    1.171815   -0.663690
     23          6           0        4.131295    1.041277   -1.974580
     24          1           0        3.596857   -0.882209   -0.055879
     25          1           0        2.119319   -0.568727   -0.961269
     26          1           0        4.012107    1.578355    0.115936
     27          1           0        2.535491    1.890768   -0.789384
     28          1           0        3.483009    0.658913   -2.769642
     29          1           0        4.968014    0.344725   -1.859177
     30          1           0        4.534742    2.005232   -2.299973
     31          6           0        1.999985   -0.045978    1.126482
     32          6           0        1.423378   -1.378021    1.607285
     33          6           0        0.647284   -1.247482    2.918174
     34          1           0        2.659259    0.362522    1.904865
     35          1           0        1.181721    0.676004    0.999473
     36          1           0        2.243088   -2.096973    1.732980
     37          1           0        0.766472   -1.784560    0.827659
     38          1           0       -0.189436   -0.550931    2.802772
     39          1           0        1.295570   -0.865118    3.713236
     40          1           0        0.243836   -2.211438    3.243567
 ---------------------------------------------------------------------

 SCF Done:  E(RHF) =  -470.732943633     A.U. after   11 cycles
 E2 =    -0.1584890220D+01 EUMP2 =    -0.47231783385232D+03

 The electronic state is 1-A.
 Alpha  occ. eigenvalues --  -11.21688 -11.21652 -11.21609 -11.21573 -11.21459
 Alpha  occ. eigenvalues --  -11.21395 -11.21379 -11.21317 -11.21142 -11.21129
 Alpha  occ. eigenvalues --  -11.21125 -11.21053  -1.08525  -1.08397  -1.03601
 Alpha  occ. eigenvalues --   -1.03536  -0.96039  -0.95986  -0.87057  -0.87004
 Alpha  occ. eigenvalues --   -0.79702  -0.79565  -0.78330  -0.78228  -0.65404
 Alpha  occ. eigenvalues --   -0.64824  -0.61087  -0.60858  -0.59435  -0.59326
 Alpha  occ. eigenvalues --   -0.57656  -0.57588  -0.55361  -0.55241  -0.52732
 Alpha  occ. eigenvalues --   -0.52685  -0.52467  -0.52411  -0.49989  -0.49943
 Alpha  occ. eigenvalues --   -0.48061  -0.47927  -0.46915  -0.46473  -0.46139
 Alpha  occ. eigenvalues --   -0.45800  -0.45613  -0.45306  -0.43843  -0.43780
 Alpha virt. eigenvalues --    0.19345   0.22436   0.23371   0.23989   0.25522
 Alpha virt. eigenvalues --    0.26506   0.26754   0.28134   0.28575   0.29946
 Alpha virt. eigenvalues --    0.30299   0.31252   0.31662   0.31828   0.32360

 Mulliken charges:
               1
     1  C   -0.308388
     2  C   -0.299287
     3  C   -0.479564
     4  H    0.148977
     5  H    0.160581
     6  H    0.152212
     7  H    0.152207
     8  H    0.158295
     9  H    0.155094
    10  H    0.160882
    11  C   -0.297632
    12  C   -0.304391
    13  C   -0.475594
    14  H    0.149930
    15  H    0.149810
    16  H    0.151850
    17  H    0.155165
    18  H    0.155472
    19  H    0.155534
    20  H    0.160595
    21  C   -0.298532
    22  C   -0.299883
    23  C   -0.475666
    24  H    0.149435
    25  H    0.150758
    26  H    0.151714
    27  H    0.152371
    28  H    0.155045
    29  H    0.155146
    30  H    0.160108
    31  C   -0.303298
    32  C   -0.307643
    33  C   -0.477525
    34  H    0.149534
    35  H    0.154735
    36  H    0.153217
    37  H    0.157354
    38  H    0.154981
    39  H    0.156057
    40  H    0.160345
 Sum of Mulliken charges =  -0.00000

 Dipole moment (field-independent basis, Debye):
    X=             -0.0203    Y=             -0.0011    Z=             -0.0021  Tot=              0.0204
 Quadrupole moment (field-independent basis, Debye-Ang):
   XX=            -84.6564   YY=            -85.4189   ZZ=            -84.6196
   XY=              0.2432   XZ=              1.3354   YZ=             -0.6649

 Normal termination of Gaussian 16 at Wed May  5 16:51:45 2021.
