 Gaussian 16, Revision A.03,
 Gaussian 16:  EM64L-G16RevA.03 25-Dec-2016

 -------------
 #p 6-31g* mp2
 -------------

 ------------------------------------------------------
 Input file generated by CHIRIPA (05-May-2021 14:51:09)
 ------------------------------------------------------
 Symbolic Z-matrix:
 Charge =  0 Multiplicity = 1

                         Standard orientation:
 ---------------------------------------------------------------------
 Center     Atomic      Atomic             Coordinates (Angstroms)
 Number     Number       Type             X           Y           Z
 ---------------------------------------------------------------------
      1          6           0        3.201243   -0.286328   -0.380569
      2          6           0        4.567334   -0.969523   -0.451455
      3          6           0        4.467254   -2.457866   -0.787035
      4          1           0        2.583678   -0.792997    0.373648
      5          1           0        2.685659   -0.412354   -1.342694
      6          1           0        5.080758   -0.841056    0.510058
      7          1           0        5.181786   -0.461048   -1.205456
      8          1           0        3.978110   -2.602304   -1.755786
      9          1           0        3.876508   -2.984471   -0.030525
     10          1           0        5.455288   -2.926448   -0.832646
     11          6           0        3.284801    1.201894   -0.045989
     12          6           0        1.918710    1.885089    0.024898
     13          6           0        2.018790    3.373432    0.360478
     14          1           0        3.800385    1.327920    0.916137
     15          1           0        3.902367    1.708563   -0.800206
     16          1           0        1.304258    1.376614    0.778898
     17          1           0        1.405286    1.756622   -0.936616
     18          1           0        2.609536    3.900037   -0.396033
     19          1           0        2.507934    3.517870    1.329228
     20          1           0        1.030757    3.842014    0.406088
     21          6           0       -2.835115   -0.767210    0.780111
     22          6           0       -1.325996   -0.715189    0.539606
     23          6           0       -0.523457   -1.338047    1.682309
     24          1           0       -3.068383   -0.247727    1.719614
     25          1           0       -3.141706   -1.813470    0.916997
     26          1           0       -1.022559    0.330546    0.401837
     27          1           0       -1.096316   -1.234691   -0.399533
     28          1           0       -0.797600   -2.389347    1.817269
     29          1           0       -0.723425   -0.815217    2.623193
     30          1           0        0.552860   -1.290143    1.489680
     31          6           0       -3.650930   -0.148356   -0.353553
     32          6           0       -5.160047   -0.200377   -0.113048
     33          6           0       -5.962587    0.422481   -1.255751
     34          1           0       -3.344338    0.897904   -0.490439
     35          1           0       -3.417662   -0.667839   -1.293057
     36          1           0       -5.389729    0.319124    0.826090
     37          1           0       -5.463485   -1.246112    0.024720
     38          1           0       -5.762619   -0.100349   -2.196636
     39          1           0       -5.688444    1.473781   -1.390712
     40          1           0       -7.038905    0.374577   -1.063124
 ---------------------------------------------------------------------

 SCF Done:  E(RHF) =  -470.732865089     A.U. after   11 cycles
 E2 =    -0.1583744567D+01 EUMP2 =    -0.47231660965669D+03

 The electronic state is 1-A.
 Alpha  occ. eigenvalues --  -11.21611 -11.21589 -11.21586 -11.21535 -11.21414
 Alpha  occ. eigenvalues --  -11.21382 -11.21355 -11.21322 -11.21085 -11.21077
 Alpha  occ. eigenvalues --  -11.21063 -11.21057  -1.08457  -1.08394  -1.03553
 Alpha  occ. eigenvalues --   -1.03498  -0.96000  -0.95962  -0.87017  -0.86976
 Alpha  occ. eigenvalues --   -0.79672  -0.79508  -0.78323  -0.78159  -0.65124
 Alpha  occ. eigenvalues --   -0.65013  -0.61017  -0.60838  -0.59413  -0.59298
 Alpha  occ. eigenvalues --   -0.57659  -0.57535  -0.55294  -0.55245  -0.52752
 Alpha  occ. eigenvalues --   -0.52642  -0.52448  -0.52340  -0.49934  -0.49909
 Alpha  occ. eigenvalues --   -0.48084  -0.47766  -0.46705  -0.46539  -0.45884
 Alpha  occ. eigenvalues --   -0.45764  -0.45678  -0.45517  -0.43796  -0.43728
 Alpha virt. eigenvalues --    0.20990   0.23088   0.23802   0.24137   0.26117
 Alpha virt. eigenvalues --    0.26412   0.26696   0.27582   0.28165   0.29104
 Alpha virt. eigenvalues --    0.30437   0.31298   0.31623   0.31955   0.32362

 Mulliken charges:
               1
     1  C   -0.306213
     2  C   -0.299019
     3  C   -0.475773
     4  H    0.156575
     5  H    0.149808
     6  H    0.151899
     7  H    0.152073
     8  H    0.155169
     9  H    0.155171
    10  H    0.160337
    11  C   -0.297708
    12  C   -0.305589
    13  C   -0.475620
    14  H    0.149266
    15  H    0.149730
    16  H    0.158472
    17  H    0.152498
    18  H    0.155298
    19  H    0.155174
    20  H    0.159720
    21  C   -0.298164
    22  C   -0.302703
    23  C   -0.483441
    24  H    0.149318
    25  H    0.149312
    26  H    0.156608
    27  H    0.152061
    28  H    0.155354
    29  H    0.154551
    30  H    0.166020
    31  C   -0.298194
    32  C   -0.299615
    33  C   -0.475691
    34  H    0.149448
    35  H    0.149585
    36  H    0.151882
    37  H    0.151922
    38  H    0.155139
    39  H    0.155127
    40  H    0.160212
 Sum of Mulliken charges =  -0.00000

 Dipole moment (field-independent basis, Debye):
    X=              0.0186    Y=              0.0057    Z=             -0.0108  Tot=              0.0223
 Quadrupole moment (field-independent basis, Debye-Ang):
   XX=            -85.3796   YY=            -85.2920   ZZ=            -84.1940
   XY=              0.4248   XZ=             -0.5335   YZ=              0.2850

 Normal termination of Gaussian 16 at Thu May  6 00:32:39 2021.
