 Gaussian 16, Revision A.03,
 Gaussian 16:  EM64L-G16RevA.03 25-Dec-2016

 -------------
 #p 6-31g* mp2
 -------------

 ------------------------------------------------------
 Input file generated by CHIRIPA (05-May-2021 14:53:18)
 ------------------------------------------------------
 Symbolic Z-matrix:
 Charge =  0 Multiplicity = 1

                         Standard orientation:
 ---------------------------------------------------------------------
 Center     Atomic      Atomic             Coordinates (Angstroms)
 Number     Number       Type             X           Y           Z
 ---------------------------------------------------------------------
      1          6           0        3.288666   -0.969919    0.281611
      2          6           0        2.159892   -0.864149    1.307606
      3          6           0        1.413156   -2.183979    1.503124
      4          1           0        2.872452   -1.303150   -0.678946
      5          1           0        3.995076   -1.747843    0.602884
      6          1           0        1.456555   -0.085698    0.985198
      7          1           0        2.578813   -0.530947    2.265780
      8          1           0        2.097133   -2.966144    1.848079
      9          1           0        0.968498   -2.518366    0.560221
     10          1           0        0.610535   -2.085694    2.240688
     11          6           0        4.044534    0.341480    0.075158
     12          6           0        5.173309    0.235710   -0.950837
     13          6           0        5.920045    1.555540   -1.146356
     14          1           0        3.338125    1.119403   -0.246115
     15          1           0        4.460748    0.674711    1.035714
     16          1           0        4.754388   -0.097492   -1.909011
     17          1           0        5.876646   -0.542741   -0.628430
     18          1           0        6.364702    1.889926   -0.203453
     19          1           0        5.236068    2.337705   -1.491311
     20          1           0        6.722666    1.457255   -1.883919
     21          6           0       -2.585145    2.612495    0.688362
     22          6           0       -1.514625    1.715041    0.759686
     23          6           0       -1.658053    0.401131    0.304038
     24          6           0       -2.891541    0.016650   -0.219384
     25          6           0       -3.976870    0.887406   -0.303860
     26          6           0       -3.810690    2.196546    0.157752
     27          1           0       -2.464889    3.631319    1.044636
     28          1           0       -0.561700    2.035303    1.171280
     29          1           0       -0.845831   -0.314294    0.347418
     30          1           0       -4.914663    0.538975   -0.719263
     31          1           0       -4.643803    2.891356    0.101120
     32          7           0       -3.055426   -1.371803   -0.704915
     33          8           0       -4.152373   -1.685897   -1.161741
     34          8           0       -2.083828   -2.119688   -0.619454
 ---------------------------------------------------------------------

 SCF Done:  E(RHF) =  -669.535508597     A.U. after   15 cycles
 E2 =    -0.2092160480D+01 EUMP2 =    -0.67162766907694D+03

 The electronic state is 1-A.
 Alpha  occ. eigenvalues --  -20.60776 -20.60771 -15.85824 -11.31154 -11.27734
 Alpha  occ. eigenvalues --  -11.27680 -11.27477 -11.26747 -11.26724 -11.22089
 Alpha  occ. eigenvalues --  -11.21815 -11.21701 -11.21625 -11.21285 -11.21069
 Alpha  occ. eigenvalues --   -1.59847  -1.39401  -1.19331  -1.08735  -1.08726
 Alpha  occ. eigenvalues --   -1.04736  -1.03792  -0.96193  -0.95571  -0.87193
 Alpha  occ. eigenvalues --   -0.86131  -0.82412  -0.79861  -0.78552  -0.77458
 Alpha  occ. eigenvalues --   -0.72047  -0.71167  -0.70458  -0.65399  -0.64984
 Alpha  occ. eigenvalues --   -0.64729  -0.62212  -0.61068  -0.59558  -0.57815
 Alpha  occ. eigenvalues --   -0.55495  -0.55189  -0.53066  -0.52883  -0.52800
 Alpha  occ. eigenvalues --   -0.52590  -0.50116  -0.48798  -0.48795  -0.48162
 Alpha  occ. eigenvalues --   -0.46904  -0.46082  -0.45999  -0.44813  -0.44034
 Alpha  occ. eigenvalues --   -0.37318  -0.36334
 Alpha virt. eigenvalues --    0.05070   0.11309   0.16566   0.19595   0.22902
 Alpha virt. eigenvalues --    0.23804   0.25161   0.26665   0.27294   0.28222
 Alpha virt. eigenvalues --    0.29248   0.30882   0.31474   0.31701   0.32372

 Mulliken charges:
               1
     1  C   -0.298415
     2  C   -0.304252
     3  C   -0.485022
     4  H    0.154365
     5  H    0.152787
     6  H    0.137089
     7  H    0.152858
     8  H    0.158701
     9  H    0.172815
    10  H    0.160163
    11  C   -0.297994
    12  C   -0.300075
    13  C   -0.475824
    14  H    0.145449
    15  H    0.149071
    16  H    0.153970
    17  H    0.153360
    18  H    0.154822
    19  H    0.154154
    20  H    0.161628
    21  C   -0.170375
    22  C   -0.223389
    23  C   -0.180838
    24  C    0.158782
    25  C   -0.170083
    26  C   -0.219186
    27  H    0.225552
    28  H    0.224947
    29  H    0.290178
    30  H    0.275421
    31  H    0.223364
    32  N    0.488438
    33  O   -0.460214
    34  O   -0.462249
 Sum of Mulliken charges =  -0.00000

 Dipole moment (field-independent basis, Debye):
    X=              0.6641    Y=              4.7252    Z=              1.6682  Tot=              5.0549
 Quadrupole moment (field-independent basis, Debye-Ang):
   XX=            -93.2869   YY=            -95.3190   ZZ=            -95.5737
   XY=            -16.4573   XZ=             -3.2152   YZ=             -1.3113

 Normal termination of Gaussian 16 at Wed May  5 23:40:49 2021.
