 Gaussian 16, Revision A.03,
 Gaussian 16:  EM64L-G16RevA.03 25-Dec-2016

 -------------
 #p 6-31g* mp2
 -------------

 ------------------------------------------------------
 Input file generated by CHIRIPA (05-May-2021 14:57:25)
 ------------------------------------------------------
 Symbolic Z-matrix:
 Charge =  0 Multiplicity = 1

                         Standard orientation:
 ---------------------------------------------------------------------
 Center     Atomic      Atomic             Coordinates (Angstroms)
 Number     Number       Type             X           Y           Z
 ---------------------------------------------------------------------
      1          6           0        3.835958    1.253383    0.519650
      2          6           0        3.266149    0.416355    1.484650
      3          6           0        2.384895   -0.602235    1.109932
      4          6           0        2.094263   -0.756222   -0.244731
      5          6           0        2.645839    0.061548   -1.229773
      6          6           0        3.524534    1.073625   -0.832098
      7          1           0        4.519543    2.042118    0.819657
      8          1           0        3.506188    0.553635    2.535164
      9          1           0        1.929527   -1.264512    1.836187
     10          1           0        2.387408   -0.099771   -2.269295
     11          1           0        3.965562    1.722175   -1.583710
     12          7           0        1.162674   -1.831109   -0.653580
     13          8           0        0.922794   -1.946111   -1.853526
     14          8           0        0.690014   -2.538251    0.233651
     15          6           0       -3.226661   -1.713785    0.565394
     16          6           0       -3.675216   -0.933176   -0.505105
     17          6           0       -3.139979    0.338691   -0.729657
     18          6           0       -2.153168    0.800731    0.139833
     19          6           0       -1.685451    0.046861    1.215106
     20          6           0       -2.234960   -1.222142    1.420576
     21          1           0       -3.647989   -2.700690    0.732420
     22          1           0       -4.445270   -1.312421   -1.170864
     23          1           0       -3.468872    0.964076   -1.550718
     24          1           0       -0.916609    0.452002    1.861759
     25          1           0       -1.884682   -1.826166    2.252745
     26          7           0       -1.578982    2.145685   -0.087789
     27          8           0       -0.710626    2.529872    0.692591
     28          8           0       -2.008165    2.790205   -1.042270
 ---------------------------------------------------------------------

 SCF Done:  E(RHF) =  -868.339032148     A.U. after   16 cycles
 E2 =    -0.2601846714D+01 EUMP2 =    -0.87094087886137D+03

 The electronic state is 1-A.
 Alpha  occ. eigenvalues --  -20.60889 -20.60881 -20.60441 -20.60431 -15.85905
 Alpha  occ. eigenvalues --  -15.85478 -11.31056 -11.30570 -11.27656 -11.27539
 Alpha  occ. eigenvalues --  -11.27237 -11.27068 -11.27049 -11.26674 -11.26580
 Alpha  occ. eigenvalues --  -11.26498 -11.26028 -11.25993  -1.59944  -1.59519
 Alpha  occ. eigenvalues --   -1.39513  -1.39080  -1.19181  -1.18674  -1.08612
 Alpha  occ. eigenvalues --   -1.08108  -1.04564  -1.04036  -0.95499  -0.95007
 Alpha  occ. eigenvalues --   -0.85979  -0.85446  -0.82358  -0.81854  -0.77446
 Alpha  occ. eigenvalues --   -0.76950  -0.72162  -0.71709  -0.71277  -0.70822
 Alpha  occ. eigenvalues --   -0.70304  -0.69775  -0.64852  -0.64577  -0.64326
 Alpha  occ. eigenvalues --   -0.64041  -0.61947  -0.61411  -0.55055  -0.54522
 Alpha  occ. eigenvalues --   -0.52870  -0.52670  -0.52358  -0.52128  -0.48932
 Alpha  occ. eigenvalues --   -0.48876  -0.48477  -0.48437  -0.44988  -0.44542
 Alpha  occ. eigenvalues --   -0.37153  -0.36536  -0.36137  -0.35525
 Alpha virt. eigenvalues --    0.05030   0.05586   0.11385   0.12168   0.16604
 Alpha virt. eigenvalues --    0.17243   0.21348   0.22240   0.26879   0.27911
 Alpha virt. eigenvalues --    0.28758   0.29138   0.31166   0.31703   0.32757

 Mulliken charges:
               1
     1  C   -0.165990
     2  C   -0.214272
     3  C   -0.174243
     4  C    0.159329
     5  C   -0.169544
     6  C   -0.213995
     7  H    0.227212
     8  H    0.222433
     9  H    0.267333
    10  H    0.275568
    11  H    0.225428
    12  N    0.489496
    13  O   -0.459434
    14  O   -0.467278
    15  C   -0.166657
    16  C   -0.215624
    17  C   -0.170734
    18  C    0.156308
    19  C   -0.179795
    20  C   -0.198768
    21  H    0.226317
    22  H    0.222371
    23  H    0.272874
    24  H    0.267815
    25  H    0.223496
    26  N    0.488147
    27  O   -0.465494
    28  O   -0.462298
 Sum of Mulliken charges =  -0.00000

 Dipole moment (field-independent basis, Debye):
    X=              1.3559    Y=             -1.0338    Z=              2.1524  Tot=              2.7460
 Quadrupole moment (field-independent basis, Debye-Ang):
   XX=            -80.9517   YY=           -119.1261   ZZ=            -97.9471
   XY=             15.2519   XZ=              2.2358   YZ=             -4.1854

 Normal termination of Gaussian 16 at Wed May  5 22:48:59 2021.
