 Gaussian 16, Revision A.03,
 Gaussian 16:  EM64L-G16RevA.03 25-Dec-2016

 -------------
 #p 6-31g* mp2
 -------------

 ------------------------------------------------------
 Input file generated by CHIRIPA (05-May-2021 14:55:19)
 ------------------------------------------------------
 Symbolic Z-matrix:
 Charge =  0 Multiplicity = 1

                         Standard orientation:
 ---------------------------------------------------------------------
 Center     Atomic      Atomic             Coordinates (Angstroms)
 Number     Number       Type             X           Y           Z
 ---------------------------------------------------------------------
      1          6           0        4.249565   -0.443199   -1.509537
      2          6           0        4.316642    0.626852   -0.611199
      3          6           0        3.348268    0.778784    0.385654
      4          6           0        2.322026   -0.162078    0.455622
      5          6           0        2.227857   -1.238878   -0.424675
      6          6           0        3.207225   -1.371013   -1.413578
      7          1           0        5.006091   -0.553534   -2.280829
      8          1           0        5.125002    1.348927   -0.683351
      9          1           0        3.376074    1.597757    1.094124
     10          1           0        1.410088   -1.942639   -0.327763
     11          1           0        3.152604   -2.203017   -2.109876
     12          7           0        1.291032   -0.011713    1.506737
     13          8           0        0.397006   -0.854156    1.547283
     14          8           0        1.396489    0.945738    2.270153
     15          6           0       -3.368302    0.979632   -0.304344
     16          6           0       -2.251856    1.910964   -0.777792
     17          6           0       -2.624165    3.389031   -0.657380
     18          1           0       -4.276471    1.179307   -0.889410
     19          1           0       -3.612423    1.213215    0.741236
     20          1           0       -2.008959    1.674767   -1.821741
     21          1           0       -1.346184    1.708917   -0.191660
     22          1           0       -2.846523    3.646760    0.383165
     23          1           0       -3.513065    3.612415   -1.256177
     24          1           0       -1.811864    4.036948   -1.001227
     25          6           0       -3.011079   -0.501270   -0.418563
     26          6           0       -4.127526   -1.432603    0.054886
     27          6           0       -3.755216   -2.910670   -0.065527
     28          1           0       -2.766958   -0.734853   -1.464143
     29          1           0       -2.102910   -0.700945    0.166505
     30          1           0       -5.033197   -1.230555   -0.531247
     31          1           0       -4.370422   -1.196405    1.098833
     32          1           0       -2.866317   -3.134054    0.533271
     33          1           0       -3.532858   -3.168398   -1.106072
     34          1           0       -4.567517   -3.558586    0.278322
 ---------------------------------------------------------------------

 SCF Done:  E(RHF) =  -669.536548926     A.U. after   15 cycles
 E2 =    -0.2091598615D+01 EUMP2 =    -0.67162814754111D+03

 The electronic state is 1-A.
 Alpha  occ. eigenvalues --  -20.61030 -20.61021 -15.86049 -11.31309 -11.27869
 Alpha  occ. eigenvalues --  -11.27861 -11.27600 -11.26865 -11.26854 -11.20925
 Alpha  occ. eigenvalues --  -11.20800 -11.20565 -11.20481 -11.20392 -11.20354
 Alpha  occ. eigenvalues --   -1.60083  -1.39640  -1.19474  -1.08891  -1.07606
 Alpha  occ. eigenvalues --   -1.04862  -1.02801  -0.95743  -0.95245  -0.86273
 Alpha  occ. eigenvalues --   -0.86265  -0.82579  -0.78874  -0.77655  -0.77402
 Alpha  occ. eigenvalues --   -0.72273  -0.71390  -0.70585  -0.65134  -0.64867
 Alpha  occ. eigenvalues --   -0.64206  -0.62210  -0.60188  -0.58628  -0.56869
 Alpha  occ. eigenvalues --   -0.55373  -0.54516  -0.53196  -0.52954  -0.51988
 Alpha  occ. eigenvalues --   -0.51689  -0.49187  -0.49038  -0.49022  -0.47204
 Alpha  occ. eigenvalues --   -0.45897  -0.45346  -0.44960  -0.44506  -0.43021
 Alpha  occ. eigenvalues --   -0.37450  -0.36459
 Alpha virt. eigenvalues --    0.04846   0.11195   0.16311   0.21264   0.23673
 Alpha virt. eigenvalues --    0.24956   0.26946   0.27359   0.27851   0.28618
 Alpha virt. eigenvalues --    0.28775   0.31030   0.31846   0.32337   0.32541

 Mulliken charges:
               1
     1  C   -0.170382
     2  C   -0.218614
     3  C   -0.170635
     4  C    0.157890
     5  C   -0.170098
     6  C   -0.218625
     7  H    0.226101
     8  H    0.223875
     9  H    0.275813
    10  H    0.276261
    11  H    0.224070
    12  N    0.489414
    13  O   -0.461284
    14  O   -0.458569
    15  C   -0.296620
    16  C   -0.299666
    17  C   -0.475001
    18  H    0.145081
    19  H    0.153325
    20  H    0.146333
    21  H    0.155193
    22  H    0.158161
    23  H    0.152578
    24  H    0.156644
    25  C   -0.311558
    26  C   -0.297827
    27  C   -0.476854
    28  H    0.140422
    29  H    0.174831
    30  H    0.147463
    31  H    0.154505
    32  H    0.160671
    33  H    0.149560
    34  H    0.157542
 Sum of Mulliken charges =  -0.00000

 Dipole moment (field-independent basis, Debye):
    X=              3.8769    Y=             -0.5427    Z=             -3.5165  Tot=              5.2622
 Quadrupole moment (field-independent basis, Debye-Ang):
   XX=            -77.7912   YY=            -93.0682   ZZ=            -97.4894
   XY=              0.3983   XZ=             -6.5473   YZ=              2.0848

 Normal termination of Gaussian 16 at Thu May  6 02:52:51 2021.
