 Gaussian 16, Revision A.03,
 Gaussian 16:  EM64L-G16RevA.03 25-Dec-2016

 -------------
 #p 6-31g* mp2
 -------------

 ------------------------------------------------------
 Input file generated by CHIRIPA (05-May-2021 14:55:23)
 ------------------------------------------------------
 Symbolic Z-matrix:
 Charge =  0 Multiplicity = 1

                         Standard orientation:
 ---------------------------------------------------------------------
 Center     Atomic      Atomic             Coordinates (Angstroms)
 Number     Number       Type             X           Y           Z
 ---------------------------------------------------------------------
      1          6           0       -1.090534    1.424342    0.941797
      2          6           0       -2.313182    1.951578    0.513222
      3          6           0       -3.336587    1.105854    0.075110
      4          6           0       -3.102116   -0.268300    0.078783
      5          6           0       -1.894932   -0.823967    0.499772
      6          6           0       -0.885673    0.040692    0.933718
      7          1           0       -0.301023    2.088675    1.280515
      8          1           0       -2.475088    3.025730    0.518412
      9          1           0       -4.292799    1.487226   -0.261982
     10          1           0       -1.763126   -1.899034    0.483175
     11          1           0        0.062837   -0.371575    1.265999
     12          7           0       -4.178061   -1.173652   -0.382821
     13          8           0       -3.946510   -2.380655   -0.369940
     14          8           0       -5.232565   -0.659122   -0.748768
     15          6           0        3.852003   -0.521812    0.143983
     16          6           0        5.083621   -1.270234   -0.366866
     17          6           0        5.286878   -2.617308    0.327304
     18          1           0        3.948196   -0.366821    1.227344
     19          1           0        2.962452   -1.149616   -0.004184
     20          1           0        5.970401   -0.640641   -0.219045
     21          1           0        4.984575   -1.423292   -1.449168
     22          1           0        4.419893   -3.266872    0.169172
     23          1           0        5.411321   -2.479774    1.406284
     24          1           0        6.172780   -3.135332   -0.053076
     25          6           0        3.635451    0.826674   -0.540428
     26          6           0        2.403833    1.575096   -0.029579
     27          6           0        2.200577    2.922171   -0.723749
     28          1           0        4.525003    1.454479   -0.392261
     29          1           0        3.539259    0.671682   -1.623789
     30          1           0        2.502880    1.728155    1.052723
     31          1           0        1.517054    0.945503   -0.177400
     32          1           0        2.076134    2.784635   -1.802729
     33          1           0        3.067561    3.571734   -0.565617
     34          1           0        1.314674    3.440194   -0.343369
 ---------------------------------------------------------------------

 SCF Done:  E(RHF) =  -669.534075743     A.U. after   15 cycles
 E2 =    -0.2093520100D+01 EUMP2 =    -0.67162759584238D+03

 The electronic state is 1-A.
 Alpha  occ. eigenvalues --  -20.60752 -20.60746 -15.85806 -11.31167 -11.27746
 Alpha  occ. eigenvalues --  -11.27734 -11.27429 -11.26740 -11.26698 -11.22630
 Alpha  occ. eigenvalues --  -11.22260 -11.22218 -11.22175 -11.22098 -11.21591
 Alpha  occ. eigenvalues --   -1.59828  -1.39381  -1.19346  -1.09290  -1.08731
 Alpha  occ. eigenvalues --   -1.04755  -1.04356  -0.96794  -0.95567  -0.87805
 Alpha  occ. eigenvalues --   -0.86156  -0.82404  -0.80473  -0.79113  -0.77446
 Alpha  occ. eigenvalues --   -0.72024  -0.71152  -0.70458  -0.65929  -0.64992
 Alpha  occ. eigenvalues --   -0.64753  -0.62128  -0.61709  -0.60200  -0.58450
 Alpha  occ. eigenvalues --   -0.56046  -0.55181  -0.53505  -0.53203  -0.53075
 Alpha  occ. eigenvalues --   -0.52829  -0.50706  -0.48833  -0.48780  -0.48704
 Alpha  occ. eigenvalues --   -0.47466  -0.46616  -0.46528  -0.44788  -0.44613
 Alpha  occ. eigenvalues --   -0.37253  -0.36334
 Alpha virt. eigenvalues --    0.05060   0.11145   0.16480   0.20027   0.22404
 Alpha virt. eigenvalues --    0.23398   0.24857   0.25812   0.26427   0.28566
 Alpha virt. eigenvalues --    0.28988   0.30687   0.30905   0.31123   0.32964

 Mulliken charges:
               1
     1  C   -0.169902
     2  C   -0.219989
     3  C   -0.170688
     4  C    0.158126
     5  C   -0.172698
     6  C   -0.222949
     7  H    0.232304
     8  H    0.223226
     9  H    0.275559
    10  H    0.275428
    11  H    0.227466
    12  N    0.488125
    13  O   -0.460569
    14  O   -0.460511
    15  C   -0.300150
    16  C   -0.300193
    17  C   -0.476418
    18  H    0.148607
    19  H    0.146348
    20  H    0.153706
    21  H    0.154415
    22  H    0.155654
    23  H    0.155233
    24  H    0.163019
    25  C   -0.297259
    26  C   -0.314187
    27  C   -0.474941
    28  H    0.152082
    29  H    0.153750
    30  H    0.145462
    31  H    0.159207
    32  H    0.161509
    33  H    0.159193
    34  H    0.152036
 Sum of Mulliken charges =  -0.00000

 Dipole moment (field-independent basis, Debye):
    X=              3.9583    Y=              3.1695    Z=              1.5288  Tot=              5.2963
 Quadrupole moment (field-independent basis, Debye-Ang):
   XX=           -116.0686   YY=            -94.3419   ZZ=            -94.7570
   XY=            -13.2738   XZ=             -4.2220   YZ=             -0.3542

 Normal termination of Gaussian 16 at Thu May  6 01:33:08 2021.
