 Gaussian 16, Revision A.03,
 Gaussian 16:  EM64L-G16RevA.03 25-Dec-2016

 -------------
 #p 6-31g* mp2
 -------------

 ------------------------------------------------------
 Input file generated by CHIRIPA (05-May-2021 14:51:11)
 ------------------------------------------------------
 Symbolic Z-matrix:
 Charge =  0 Multiplicity = 1

                         Standard orientation:
 ---------------------------------------------------------------------
 Center     Atomic      Atomic             Coordinates (Angstroms)
 Number     Number       Type             X           Y           Z
 ---------------------------------------------------------------------
      1          6           0        3.838865    0.462925   -0.177184
      2          6           0        5.211678    0.544190    0.491222
      3          6           0        5.866672    1.916502    0.331429
      4          1           0        3.943511    0.698745   -1.245071
      5          1           0        3.184197    1.234770    0.250670
      6          1           0        5.863138   -0.228483    0.063213
      7          1           0        5.103782    0.307961    1.557604
      8          1           0        5.239647    2.696651    0.775060
      9          1           0        6.003318    2.157159   -0.727822
     10          1           0        6.847022    1.952393    0.816698
     11          6           0        3.171385   -0.902859   -0.026079
     12          6           0        1.798573   -0.984124   -0.694485
     13          6           0        1.143578   -2.356437   -0.534692
     14          1           0        3.826054   -1.674704   -0.453933
     15          1           0        3.066740   -1.138680    1.041808
     16          1           0        1.906469   -0.747895   -1.760867
     17          1           0        1.147112   -0.211452   -0.266476
     18          1           0        1.006932   -2.597094    0.524559
     19          1           0        1.770603   -3.136585   -0.978323
     20          1           0        0.163228   -2.392327   -1.019961
     21          6           0       -3.541137   -0.421418    0.514862
     22          6           0       -2.994265   -1.646670   -0.218400
     23          6           0       -3.073116   -2.922063    0.621213
     24          1           0       -2.981697   -0.281679    1.449979
     25          1           0       -4.585378   -0.609513    0.800478
     26          1           0       -1.951795   -1.455782   -0.503764
     27          1           0       -3.554946   -1.783396   -1.151973
     28          1           0       -4.110662   -3.139884    0.894438
     29          1           0       -2.498402   -2.810407    1.546330
     30          1           0       -2.676942   -3.785566    0.077828
     31          6           0       -3.469113    0.861353   -0.311599
     32          6           0       -4.015985    2.086605    0.421663
     33          6           0       -3.937135    3.361997   -0.417951
     34          1           0       -2.424872    1.049448   -0.597215
     35          1           0       -4.028553    0.721613   -1.246717
     36          1           0       -3.455305    2.223331    1.355237
     37          1           0       -5.058455    1.895716    0.707027
     38          1           0       -4.511849    3.250342   -1.343066
     39          1           0       -2.899589    3.579818   -0.691174
     40          1           0       -4.333308    4.225501    0.125435
 ---------------------------------------------------------------------

 SCF Done:  E(RHF) =  -470.733249799     A.U. after   11 cycles
 E2 =    -0.1582684160D+01 EUMP2 =    -0.47231593395844D+03

 The electronic state is 1-A.
 Alpha  occ. eigenvalues --  -11.21655 -11.21626 -11.21600 -11.21553 -11.21440
 Alpha  occ. eigenvalues --  -11.21395 -11.21380 -11.21335 -11.21091 -11.21081
 Alpha  occ. eigenvalues --  -11.21070 -11.21037  -1.08467  -1.08415  -1.03577
 Alpha  occ. eigenvalues --   -1.03500  -0.96025  -0.95948  -0.87028  -0.86977
 Alpha  occ. eigenvalues --   -0.79642  -0.79564  -0.78277  -0.78234  -0.65125
 Alpha  occ. eigenvalues --   -0.65030  -0.61043  -0.60872  -0.59487  -0.59225
 Alpha  occ. eigenvalues --   -0.57694  -0.57496  -0.55334  -0.55207  -0.52734
 Alpha  occ. eigenvalues --   -0.52627  -0.52446  -0.52383  -0.49947  -0.49900
 Alpha  occ. eigenvalues --   -0.48009  -0.47836  -0.46659  -0.46589  -0.45818
 Alpha  occ. eigenvalues --   -0.45777  -0.45748  -0.45676  -0.43804  -0.43751
 Alpha virt. eigenvalues --    0.20994   0.23162   0.23526   0.24954   0.26139
 Alpha virt. eigenvalues --    0.26736   0.26990   0.27129   0.28164   0.28937
 Alpha virt. eigenvalues --    0.30234   0.31272   0.31745   0.31832   0.32151

 Mulliken charges:
               1
     1  C   -0.298289
     2  C   -0.299692
     3  C   -0.475728
     4  H    0.149770
     5  H    0.149328
     6  H    0.152031
     7  H    0.151960
     8  H    0.155167
     9  H    0.155244
    10  H    0.160351
    11  C   -0.298219
    12  C   -0.300671
    13  C   -0.480582
    14  H    0.149881
    15  H    0.149678
    16  H    0.152276
    17  H    0.151305
    18  H    0.155388
    19  H    0.155489
    20  H    0.165509
    21  C   -0.297580
    22  C   -0.306920
    23  C   -0.475195
    24  H    0.149274
    25  H    0.149448
    26  H    0.158939
    27  H    0.151514
    28  H    0.154940
    29  H    0.155075
    30  H    0.160645
    31  C   -0.298558
    32  C   -0.299606
    33  C   -0.475714
    34  H    0.149496
    35  H    0.149701
    36  H    0.151734
    37  H    0.151983
    38  H    0.155219
    39  H    0.155195
    40  H    0.160213
 Sum of Mulliken charges =  -0.00000

 Dipole moment (field-independent basis, Debye):
    X=              0.0187    Y=             -0.0135    Z=             -0.0085  Tot=              0.0246
 Quadrupole moment (field-independent basis, Debye-Ang):
   XX=            -84.1015   YY=            -86.5350   ZZ=            -84.1065
   XY=             -0.5191   XZ=             -0.0186   YZ=              0.8759

 Normal termination of Gaussian 16 at Wed May  5 18:17:02 2021.
