 Gaussian 16, Revision A.03,
 Gaussian 16:  EM64L-G16RevA.03 25-Dec-2016

 -------------
 #p 6-31g* mp2
 -------------

 ------------------------------------------------------
 Input file generated by CHIRIPA (05-May-2021 14:53:15)
 ------------------------------------------------------
 Symbolic Z-matrix:
 Charge =  0 Multiplicity = 1

                         Standard orientation:
 ---------------------------------------------------------------------
 Center     Atomic      Atomic             Coordinates (Angstroms)
 Number     Number       Type             X           Y           Z
 ---------------------------------------------------------------------
      1          6           0        4.188000    0.284130   -0.267972
      2          6           0        5.538060    0.737945    0.288243
      3          6           0        6.092079    1.966556   -0.433818
      4          1           0        4.295021    0.064465   -1.339065
      5          1           0        3.469751    1.111936   -0.188909
      6          1           0        6.253175   -0.090919    0.209424
      7          1           0        5.427857    0.956371    1.358178
      8          1           0        5.400475    2.810508   -0.344203
      9          1           0        6.230483    1.757268   -1.499484
     10          1           0        7.057677    2.273828   -0.020219
     11          6           0        3.621212   -0.943093    0.443648
     12          6           0        2.271152   -1.396907   -0.112567
     13          6           0        1.717134   -2.625519    0.609494
     14          1           0        4.339461   -1.770898    0.364585
     15          1           0        3.514191   -0.723428    1.514740
     16          1           0        2.381355   -1.615333   -1.182502
     17          1           0        1.556037   -0.568044   -0.033749
     18          1           0        1.578730   -2.416230    1.675160
     19          1           0        2.408737   -3.469470    0.519879
     20          1           0        0.751535   -2.932791    0.195895
     21          6           0       -3.233135    2.752904    0.255497
     22          6           0       -1.993392    2.173529   -0.034127
     23          6           0       -1.880400    0.791931   -0.215697
     24          6           0       -3.032815    0.016152   -0.099958
     25          6           0       -4.282096    0.563746    0.187663
     26          6           0       -4.371524    1.947583    0.365275
     27          1           0       -3.311758    3.827031    0.395008
     28          1           0       -1.107621    2.796493   -0.119970
     29          1           0       -0.933069    0.317235   -0.440743
     30          1           0       -5.147330   -0.083161    0.267033
     31          1           0       -5.335628    2.394790    0.590114
     32          7           0       -2.925668   -1.447669   -0.290083
     33          8           0       -3.955931   -2.109260   -0.182880
     34          8           0       -1.813453   -1.905704   -0.542705
 ---------------------------------------------------------------------

 SCF Done:  E(RHF) =  -669.535993258     A.U. after   15 cycles
 E2 =    -0.2091534305D+01 EUMP2 =    -0.67162752756295D+03

 The electronic state is 1-A.
 Alpha  occ. eigenvalues --  -20.60885 -20.60877 -15.85926 -11.31243 -11.27810
 Alpha  occ. eigenvalues --  -11.27796 -11.27551 -11.26819 -11.26808 -11.21623
 Alpha  occ. eigenvalues --  -11.21383 -11.21291 -11.21172 -11.21153 -11.20168
 Alpha  occ. eigenvalues --   -1.59948  -1.39504  -1.19414  -1.08819  -1.08293
 Alpha  occ. eigenvalues --   -1.04811  -1.03289  -0.95727  -0.95637  -0.86718
 Alpha  occ. eigenvalues --   -0.86211  -0.82497  -0.79385  -0.78112  -0.77545
 Alpha  occ. eigenvalues --   -0.72160  -0.71263  -0.70526  -0.65072  -0.64957
 Alpha  occ. eigenvalues --   -0.64801  -0.62168  -0.60700  -0.59085  -0.57282
 Alpha  occ. eigenvalues --   -0.55320  -0.55015  -0.53143  -0.52906  -0.52330
 Alpha  occ. eigenvalues --   -0.52113  -0.49677  -0.48909  -0.48895  -0.47667
 Alpha  occ. eigenvalues --   -0.46457  -0.45641  -0.45578  -0.44916  -0.43510
 Alpha  occ. eigenvalues --   -0.37395  -0.36412
 Alpha virt. eigenvalues --    0.04967   0.11234   0.16457   0.20362   0.22966
 Alpha virt. eigenvalues --    0.23967   0.25708   0.27109   0.27622   0.28256
 Alpha virt. eigenvalues --    0.29042   0.30400   0.31457   0.31810   0.32516

 Mulliken charges:
               1
     1  C   -0.296729
     2  C   -0.299404
     3  C   -0.475328
     4  H    0.150213
     5  H    0.142747
     6  H    0.153242
     7  H    0.151421
     8  H    0.152600
     9  H    0.155538
    10  H    0.160419
    11  C   -0.297695
    12  C   -0.298382
    13  C   -0.485576
    14  H    0.150970
    15  H    0.148338
    16  H    0.153530
    17  H    0.140886
    18  H    0.150031
    19  H    0.151329
    20  H    0.189818
    21  C   -0.170381
    22  C   -0.220846
    23  C   -0.176767
    24  C    0.156723
    25  C   -0.170045
    26  C   -0.218934
    27  H    0.225829
    28  H    0.223774
    29  H    0.285835
    30  H    0.275709
    31  H    0.223638
    32  N    0.492234
    33  O   -0.459243
    34  O   -0.465493
 Sum of Mulliken charges =  -0.00000

 Dipole moment (field-independent basis, Debye):
    X=             -0.5249    Y=              5.0187    Z=              0.6362  Tot=              5.0860
 Quadrupole moment (field-independent basis, Debye-Ang):
   XX=            -87.8800   YY=            -95.2169   ZZ=            -95.4687
   XY=            -16.2230   XZ=             -3.1870   YZ=              0.3269

 Normal termination of Gaussian 16 at Thu May  6 09:02:39 2021.
