 Gaussian 16, Revision A.03,
 Gaussian 16:  EM64L-G16RevA.03 25-Dec-2016

 -------------
 #p 6-31g* mp2
 -------------

 ------------------------------------------------------
 Input file generated by CHIRIPA (05-May-2021 14:53:15)
 ------------------------------------------------------
 Symbolic Z-matrix:
 Charge =  0 Multiplicity = 1

                         Standard orientation:
 ---------------------------------------------------------------------
 Center     Atomic      Atomic             Coordinates (Angstroms)
 Number     Number       Type             X           Y           Z
 ---------------------------------------------------------------------
      1          6           0        2.243273   -1.215909    0.327576
      2          6           0        1.256300   -2.015161   -0.523932
      3          6           0        0.197767   -2.732258    0.314563
      4          1           0        2.734471   -1.892446    1.040294
      5          1           0        1.688371   -0.480421    0.926355
      6          1           0        1.813031   -2.747987   -1.121957
      7          1           0        0.767534   -1.336677   -1.234835
      8          1           0       -0.382981   -2.012007    0.899859
      9          1           0        0.668455   -3.431336    1.013378
     10          1           0       -0.497291   -3.297443   -0.314182
     11          6           0        3.307580   -0.493373   -0.496390
     12          6           0        4.294552    0.305879    0.355118
     13          6           0        5.353086    1.022975   -0.483377
     14          1           0        3.862482   -1.228861   -1.095170
     15          1           0        2.816382    0.183164   -1.209108
     16          1           0        4.783318   -0.372605    1.066021
     17          1           0        3.737822    1.038705    0.953142
     18          1           0        4.882397    1.722053   -1.182193
     19          1           0        5.933834    0.302725   -1.068673
     20          1           0        6.048143    1.588161    0.145368
     21          6           0       -0.734391    2.714398    0.413516
     22          6           0       -0.833681    1.749837    1.421626
     23          6           0       -1.625231    0.611855    1.239987
     24          6           0       -2.306927    0.469820    0.032341
     25          6           0       -2.228213    1.413165   -0.990985
     26          6           0       -1.430747    2.543285   -0.787455
     27          1           0       -0.117199    3.595356    0.563121
     28          1           0       -0.294001    1.880095    2.355341
     29          1           0       -1.719931   -0.150467    2.003737
     30          1           0       -2.777986    1.255592   -1.910951
     31          1           0       -1.355508    3.290740   -1.572116
     32          7           0       -3.148037   -0.730748   -0.171540
     33          8           0       -3.738656   -0.832474   -1.244600
     34          8           0       -3.200754   -1.547297    0.745579
 ---------------------------------------------------------------------

 SCF Done:  E(RHF) =  -669.535169402     A.U. after   15 cycles
 E2 =    -0.2094221193D+01 EUMP2 =    -0.67162939059511D+03

 The electronic state is 1-A.
 Alpha  occ. eigenvalues --  -20.60892 -20.60866 -15.85912 -11.31321 -11.27903
 Alpha  occ. eigenvalues --  -11.27889 -11.27635 -11.26921 -11.26898 -11.21885
 Alpha  occ. eigenvalues --  -11.21522 -11.21415 -11.21369 -11.21357 -11.20548
 Alpha  occ. eigenvalues --   -1.59942  -1.39498  -1.19503  -1.08883  -1.08489
 Alpha  occ. eigenvalues --   -1.04912  -1.03530  -0.95965  -0.95708  -0.86978
 Alpha  occ. eigenvalues --   -0.86300  -0.82543  -0.79614  -0.78304  -0.77580
 Alpha  occ. eigenvalues --   -0.72140  -0.71272  -0.70607  -0.65164  -0.65127
 Alpha  occ. eigenvalues --   -0.64907  -0.62275  -0.60938  -0.59349  -0.57565
 Alpha  occ. eigenvalues --   -0.55440  -0.55236  -0.53219  -0.53006  -0.52605
 Alpha  occ. eigenvalues --   -0.52374  -0.49951  -0.48904  -0.48889  -0.47907
 Alpha  occ. eigenvalues --   -0.46699  -0.45844  -0.45789  -0.44765  -0.43753
 Alpha  occ. eigenvalues --   -0.37458  -0.36464
 Alpha virt. eigenvalues --    0.04911   0.11025   0.16366   0.21024   0.22774
 Alpha virt. eigenvalues --    0.24219   0.26067   0.26971   0.27358   0.28033
 Alpha virt. eigenvalues --    0.28636   0.30417   0.31419   0.31640   0.32123

 Mulliken charges:
               1
     1  C   -0.298811
     2  C   -0.300389
     3  C   -0.480296
     4  H    0.149127
     5  H    0.144813
     6  H    0.151819
     7  H    0.150111
     8  H    0.156208
     9  H    0.152798
    10  H    0.169941
    11  C   -0.297668
    12  C   -0.298430
    13  C   -0.475426
    14  H    0.150891
    15  H    0.148310
    16  H    0.152982
    17  H    0.146042
    18  H    0.153259
    19  H    0.157052
    20  H    0.159570
    21  C   -0.171163
    22  C   -0.218795
    23  C   -0.173211
    24  C    0.162271
    25  C   -0.171217
    26  C   -0.218442
    27  H    0.226404
    28  H    0.224727
    29  H    0.276485
    30  H    0.276222
    31  H    0.224108
    32  N    0.488690
    33  O   -0.459729
    34  O   -0.458251
 Sum of Mulliken charges =  -0.00000

 Dipole moment (field-independent basis, Debye):
    X=              2.7927    Y=              4.2023    Z=              0.6890  Tot=              5.0925
 Quadrupole moment (field-independent basis, Debye-Ang):
   XX=           -109.2977   YY=            -90.2007   ZZ=            -90.9105
   XY=             -9.8118   XZ=              0.0931   YZ=             -0.9918

 Normal termination of Gaussian 16 at Thu May  6 05:53:09 2021.
