 Gaussian 16, Revision A.03,
 Gaussian 16:  EM64L-G16RevA.03 25-Dec-2016

 -------------
 #p 6-31g* mp2
 -------------

 ------------------------------------------------------
 Input file generated by CHIRIPA (05-May-2021 14:57:24)
 ------------------------------------------------------
 Symbolic Z-matrix:
 Charge =  0 Multiplicity = 1

                         Standard orientation:
 ---------------------------------------------------------------------
 Center     Atomic      Atomic             Coordinates (Angstroms)
 Number     Number       Type             X           Y           Z
 ---------------------------------------------------------------------
      1          6           0        3.577765    2.224910   -1.121630
      2          6           0        2.444797    1.886438   -0.374407
      3          6           0        2.340067    0.628202    0.225946
      4          6           0        3.391774   -0.271206    0.057819
      5          6           0        4.533418    0.036398   -0.680638
      6          6           0        4.616627    1.300440   -1.272096
      7          1           0        3.650763    3.204593   -1.584543
      8          1           0        1.636462    2.602390   -0.255869
      9          1           0        1.474292    0.340028    0.809733
     10          1           0        5.322968   -0.698412   -0.781052
     11          1           0        5.497692    1.560562   -1.851842
     12          7           0        3.292291   -1.606317    0.688676
     13          8           0        4.232556   -2.380872    0.525569
     14          8           0        2.275936   -1.852942    1.334305
     15          6           0       -2.571460    2.074948    1.299205
     16          6           0       -1.807981    0.903241    1.272326
     17          6           0       -2.261723   -0.224155    0.581208
     18          6           0       -3.489060   -0.144488   -0.074986
     19          6           0       -4.272685    1.008401   -0.066681
     20          6           0       -3.799210    2.123703    0.630794
     21          1           0       -2.211318    2.946039    1.838552
     22          1           0       -0.854115    0.862502    1.790520
     23          1           0       -1.690916   -1.144057    0.544097
     24          1           0       -5.219552    1.018710   -0.592755
     25          1           0       -4.394261    3.032324    0.649961
     26          7           0       -3.979860   -1.331610   -0.810007
     27          8           0       -5.064516   -1.235842   -1.380083
     28          8           0       -3.270602   -2.335366   -0.802122
 ---------------------------------------------------------------------

 SCF Done:  E(RHF) =  -868.337123837     A.U. after   16 cycles
 E2 =    -0.2599892691D+01 EUMP2 =    -0.87093701652776D+03

 The electronic state is 1-A.
 Alpha  occ. eigenvalues --  -20.61221 -20.61191 -20.60796 -20.60775 -15.86263
 Alpha  occ. eigenvalues --  -15.85848 -11.31674 -11.31357 -11.28338 -11.28187
 Alpha  occ. eigenvalues --  -11.27984 -11.27956 -11.27933 -11.27815 -11.27301
 Alpha  occ. eigenvalues --  -11.27209 -11.27084 -11.27019  -1.60274  -1.59864
 Alpha  occ. eigenvalues --   -1.39833  -1.39411  -1.19838  -1.19577  -1.09216
 Alpha  occ. eigenvalues --   -1.08957  -1.05263  -1.05001  -0.96053  -0.95751
 Alpha  occ. eigenvalues --   -0.86657  -0.86399  -0.82893  -0.82582  -0.77959
 Alpha  occ. eigenvalues --   -0.77578  -0.72482  -0.72062  -0.71592  -0.71192
 Alpha  occ. eigenvalues --   -0.70962  -0.70685  -0.65499  -0.65313  -0.65223
 Alpha  occ. eigenvalues --   -0.65006  -0.62708  -0.62241  -0.55745  -0.55525
 Alpha  occ. eigenvalues --   -0.53565  -0.53415  -0.53317  -0.53048  -0.49248
 Alpha  occ. eigenvalues --   -0.49225  -0.48841  -0.48804  -0.45228  -0.44783
 Alpha  occ. eigenvalues --   -0.37796  -0.37596  -0.36867  -0.36600
 Alpha virt. eigenvalues --    0.04606   0.04946   0.10796   0.10974   0.16104
 Alpha virt. eigenvalues --    0.16284   0.18921   0.21955   0.24706   0.27131
 Alpha virt. eigenvalues --    0.28044   0.29146   0.30146   0.31115   0.32437

 Mulliken charges:
               1
     1  C   -0.170330
     2  C   -0.218475
     3  C   -0.174077
     4  C    0.160703
     5  C   -0.169420
     6  C   -0.218082
     7  H    0.226869
     8  H    0.220791
     9  H    0.269662
    10  H    0.277662
    11  H    0.225587
    12  N    0.488225
    13  O   -0.456317
    14  O   -0.464156
    15  C   -0.172197
    16  C   -0.227176
    17  C   -0.171336
    18  C    0.158228
    19  C   -0.169901
    20  C   -0.219015
    21  H    0.223974
    22  H    0.222232
    23  H    0.285599
    24  H    0.276618
    25  H    0.223581
    26  N    0.487729
    27  O   -0.460994
    28  O   -0.455986
 Sum of Mulliken charges =  -0.00000

 Dipole moment (field-independent basis, Debye):
    X=              2.1633    Y=              8.7572    Z=              0.2383  Tot=              9.0236
 Quadrupole moment (field-independent basis, Debye-Ang):
   XX=           -106.2159   YY=           -107.9760   ZZ=           -105.9332
   XY=             -2.4374   XZ=            -17.7654   YZ=             -0.2244

 Normal termination of Gaussian 16 at Wed May  5 17:55:44 2021.
