 Gaussian 16, Revision A.03,
 Gaussian 16:  EM64L-G16RevA.03 25-Dec-2016

 -------------
 #p 6-31g* mp2
 -------------

 ------------------------------------------------------
 Input file generated by CHIRIPA (05-May-2021 14:51:11)
 ------------------------------------------------------
 Symbolic Z-matrix:
 Charge =  0 Multiplicity = 1

                         Standard orientation:
 ---------------------------------------------------------------------
 Center     Atomic      Atomic             Coordinates (Angstroms)
 Number     Number       Type             X           Y           Z
 ---------------------------------------------------------------------
      1          6           0       -5.228808   -0.455267    0.360963
      2          6           0       -6.310187   -0.619957   -0.707439
      3          6           0       -7.473266   -1.496122   -0.241204
      4          1           0       -4.851256   -1.446434    0.647296
      5          1           0       -5.678545   -0.019317    1.263780
      6          1           0       -5.858263   -1.054185   -1.608454
      7          1           0       -6.685073    0.371729   -0.991401
      8          1           0       -7.950610   -1.063652    0.644071
      9          1           0       -7.119102   -2.497668    0.023512
     10          1           0       -8.234753   -1.600487   -1.020375
     11          6           0       -4.059421    0.418049   -0.090236
     12          6           0       -2.978042    0.582740    0.978166
     13          6           0       -1.814963    1.458905    0.511931
     14          1           0       -3.609684   -0.017900   -0.993054
     15          1           0       -4.436972    1.409217   -0.376570
     16          1           0       -2.603156   -0.408947    1.262127
     17          1           0       -3.429966    1.016967    1.879180
     18          1           0       -2.169126    2.460451    0.247214
     19          1           0       -1.337619    1.026435   -0.373345
     20          1           0       -1.053476    1.563270    1.291101
     21          6           0        5.017054   -0.633503    0.002836
     22          6           0        6.538088   -0.479227   -0.022427
     23          6           0        7.270168   -1.792411    0.255783
     24          1           0        4.710832   -1.025250    0.982481
     25          1           0        4.719314   -1.385144   -0.741330
     26          1           0        6.832752    0.272904    0.720600
     27          1           0        6.840708   -0.087621   -1.002060
     28          1           0        7.005012   -2.547130   -0.491675
     29          1           0        6.997011   -2.184558    1.240773
     30          1           0        8.356260   -1.659214    0.232924
     31          6           0        4.271175    0.670720   -0.273562
     32          6           0        2.750140    0.516445   -0.248300
     33          6           0        2.018060    1.829628   -0.526509
     34          1           0        4.568915    1.422362    0.470603
     35          1           0        4.577398    1.062468   -1.253209
     36          1           0        2.447521    0.124839    0.731333
     37          1           0        2.455478   -0.235686   -0.991327
     38          1           0        2.291219    2.221776   -1.511500
     39          1           0        2.283216    2.584348    0.220948
     40          1           0        0.931968    1.696431   -0.503650
 ---------------------------------------------------------------------

 SCF Done:  E(RHF) =  -470.732880491     A.U. after   11 cycles
 E2 =    -0.1582470507D+01 EUMP2 =    -0.47231535099805D+03

 The electronic state is 1-A.
 Alpha  occ. eigenvalues --  -11.21625 -11.21612 -11.21574 -11.21528 -11.21422
 Alpha  occ. eigenvalues --  -11.21363 -11.21359 -11.21297 -11.21112 -11.21079
 Alpha  occ. eigenvalues --  -11.21051 -11.20875  -1.08450  -1.08377  -1.03563
 Alpha  occ. eigenvalues --   -1.03459  -0.96044  -0.95881  -0.87095  -0.86868
 Alpha  occ. eigenvalues --   -0.79657  -0.79499  -0.78262  -0.78193  -0.65082
 Alpha  occ. eigenvalues --   -0.65010  -0.60978  -0.60866  -0.59485  -0.59197
 Alpha  occ. eigenvalues --   -0.57626  -0.57535  -0.55299  -0.55199  -0.52972
 Alpha  occ. eigenvalues --   -0.52510  -0.52413  -0.52174  -0.49925  -0.49854
 Alpha  occ. eigenvalues --   -0.47974  -0.47801  -0.46636  -0.46570  -0.45805
 Alpha  occ. eigenvalues --   -0.45739  -0.45718  -0.45663  -0.43899  -0.43584
 Alpha virt. eigenvalues --    0.22355   0.22991   0.23589   0.24874   0.26548
 Alpha virt. eigenvalues --    0.26674   0.26934   0.27514   0.27604   0.29021
 Alpha virt. eigenvalues --    0.30253   0.31392   0.31569   0.31631   0.31989

 Mulliken charges:
               1
     1  C   -0.298321
     2  C   -0.299658
     3  C   -0.475720
     4  H    0.149702
     5  H    0.149580
     6  H    0.151948
     7  H    0.151980
     8  H    0.155201
     9  H    0.155199
    10  H    0.160297
    11  C   -0.298669
    12  C   -0.299823
    13  C   -0.478775
    14  H    0.149706
    15  H    0.149749
    16  H    0.152205
    17  H    0.152028
    18  H    0.156058
    19  H    0.156128
    20  H    0.162208
    21  C   -0.298157
    22  C   -0.299595
    23  C   -0.475664
    24  H    0.149446
    25  H    0.149297
    26  H    0.151878
    27  H    0.151891
    28  H    0.155092
    29  H    0.155099
    30  H    0.160159
    31  C   -0.298113
    32  C   -0.298867
    33  C   -0.485525
    34  H    0.149384
    35  H    0.149534
    36  H    0.151305
    37  H    0.150936
    38  H    0.153900
    39  H    0.154056
    40  H    0.172921
 Sum of Mulliken charges =  -0.00000

 Dipole moment (field-independent basis, Debye):
    X=             -0.0644    Y=              0.0090    Z=              0.0089  Tot=              0.0657
 Quadrupole moment (field-independent basis, Debye-Ang):
   XX=            -86.0255   YY=            -85.1940   ZZ=            -83.7192
   XY=             -0.4394   XZ=             -0.1149   YZ=              0.8187

 Normal termination of Gaussian 16 at Wed May  5 16:45:06 2021.
