 Gaussian 16, Revision A.03,
 Gaussian 16:  EM64L-G16RevA.03 25-Dec-2016

 -------------
 #p 6-31g* mp2
 -------------

 ------------------------------------------------------
 Input file generated by CHIRIPA (05-May-2021 14:51:10)
 ------------------------------------------------------
 Symbolic Z-matrix:
 Charge =  0 Multiplicity = 1

                         Standard orientation:
 ---------------------------------------------------------------------
 Center     Atomic      Atomic             Coordinates (Angstroms)
 Number     Number       Type             X           Y           Z
 ---------------------------------------------------------------------
      1          6           0       -4.044107   -0.091058    0.163590
      2          6           0       -4.475814   -0.594758   -1.214053
      3          6           0       -5.912406   -0.204350   -1.562736
      4          1           0       -4.728985   -0.490376    0.924138
      5          1           0       -4.145703    1.002605    0.194814
      6          1           0       -4.372121   -1.687012   -1.243128
      7          1           0       -3.789715   -0.194349   -1.971388
      8          1           0       -6.026847    0.884458   -1.561402
      9          1           0       -6.612562   -0.616685   -0.829004
     10          1           0       -6.200263   -0.574523   -2.551659
     11          6           0       -2.610296   -0.473447    0.526484
     12          6           0       -2.178588    0.030253    1.904127
     13          6           0       -0.741997   -0.360156    2.252810
     14          1           0       -2.508700   -1.567110    0.495261
     15          1           0       -1.925418   -0.074130   -0.234063
     16          1           0       -2.864688   -0.370156    2.661463
     17          1           0       -2.282282    1.122506    1.933202
     18          1           0       -0.041841    0.052180    1.519079
     19          1           0       -0.627555   -1.448963    2.251477
     20          1           0       -0.454140    0.010018    3.241734
     21          6           0        3.735380   -0.254889   -0.703229
     22          6           0        3.883876   -1.543828    0.105826
     23          6           0        4.702960   -2.608840   -0.623998
     24          1           0        3.261952   -0.486961   -1.667052
     25          1           0        4.733668    0.142617   -0.933020
     26          1           0        2.885579   -1.938043    0.335207
     27          1           0        4.356831   -1.308631    1.067913
     28          1           0        5.710768   -2.239283   -0.839288
     29          1           0        4.231158   -2.872271   -1.576158
     30          1           0        4.796579   -3.521822   -0.027710
     31          6           0        2.919023    0.819394    0.013155
     32          6           0        2.770527    2.108333   -0.795900
     33          6           0        1.951443    3.173346   -0.066077
     34          1           0        1.920735    0.421888    0.242945
     35          1           0        3.392451    1.051466    0.976977
     36          1           0        2.297571    1.873136   -1.757987
     37          1           0        3.768824    2.502548   -1.025281
     38          1           0        2.423245    3.436776    0.886083
     39          1           0        0.943635    2.803788    0.149214
     40          1           0        1.857823    4.086328   -0.662365
 ---------------------------------------------------------------------

 SCF Done:  E(RHF) =  -470.733314942     A.U. after   11 cycles
 E2 =    -0.1582814108D+01 EUMP2 =    -0.47231612904996D+03

 The electronic state is 1-A.
 Alpha  occ. eigenvalues --  -11.21623 -11.21620 -11.21618 -11.21570 -11.21436
 Alpha  occ. eigenvalues --  -11.21394 -11.21375 -11.21334 -11.21104 -11.21086
 Alpha  occ. eigenvalues --  -11.21065 -11.21049  -1.08458  -1.08425  -1.03553
 Alpha  occ. eigenvalues --   -1.03524  -0.96006  -0.95972  -0.87028  -0.86983
 Alpha  occ. eigenvalues --   -0.79634  -0.79570  -0.78301  -0.78209  -0.65143
 Alpha  occ. eigenvalues --   -0.65015  -0.61011  -0.60867  -0.59367  -0.59344
 Alpha  occ. eigenvalues --   -0.57648  -0.57556  -0.55357  -0.55213  -0.52692
 Alpha  occ. eigenvalues --   -0.52672  -0.52488  -0.52348  -0.50033  -0.49859
 Alpha  occ. eigenvalues --   -0.48004  -0.47864  -0.46762  -0.46560  -0.45933
 Alpha  occ. eigenvalues --   -0.45756  -0.45746  -0.45433  -0.43805  -0.43781
 Alpha virt. eigenvalues --    0.20754   0.23129   0.23707   0.24764   0.25575
 Alpha virt. eigenvalues --    0.26791   0.27094   0.27646   0.28010   0.29285
 Alpha virt. eigenvalues --    0.30595   0.31601   0.31760   0.31874   0.32069

 Mulliken charges:
               1
     1  C   -0.298311
     2  C   -0.299674
     3  C   -0.475731
     4  H    0.149847
     5  H    0.149693
     6  H    0.151918
     7  H    0.151842
     8  H    0.155276
     9  H    0.155243
    10  H    0.160297
    11  C   -0.298181
    12  C   -0.299391
    13  C   -0.483511
    14  H    0.149563
    15  H    0.148506
    16  H    0.152135
    17  H    0.152014
    18  H    0.162131
    19  H    0.154938
    20  H    0.160976
    21  C   -0.297570
    22  C   -0.299940
    23  C   -0.475727
    24  H    0.149381
    25  H    0.149486
    26  H    0.152733
    27  H    0.152032
    28  H    0.155061
    29  H    0.155092
    30  H    0.160238
    31  C   -0.306818
    32  C   -0.299241
    33  C   -0.476245
    34  H    0.157652
    35  H    0.149918
    36  H    0.151535
    37  H    0.152165
    38  H    0.155637
    39  H    0.154677
    40  H    0.160351
 Sum of Mulliken charges =  -0.00000

 Dipole moment (field-independent basis, Debye):
    X=              0.0039    Y=             -0.0011    Z=              0.0139  Tot=              0.0145
 Quadrupole moment (field-independent basis, Debye-Ang):
   XX=            -85.2695   YY=            -84.6988   ZZ=            -84.7373
   XY=              1.3394   XZ=              0.0790   YZ=             -0.4763

 Normal termination of Gaussian 16 at Wed May  5 21:25:24 2021.
