 Gaussian 16, Revision A.03,
 Gaussian 16:  EM64L-G16RevA.03 25-Dec-2016

 -------------
 #p 6-31g* mp2
 -------------

 ------------------------------------------------------
 Input file generated by CHIRIPA (05-May-2021 14:55:24)
 ------------------------------------------------------
 Symbolic Z-matrix:
 Charge =  0 Multiplicity = 1

                         Standard orientation:
 ---------------------------------------------------------------------
 Center     Atomic      Atomic             Coordinates (Angstroms)
 Number     Number       Type             X           Y           Z
 ---------------------------------------------------------------------
      1          6           0       -0.934302   -2.191247    0.581900
      2          6           0       -0.740719   -0.984602    1.262383
      3          6           0       -1.582210    0.106591    1.026296
      4          6           0       -2.611949   -0.044509    0.098882
      5          6           0       -2.830451   -1.233678   -0.594966
      6          6           0       -1.976712   -2.311721   -0.342972
      7          1           0       -0.275854   -3.033805    0.771477
      8          1           0        0.068013   -0.888167    1.981200
      9          1           0       -1.454961    1.052242    1.539103
     10          1           0       -3.645251   -1.299530   -1.305728
     11          1           0       -2.129422   -3.247611   -0.872911
     12          7           0       -3.509281    1.103728   -0.159473
     13          8           0       -4.409208    0.945045   -0.981414
     14          8           0       -3.295691    2.140657    0.464862
     15          6           0        3.499915   -0.363175   -0.022875
     16          6           0        2.710235   -1.586372   -0.489971
     17          6           0        3.415155   -2.904003   -0.166352
     18          1           0        4.492943   -0.374434   -0.492678
     19          1           0        3.666064   -0.434645    1.060952
     20          1           0        2.544428   -1.511929   -1.572368
     21          1           0        1.718902   -1.572098   -0.019151
     22          1           0        3.566869   -3.004721    0.913203
     23          1           0        4.397088   -2.944210   -0.648840
     24          1           0        2.833270   -3.765322   -0.508988
     25          6           0        2.808072    0.961581   -0.339267
     26          6           0        3.597753    2.184777    0.127829
     27          6           0        2.892832    3.502409   -0.195790
     28          1           0        2.641924    1.033051   -1.423095
     29          1           0        1.815045    0.972839    0.130536
     30          1           0        4.589086    2.170503   -0.342993
     31          1           0        3.763559    2.110334    1.210225
     32          1           0        1.910901    3.542616    0.286697
     33          1           0        2.741118    3.603126   -1.275346
     34          1           0        3.474719    4.363727    0.146845
 ---------------------------------------------------------------------

 SCF Done:  E(RHF) =  -669.534342285     A.U. after   15 cycles
 E2 =    -0.2093743372D+01 EUMP2 =    -0.67162808565666D+03

 The electronic state is 1-A.
 Alpha  occ. eigenvalues --  -20.60816 -20.60810 -15.85872 -11.31266 -11.27855
 Alpha  occ. eigenvalues --  -11.27845 -11.27577 -11.26868 -11.26847 -11.22168
 Alpha  occ. eigenvalues --  -11.21939 -11.21907 -11.21859 -11.21768 -11.21225
 Alpha  occ. eigenvalues --   -1.59891  -1.39443  -1.19456  -1.08954  -1.08816
 Alpha  occ. eigenvalues --   -1.04865  -1.04013  -0.96463  -0.95672  -0.87471
 Alpha  occ. eigenvalues --   -0.86266  -0.82502  -0.80082  -0.78713  -0.77538
 Alpha  occ. eigenvalues --   -0.72091  -0.71214  -0.70571  -0.65646  -0.65106
 Alpha  occ. eigenvalues --   -0.64824  -0.62210  -0.61418  -0.59858  -0.58065
 Alpha  occ. eigenvalues --   -0.55776  -0.55329  -0.53295  -0.53098  -0.52949
 Alpha  occ. eigenvalues --   -0.52866  -0.50403  -0.48851  -0.48843  -0.48383
 Alpha  occ. eigenvalues --   -0.47133  -0.46245  -0.46179  -0.44843  -0.44259
 Alpha  occ. eigenvalues --   -0.37327  -0.36421
 Alpha virt. eigenvalues --    0.04947   0.11066   0.16312   0.19878   0.22971
 Alpha virt. eigenvalues --    0.23663   0.25692   0.26656   0.26950   0.28652
 Alpha virt. eigenvalues --    0.29003   0.30354   0.31082   0.31548   0.32021

 Mulliken charges:
               1
     1  C   -0.169799
     2  C   -0.217350
     3  C   -0.171773
     4  C    0.158501
     5  C   -0.170452
     6  C   -0.219470
     7  H    0.228513
     8  H    0.224648
     9  H    0.275767
    10  H    0.276085
    11  H    0.224057
    12  N    0.488142
    13  O   -0.460163
    14  O   -0.460224
    15  C   -0.298020
    16  C   -0.308298
    17  C   -0.476740
    18  H    0.151993
    19  H    0.145420
    20  H    0.154965
    21  H    0.154084
    22  H    0.152489
    23  H    0.159885
    24  H    0.155676
    25  C   -0.299443
    26  C   -0.300228
    27  C   -0.475795
    28  H    0.152564
    29  H    0.147025
    30  H    0.152886
    31  H    0.149925
    32  H    0.156314
    33  H    0.157308
    34  H    0.161510
 Sum of Mulliken charges =  -0.00000

 Dipole moment (field-independent basis, Debye):
    X=              3.1092    Y=             -3.9859    Z=              0.8296  Tot=              5.1228
 Quadrupole moment (field-independent basis, Debye-Ang):
   XX=           -110.4125   YY=            -94.3540   ZZ=            -92.0290
   XY=             12.8143   XZ=             -0.8423   YZ=              1.7904

 Normal termination of Gaussian 16 at Thu May  6 17:40:07 2021.
