 Gaussian 16, Revision A.03,
 Gaussian 16:  EM64L-G16RevA.03 25-Dec-2016

 -------------
 #p 6-31g* mp2
 -------------

 ------------------------------------------------------
 Input file generated by CHIRIPA (05-May-2021 14:55:19)
 ------------------------------------------------------
 Symbolic Z-matrix:
 Charge =  0 Multiplicity = 1

                         Standard orientation:
 ---------------------------------------------------------------------
 Center     Atomic      Atomic             Coordinates (Angstroms)
 Number     Number       Type             X           Y           Z
 ---------------------------------------------------------------------
      1          6           0        4.667713   -1.102383    0.678088
      2          6           0        3.932140   -1.397266   -0.474516
      3          6           0        2.905950   -0.547772   -0.898595
      4          6           0        2.640991    0.593179   -0.142739
      5          6           0        3.356066    0.914230    1.010033
      6          6           0        4.377839    0.050391    1.415385
      7          1           0        5.463166   -1.767862    1.000249
      8          1           0        4.155053   -2.291824   -1.049078
      9          1           0        2.320792   -0.752013   -1.787017
     10          1           0        3.110612    1.813363    1.562056
     11          1           0        4.947449    0.281921    2.310920
     12          7           0        1.556948    1.500093   -0.581779
     13          8           0        1.343142    2.499029    0.101631
     14          8           0        0.941607    1.194823   -1.600996
     15          6           0       -4.171815   -0.120140   -0.167436
     16          6           0       -5.349287   -0.008067    0.801576
     17          6           0       -6.466922    0.891137    0.272314
     18          1           0       -3.772951    0.883776   -0.367455
     19          1           0       -4.533166   -0.510211   -1.129031
     20          1           0       -4.985583    0.380371    1.761498
     21          1           0       -5.745273   -1.012385    0.999461
     22          1           0       -6.857417    0.503689   -0.674257
     23          1           0       -6.093412    1.904358    0.092110
     24          1           0       -7.298547    0.957126    0.980767
     25          6           0       -3.046500   -1.015754    0.347608
     26          6           0       -1.869028   -1.127825   -0.621403
     27          6           0       -0.751393   -2.027030   -0.092142
     28          1           0       -2.685149   -0.625683    1.309203
     29          1           0       -3.445364   -2.019669    0.547627
     30          1           0       -1.473042   -0.123508   -0.819288
     31          1           0       -2.232732   -1.516265   -1.581326
     32          1           0       -1.124904   -3.040252    0.088062
     33          1           0       -0.360898   -1.639582    0.854430
     34          1           0        0.080232   -2.093020   -0.800596
 ---------------------------------------------------------------------

 SCF Done:  E(RHF) =  -669.536101209     A.U. after   15 cycles
 E2 =    -0.2092293055D+01 EUMP2 =    -0.67162839426389D+03

 The electronic state is 1-A.
 Alpha  occ. eigenvalues --  -20.60962 -20.60945 -15.85972 -11.31264 -11.27831
 Alpha  occ. eigenvalues --  -11.27826 -11.27560 -11.26829 -11.26818 -11.21040
 Alpha  occ. eigenvalues --  -11.20754 -11.20715 -11.20675 -11.20653 -11.20551
 Alpha  occ. eigenvalues --   -1.60010  -1.39567  -1.19433  -1.08841  -1.07766
 Alpha  occ. eigenvalues --   -1.04828  -1.02925  -0.95694  -0.95423  -0.86457
 Alpha  occ. eigenvalues --   -0.86219  -0.82527  -0.78970  -0.77604  -0.77538
 Alpha  occ. eigenvalues --   -0.72199  -0.71325  -0.70548  -0.65092  -0.64834
 Alpha  occ. eigenvalues --   -0.64388  -0.62188  -0.60318  -0.58791  -0.57021
 Alpha  occ. eigenvalues --   -0.55334  -0.54730  -0.53178  -0.52932  -0.52114
 Alpha  occ. eigenvalues --   -0.51843  -0.49369  -0.48965  -0.48957  -0.47300
 Alpha  occ. eigenvalues --   -0.46027  -0.45248  -0.45100  -0.44652  -0.43185
 Alpha  occ. eigenvalues --   -0.37396  -0.36404
 Alpha virt. eigenvalues --    0.04893   0.11181   0.16393   0.21120   0.23454
 Alpha virt. eigenvalues --    0.24504   0.26786   0.27325   0.27781   0.28358
 Alpha virt. eigenvalues --    0.28851   0.30705   0.31454   0.31948   0.32528

 Mulliken charges:
               1
     1  C   -0.170294
     2  C   -0.218897
     3  C   -0.168332
     4  C    0.159234
     5  C   -0.171177
     6  C   -0.218506
     7  H    0.225984
     8  H    0.223904
     9  H    0.275683
    10  H    0.275564
    11  H    0.223675
    12  N    0.487779
    13  O   -0.459393
    14  O   -0.459089
    15  C   -0.299103
    16  C   -0.299159
    17  C   -0.475583
    18  H    0.156327
    19  H    0.148168
    20  H    0.151431
    21  H    0.149430
    22  H    0.154278
    23  H    0.156957
    24  H    0.158117
    25  C   -0.297776
    26  C   -0.308025
    27  C   -0.475482
    28  H    0.148128
    29  H    0.145058
    30  H    0.175618
    31  H    0.148972
    32  H    0.151569
    33  H    0.151937
    34  H    0.153003
 Sum of Mulliken charges =  -0.00000

 Dipole moment (field-independent basis, Debye):
    X=              3.9777    Y=             -3.0186    Z=              1.4866  Tot=              5.2100
 Quadrupole moment (field-independent basis, Debye-Ang):
   XX=            -76.0337   YY=            -97.3033   ZZ=            -92.3755
   XY=             -5.1790   XZ=              4.6992   YZ=              4.6063

 Normal termination of Gaussian 16 at Wed May  5 20:30:16 2021.
