 Gaussian 16, Revision A.03,
 Gaussian 16:  EM64L-G16RevA.03 25-Dec-2016

 -------------
 #p 6-31g* mp2
 -------------

 ------------------------------------------------------
 Input file generated by CHIRIPA (05-May-2021 14:55:19)
 ------------------------------------------------------
 Symbolic Z-matrix:
 Charge =  0 Multiplicity = 1

                         Standard orientation:
 ---------------------------------------------------------------------
 Center     Atomic      Atomic             Coordinates (Angstroms)
 Number     Number       Type             X           Y           Z
 ---------------------------------------------------------------------
      1          6           0        1.858830    1.794499    0.884745
      2          6           0        3.090684    2.316408    0.476494
      3          6           0        4.085685    1.474826   -0.029727
      4          6           0        3.813732    0.110199   -0.114145
      5          6           0        2.596475   -0.439974    0.284457
      6          6           0        1.616085    0.420396    0.787596
      7          1           0        1.091565    2.455558    1.276793
      8          1           0        3.281987    3.383145    0.550797
      9          1           0        5.048229    1.852238   -0.352973
     10          1           0        2.435109   -1.507663    0.198327
     11          1           0        0.660343    0.012284    1.103896
     12          7           0        4.859361   -0.790691   -0.648426
     13          8           0        4.595005   -1.989287   -0.712616
     14          8           0        5.923483   -0.281155   -0.992890
     15          6           0       -5.414894   -0.365895   -0.084311
     16          6           0       -5.976585    0.870502   -0.787026
     17          6           0       -7.486045    0.786002   -1.015461
     18          1           0       -5.647250   -1.257303   -0.682933
     19          1           0       -5.925925   -0.494940    0.879841
     20          1           0       -5.463674    0.997968   -1.748947
     21          1           0       -5.742697    1.759090   -0.186757
     22          1           0       -8.014704    0.682435   -0.062363
     23          1           0       -7.734096   -0.083012   -1.633430
     24          1           0       -7.866545    1.680134   -1.519057
     25          6           0       -3.907090   -0.296316    0.151098
     26          6           0       -3.345400   -1.532714    0.853813
     27          6           0       -1.835939   -1.448215    1.082248
     28          1           0       -3.396059   -0.167272   -0.813055
     29          1           0       -3.674734    0.595090    0.749720
     30          1           0       -3.579288   -2.421303    0.253544
     31          1           0       -3.858311   -1.660181    1.815734
     32          1           0       -1.587889   -0.579200    1.700216
     33          1           0       -1.307281   -1.344648    0.129151
     34          1           0       -1.455440   -2.342347    1.585843
 ---------------------------------------------------------------------

 SCF Done:  E(RHF) =  -669.535347826     A.U. after   15 cycles
 E2 =    -0.2091207126D+01 EUMP2 =    -0.67162655495232D+03

 The electronic state is 1-A.
 Alpha  occ. eigenvalues --  -20.60683 -20.60678 -15.85734 -11.31075 -11.27642
 Alpha  occ. eigenvalues --  -11.27611 -11.27364 -11.26663 -11.26536 -11.22449
 Alpha  occ. eigenvalues --  -11.22269 -11.22114 -11.22089 -11.21933 -11.21467
 Alpha  occ. eigenvalues --   -1.59759  -1.39313  -1.19237  -1.09107  -1.08638
 Alpha  occ. eigenvalues --   -1.04635  -1.04242  -0.96729  -0.95480  -0.87770
 Alpha  occ. eigenvalues --   -0.86028  -0.82313  -0.80335  -0.78891  -0.77355
 Alpha  occ. eigenvalues --   -0.71954  -0.71082  -0.70354  -0.65731  -0.64885
 Alpha  occ. eigenvalues --   -0.64653  -0.62008  -0.61636  -0.60090  -0.58305
 Alpha  occ. eigenvalues --   -0.56022  -0.55151  -0.53483  -0.53287  -0.52967
 Alpha  occ. eigenvalues --   -0.52503  -0.50671  -0.48756  -0.48711  -0.48553
 Alpha  occ. eigenvalues --   -0.47334  -0.46436  -0.46334  -0.44724  -0.44477
 Alpha  occ. eigenvalues --   -0.37223  -0.36232
 Alpha virt. eigenvalues --    0.05159   0.11404   0.16638   0.20768   0.22300
 Alpha virt. eigenvalues --    0.23758   0.25609   0.25928   0.26999   0.28105
 Alpha virt. eigenvalues --    0.28987   0.30294   0.30809   0.31063   0.31946

 Mulliken charges:
               1
     1  C   -0.173941
     2  C   -0.218344
     3  C   -0.171712
     4  C    0.158984
     5  C   -0.175347
     6  C   -0.228088
     7  H    0.225068
     8  H    0.222750
     9  H    0.275068
    10  H    0.275441
    11  H    0.241654
    12  N    0.488071
    13  O   -0.460688
    14  O   -0.460907
    15  C   -0.298913
    16  C   -0.300049
    17  C   -0.476081
    18  H    0.151734
    19  H    0.150565
    20  H    0.152752
    21  H    0.151188
    22  H    0.155725
    23  H    0.156392
    24  H    0.161403
    25  C   -0.299065
    26  C   -0.299120
    27  C   -0.484948
    28  H    0.150906
    29  H    0.147008
    30  H    0.156723
    31  H    0.154995
    32  H    0.148108
    33  H    0.156698
    34  H    0.165972
 Sum of Mulliken charges =  -0.00000

 Dipole moment (field-independent basis, Debye):
    X=             -3.9656    Y=              3.0956    Z=              1.8642  Tot=              5.3651
 Quadrupole moment (field-independent basis, Debye-Ang):
   XX=           -121.9550   YY=            -90.9022   ZZ=            -95.2051
   XY=             14.7511   XZ=              6.8481   YZ=             -0.3411

 Normal termination of Gaussian 16 at Thu May  6 07:39:34 2021.
