 Gaussian 16, Revision A.03,
 Gaussian 16:  EM64L-G16RevA.03 25-Dec-2016

 -------------
 #p 6-31g* mp2
 -------------

 ------------------------------------------------------
 Input file generated by CHIRIPA (05-May-2021 14:53:11)
 ------------------------------------------------------
 Symbolic Z-matrix:
 Charge =  0 Multiplicity = 1

                         Standard orientation:
 ---------------------------------------------------------------------
 Center     Atomic      Atomic             Coordinates (Angstroms)
 Number     Number       Type             X           Y           Z
 ---------------------------------------------------------------------
      1          6           0        3.968685    0.007164   -0.211519
      2          6           0        3.935491   -1.345464    0.500719
      3          6           0        5.328597   -1.847145    0.881986
      4          1           0        4.589728   -0.075923   -1.113930
      5          1           0        4.459551    0.744272    0.438956
      6          1           0        3.443596   -2.079474   -0.150345
      7          1           0        3.314298   -1.259197    1.401437
      8          1           0        5.824107   -1.136534    1.551391
      9          1           0        5.954140   -1.961472   -0.009208
     10          1           0        5.281499   -2.815466    1.389920
     11          6           0        2.583559    0.521931   -0.599038
     12          6           0        2.616753    1.874558   -1.311276
     13          6           0        1.223647    2.376240   -1.692543
     14          1           0        2.092693   -0.215177   -1.249513
     15          1           0        1.962516    0.605018    0.303373
     16          1           0        3.237946    1.788291   -2.211994
     17          1           0        3.108648    2.608568   -0.660212
     18          1           0        0.598104    2.490566   -0.801350
     19          1           0        0.728137    1.665629   -2.361949
     20          1           0        1.270746    3.344560   -2.200477
     21          6           0       -3.781432   -1.490956   -1.478749
     22          6           0       -2.419606   -1.721017   -1.257335
     23          6           0       -1.732400   -1.015228   -0.265288
     24          6           0       -2.441335   -0.082518    0.490194
     25          6           0       -3.798283    0.169134    0.293582
     26          6           0       -4.465218   -0.548276   -0.703949
     27          1           0       -4.307397   -2.043743   -2.251525
     28          1           0       -1.886011   -2.452513   -1.857531
     29          1           0       -0.678233   -1.173538   -0.072712
     30          1           0       -4.303239    0.904664    0.907937
     31          1           0       -5.522841   -0.367532   -0.873683
     32          7           0       -1.724551    0.670820    1.543333
     33          8           0       -2.371884    1.487187    2.195362
     34          8           0       -0.528975    0.430655    1.696812
 ---------------------------------------------------------------------

 SCF Done:  E(RHF) =  -669.536523569     A.U. after   15 cycles
 E2 =    -0.2091889967D+01 EUMP2 =    -0.67162841353593D+03

 The electronic state is 1-A.
 Alpha  occ. eigenvalues --  -20.60940 -20.60934 -15.85968 -11.31236 -11.27806
 Alpha  occ. eigenvalues --  -11.27781 -11.27541 -11.26805 -11.26792 -11.21214
 Alpha  occ. eigenvalues --  -11.21111 -11.20919 -11.20753 -11.20740 -11.20624
 Alpha  occ. eigenvalues --   -1.59997  -1.39554  -1.19405  -1.08822  -1.07945
 Alpha  occ. eigenvalues --   -1.04796  -1.03095  -0.95673  -0.95542  -0.86565
 Alpha  occ. eigenvalues --   -0.86199  -0.82510  -0.79167  -0.77828  -0.77493
 Alpha  occ. eigenvalues --   -0.72196  -0.71305  -0.70518  -0.65071  -0.64802
 Alpha  occ. eigenvalues --   -0.64554  -0.62143  -0.60486  -0.58915  -0.57160
 Alpha  occ. eigenvalues --   -0.55310  -0.54821  -0.53130  -0.52891  -0.52264
 Alpha  occ. eigenvalues --   -0.51975  -0.49484  -0.48960  -0.48942  -0.47492
 Alpha  occ. eigenvalues --   -0.46201  -0.45404  -0.45296  -0.44701  -0.43331
 Alpha  occ. eigenvalues --   -0.37385  -0.36392
 Alpha virt. eigenvalues --    0.04937   0.11243   0.16412   0.21037   0.23297
 Alpha virt. eigenvalues --    0.24642   0.25988   0.27180   0.27674   0.28249
 Alpha virt. eigenvalues --    0.29294   0.31123   0.31745   0.32032   0.32282

 Mulliken charges:
               1
     1  C   -0.297107
     2  C   -0.300697
     3  C   -0.475293
     4  H    0.145991
     5  H    0.151459
     6  H    0.144928
     7  H    0.159285
     8  H    0.156467
     9  H    0.153237
    10  H    0.158767
    11  C   -0.312016
    12  C   -0.297810
    13  C   -0.477800
    14  H    0.136232
    15  H    0.179388
    16  H    0.147838
    17  H    0.154163
    18  H    0.162900
    19  H    0.148220
    20  H    0.158423
    21  C   -0.170331
    22  C   -0.219332
    23  C   -0.171363
    24  C    0.157701
    25  C   -0.170613
    26  C   -0.218718
    27  H    0.225785
    28  H    0.223699
    29  H    0.279288
    30  H    0.275547
    31  H    0.223587
    32  N    0.491219
    33  O   -0.458953
    34  O   -0.464089
 Sum of Mulliken charges =  -0.00000

 Dipole moment (field-independent basis, Debye):
    X=             -2.6632    Y=             -2.5787    Z=             -3.5052  Tot=              5.1018
 Quadrupole moment (field-independent basis, Debye-Ang):
   XX=            -80.1728   YY=            -93.8715   ZZ=            -98.4280
   XY=              5.1390   XZ=              6.9921   YZ=              0.5471

 Normal termination of Gaussian 16 at Thu May  6 04:04:07 2021.
