 Gaussian 16, Revision A.03,
 Gaussian 16:  EM64L-G16RevA.03 25-Dec-2016

 -------------
 #p 6-31g* mp2
 -------------

 ------------------------------------------------------
 Input file generated by CHIRIPA (05-May-2021 14:57:27)
 ------------------------------------------------------
 Symbolic Z-matrix:
 Charge =  0 Multiplicity = 1

                         Standard orientation:
 ---------------------------------------------------------------------
 Center     Atomic      Atomic             Coordinates (Angstroms)
 Number     Number       Type             X           Y           Z
 ---------------------------------------------------------------------
      1          6           0       -2.411647    2.005312    0.763825
      2          6           0       -1.889174    0.708737    0.813183
      3          6           0       -2.683564   -0.390285    0.473120
      4          6           0       -4.002087   -0.155225    0.086425
      5          6           0       -4.551543    1.124576    0.027291
      6          6           0       -3.738825    2.208734    0.371728
      7          1           0       -1.787427    2.853285    1.029693
      8          1           0       -0.858820    0.547761    1.117324
      9          1           0       -2.304586   -1.404646    0.502544
     10          1           0       -5.582332    1.253484   -0.279752
     11          1           0       -4.147258    3.214561    0.332476
     12          7           0       -4.852774   -1.310843   -0.275900
     13          8           0       -6.011288   -1.077108   -0.613320
     14          8           0       -4.344922   -2.428469   -0.215610
     15          6           0        1.565216    0.863363   -0.678835
     16          6           0        2.691175    1.676086   -0.846825
     17          6           0        3.968567    1.188710   -0.554795
     18          6           0        4.083917   -0.122108   -0.094642
     19          6           0        2.981334   -0.956396    0.083022
     20          6           0        1.713627   -0.447972   -0.215266
     21          1           0        0.576669    1.250143   -0.908121
     22          1           0        2.578924    2.694883   -1.206681
     23          1           0        4.857220    1.796229   -0.675766
     24          1           0        3.124920   -1.967790    0.443413
     25          1           0        0.840973   -1.081414   -0.083852
     26          7           0        5.431108   -0.649212    0.217829
     27          8           0        5.505978   -1.807584    0.621817
     28          8           0        6.386658    0.105997    0.052840
 ---------------------------------------------------------------------

 SCF Done:  E(RHF) =  -868.336571006     A.U. after   16 cycles
 E2 =    -0.2601408475D+01 EUMP2 =    -0.87093797948145D+03

 The electronic state is 1-A.
 Alpha  occ. eigenvalues --  -20.61505 -20.61496 -20.61257 -20.61251 -15.86564
 Alpha  occ. eigenvalues --  -15.86317 -11.32116 -11.31839 -11.28769 -11.28663
 Alpha  occ. eigenvalues --  -11.28488 -11.28448 -11.28423 -11.28201 -11.27767
 Alpha  occ. eigenvalues --  -11.27696 -11.27543 -11.27462  -1.60575  -1.60329
 Alpha  occ. eigenvalues --   -1.40124  -1.39878  -1.20312  -1.20043  -1.09677
 Alpha  occ. eigenvalues --   -1.09415  -1.05753  -1.05464  -0.96472  -0.96219
 Alpha  occ. eigenvalues --   -0.87158  -0.86851  -0.83305  -0.83043  -0.78345
 Alpha  occ. eigenvalues --   -0.78041  -0.72778  -0.72532  -0.71901  -0.71655
 Alpha  occ. eigenvalues --   -0.71425  -0.71159  -0.65980  -0.65931  -0.65651
 Alpha  occ. eigenvalues --   -0.65358  -0.63134  -0.62716  -0.56231  -0.56000
 Alpha  occ. eigenvalues --   -0.54032  -0.53986  -0.53628  -0.53536  -0.49549
 Alpha  occ. eigenvalues --   -0.49523  -0.49305  -0.49275  -0.45489  -0.45248
 Alpha  occ. eigenvalues --   -0.38319  -0.38032  -0.37342  -0.37070
 Alpha virt. eigenvalues --    0.04208   0.04463   0.10129   0.10421   0.15595
 Alpha virt. eigenvalues --    0.15889   0.19184   0.21838   0.24437   0.26764
 Alpha virt. eigenvalues --    0.28024   0.28713   0.30111   0.30474   0.31960

 Mulliken charges:
               1
     1  C   -0.175125
     2  C   -0.230361
     3  C   -0.173724
     4  C    0.159813
     5  C   -0.169293
     6  C   -0.217664
     7  H    0.227348
     8  H    0.228041
     9  H    0.274304
    10  H    0.278919
    11  H    0.226716
    12  N    0.488123
    13  O   -0.457324
    14  O   -0.459214
    15  C   -0.178497
    16  C   -0.219061
    17  C   -0.169522
    18  C    0.158828
    19  C   -0.169538
    20  C   -0.224742
    21  H    0.229334
    22  H    0.224245
    23  H    0.277745
    24  H    0.278728
    25  H    0.220911
    26  N    0.488008
    27  O   -0.458222
    28  O   -0.458780
 Sum of Mulliken charges =  -0.00000

 Dipole moment (field-independent basis, Debye):
    X=             -1.8071    Y=              5.9432    Z=              0.1501  Tot=              6.2137
 Quadrupole moment (field-independent basis, Debye-Ang):
   XX=           -162.4566   YY=           -100.9948   ZZ=           -105.4735
   XY=             -9.5772   XZ=             -8.8172   YZ=             -1.8656

 Normal termination of Gaussian 16 at Thu May  6 10:00:11 2021.
