 Gaussian 16, Revision A.03,
 Gaussian 16:  EM64L-G16RevA.03 25-Dec-2016

 -------------
 #p 6-31g* mp2
 -------------

 ------------------------------------------------------
 Input file generated by CHIRIPA (05-May-2021 14:57:22)
 ------------------------------------------------------
 Symbolic Z-matrix:
 Charge =  0 Multiplicity = 1

                         Standard orientation:
 ---------------------------------------------------------------------
 Center     Atomic      Atomic             Coordinates (Angstroms)
 Number     Number       Type             X           Y           Z
 ---------------------------------------------------------------------
      1          6           0        4.184089   -2.237844    0.469231
      2          6           0        3.105341   -1.975009   -0.381498
      3          6           0        2.765970   -0.659707   -0.712189
      4          6           0        3.530300    0.373275   -0.171786
      5          6           0        4.610775    0.143635    0.678585
      6          6           0        4.932044   -1.179549    0.995630
      7          1           0        4.440690   -3.262664    0.720820
      8          1           0        2.522700   -2.794914   -0.791780
      9          1           0        1.935860   -0.427791   -1.368353
     10          1           0        5.172942    0.981834    1.072041
     11          1           0        5.770341   -1.380690    1.656573
     12          7           0        3.180605    1.769899   -0.514650
     13          8           0        3.869716    2.662331   -0.025440
     14          8           0        2.224024    1.945695   -1.266106
     15          6           0       -1.131737   -0.719473    0.143689
     16          6           0       -2.020436   -1.480174   -0.623167
     17          6           0       -3.383431   -1.169934   -0.646431
     18          6           0       -3.825390   -0.087373    0.112531
     19          6           0       -2.964817    0.689533    0.886560
     20          6           0       -1.605928    0.361048    0.894781
     21          1           0       -0.074525   -0.967561    0.155919
     22          1           0       -1.654993   -2.319877   -1.207458
     23          1           0       -4.093366   -1.742079   -1.231291
     24          1           0       -3.358822    1.520731    1.458650
     25          1           0       -0.918052    0.953576    1.491257
     26          7           0       -5.266159    0.250722    0.095865
     27          8           0       -5.630439    1.209407    0.773258
     28          8           0       -6.003872   -0.449366   -0.594275
 ---------------------------------------------------------------------

 SCF Done:  E(RHF) =  -868.337098344     A.U. after   16 cycles
 E2 =    -0.2600585630D+01 EUMP2 =    -0.87093768397342D+03

 The electronic state is 1-A.
 Alpha  occ. eigenvalues --  -20.61664 -20.61654 -20.60662 -20.60651 -15.86720
 Alpha  occ. eigenvalues --  -15.85713 -11.32237 -11.31101 -11.28855 -11.28750
 Alpha  occ. eigenvalues --  -11.28507 -11.27901 -11.27765 -11.27702 -11.27625
 Alpha  occ. eigenvalues --  -11.27440 -11.26787 -11.26644  -1.60741  -1.59733
 Alpha  occ. eigenvalues --   -1.40288  -1.39286  -1.20413  -1.19277  -1.09758
 Alpha  occ. eigenvalues --   -1.08683  -1.05842  -1.04683  -0.96576  -0.95514
 Alpha  occ. eigenvalues --   -0.87209  -0.86091  -0.83407  -0.82344  -0.78447
 Alpha  occ. eigenvalues --   -0.77374  -0.72924  -0.72082  -0.71933  -0.71511
 Alpha  occ. eigenvalues --   -0.71054  -0.70414  -0.66048  -0.65809  -0.64940
 Alpha  occ. eigenvalues --   -0.64709  -0.63172  -0.62033  -0.56282  -0.55319
 Alpha  occ. eigenvalues --   -0.54075  -0.53878  -0.53000  -0.52787  -0.49698
 Alpha  occ. eigenvalues --   -0.49678  -0.48694  -0.48684  -0.45659  -0.44687
 Alpha  occ. eigenvalues --   -0.38362  -0.37455  -0.37258  -0.36270
 Alpha virt. eigenvalues --    0.04028   0.05144   0.10162   0.11374   0.15440
 Alpha virt. eigenvalues --    0.16564   0.19842   0.21865   0.25818   0.27189
 Alpha virt. eigenvalues --    0.27436   0.29418   0.30031   0.31016   0.31766

 Mulliken charges:
               1
     1  C   -0.169977
     2  C   -0.220635
     3  C   -0.181016
     4  C    0.157778
     5  C   -0.170386
     6  C   -0.217422
     7  H    0.229339
     8  H    0.222909
     9  H    0.276254
    10  H    0.278940
    11  H    0.227656
    12  N    0.487081
    13  O   -0.456840
    14  O   -0.459209
    15  C   -0.173338
    16  C   -0.219928
    17  C   -0.170325
    18  C    0.158827
    19  C   -0.170087
    20  C   -0.216320
    21  H    0.222765
    22  H    0.217390
    23  H    0.274919
    24  H    0.276994
    25  H    0.227120
    26  N    0.488042
    27  O   -0.459402
    28  O   -0.461128
 Sum of Mulliken charges =  -0.00000

 Dipole moment (field-independent basis, Debye):
    X=              6.5928    Y=             -5.9691    Z=              1.3766  Tot=              8.9995
 Quadrupole moment (field-independent basis, Debye-Ang):
   XX=           -131.3731   YY=           -105.5982   ZZ=           -102.6597
   XY=            -11.1262   XZ=              7.7590   YZ=              4.9431

 Normal termination of Gaussian 16 at Fri May  7 04:52:41 2021.
