 Gaussian 16, Revision A.03,
 Gaussian 16:  EM64L-G16RevA.03 25-Dec-2016

 -------------
 #p 6-31g* mp2
 -------------

 ------------------------------------------------------
 Input file generated by CHIRIPA (05-May-2021 14:51:13)
 ------------------------------------------------------
 Symbolic Z-matrix:
 Charge =  0 Multiplicity = 1

                         Standard orientation:
 ---------------------------------------------------------------------
 Center     Atomic      Atomic             Coordinates (Angstroms)
 Number     Number       Type             X           Y           Z
 ---------------------------------------------------------------------
      1          6           0        2.764430   -0.461743    0.448892
      2          6           0        1.951015   -1.532045   -0.279665
      3          6           0        0.703485   -1.956359    0.495848
      4          1           0        3.057005   -0.842053    1.437178
      5          1           0        2.126782    0.415100    0.627627
      6          1           0        2.590404   -2.406072   -0.458200
      7          1           0        1.660506   -1.149214   -1.266407
      8          1           0        0.042877   -1.099210    0.661662
      9          1           0        0.978058   -2.363209    1.474461
     10          1           0        0.136881   -2.722114   -0.043076
     11          6           0        4.014675   -0.027224   -0.313873
     12          6           0        4.828089    1.043078    0.414684
     13          6           0        6.075620    1.467392   -0.360829
     14          1           0        4.652323   -0.904067   -0.492608
     15          1           0        3.722100    0.353086   -1.302159
     16          1           0        5.118599    0.660248    1.401426
     17          1           0        4.188700    1.917105    0.593219
     18          1           0        5.801046    1.874243   -1.339442
     19          1           0        6.736228    0.610244   -0.526643
     20          1           0        6.642223    2.233148    0.178095
     21          6           0       -3.310808    0.939727   -0.373888
     22          6           0       -3.893971    2.054764    0.494787
     23          6           0       -3.728762    3.439759   -0.131542
     24          1           0       -2.244860    1.139661   -0.549180
     25          1           0       -3.798373    0.958457   -1.358430
     26          1           0       -3.406430    2.033057    1.477869
     27          1           0       -4.958610    1.852052    0.668192
     28          1           0       -4.230553    3.485351   -1.103514
     29          1           0       -2.669555    3.667385   -0.289236
     30          1           0       -4.152573    4.221864    0.506075
     31          6           0       -3.468297   -0.450761    0.238869
     32          6           0       -2.885133   -1.565797   -0.629806
     33          6           0       -3.050342   -2.950792   -0.003477
     34          1           0       -2.980731   -0.469491    1.223412
     35          1           0       -4.534244   -0.650695    0.414162
     36          1           0       -1.820495   -1.363085   -0.803211
     37          1           0       -3.372674   -1.544090   -1.612888
     38          1           0       -4.109550   -3.178419    0.154217
     39          1           0       -2.548551   -2.996385    0.968495
     40          1           0       -2.626532   -3.732897   -0.641094
 ---------------------------------------------------------------------

 SCF Done:  E(RHF) =  -470.732264720     A.U. after   11 cycles
 E2 =    -0.1583606834D+01 EUMP2 =    -0.47231587155325D+03

 The electronic state is 1-A.
 Alpha  occ. eigenvalues --  -11.21656 -11.21630 -11.21598 -11.21448 -11.21431
 Alpha  occ. eigenvalues --  -11.21387 -11.21382 -11.21306 -11.21097 -11.21092
 Alpha  occ. eigenvalues --  -11.21076 -11.20988  -1.08481  -1.08385  -1.03612
 Alpha  occ. eigenvalues --   -1.03449  -0.96066  -0.95907  -0.87052  -0.86958
 Alpha  occ. eigenvalues --   -0.79672  -0.79522  -0.78289  -0.78201  -0.65209
 Alpha  occ. eigenvalues --   -0.64961  -0.61204  -0.60741  -0.59456  -0.59218
 Alpha  occ. eigenvalues --   -0.57690  -0.57493  -0.55367  -0.55194  -0.52700
 Alpha  occ. eigenvalues --   -0.52597  -0.52458  -0.52350  -0.50107  -0.49775
 Alpha  occ. eigenvalues --   -0.47962  -0.47843  -0.46793  -0.46451  -0.45851
 Alpha  occ. eigenvalues --   -0.45782  -0.45700  -0.45580  -0.43802  -0.43738
 Alpha virt. eigenvalues --    0.20874   0.23060   0.23654   0.24788   0.25901
 Alpha virt. eigenvalues --    0.26724   0.26955   0.27554   0.27744   0.29364
 Alpha virt. eigenvalues --    0.30592   0.31475   0.31692   0.31966   0.32158

 Mulliken charges:
               1
     1  C   -0.298468
     2  C   -0.301546
     3  C   -0.480954
     4  H    0.149883
     5  H    0.149212
     6  H    0.152530
     7  H    0.152289
     8  H    0.156622
     9  H    0.155523
    10  H    0.165848
    11  C   -0.298314
    12  C   -0.299666
    13  C   -0.475735
    14  H    0.149693
    15  H    0.149738
    16  H    0.151993
    17  H    0.151876
    18  H    0.155248
    19  H    0.155247
    20  H    0.160350
    21  C   -0.298294
    22  C   -0.299603
    23  C   -0.475631
    24  H    0.148365
    25  H    0.149717
    26  H    0.151835
    27  H    0.152124
    28  H    0.155215
    29  H    0.154808
    30  H    0.160282
    31  C   -0.299203
    32  C   -0.305134
    33  C   -0.477032
    34  H    0.149589
    35  H    0.149606
    36  H    0.160192
    37  H    0.150811
    38  H    0.154891
    39  H    0.157507
    40  H    0.158584
 Sum of Mulliken charges =  -0.00000

 Dipole moment (field-independent basis, Debye):
    X=              0.0399    Y=             -0.0214    Z=              0.0085  Tot=              0.0460
 Quadrupole moment (field-independent basis, Debye-Ang):
   XX=            -84.6682   YY=            -85.5469   ZZ=            -84.6734
   XY=             -0.7922   XZ=              1.0581   YZ=              0.1939

 Normal termination of Gaussian 16 at Wed May  5 15:19:36 2021.
