 Gaussian 16, Revision A.03,
 Gaussian 16:  EM64L-G16RevA.03 25-Dec-2016

 -------------
 #p 6-31g* mp2
 -------------

 ------------------------------------------------------
 Input file generated by CHIRIPA (05-May-2021 14:57:24)
 ------------------------------------------------------
 Symbolic Z-matrix:
 Charge =  0 Multiplicity = 1

                         Standard orientation:
 ---------------------------------------------------------------------
 Center     Atomic      Atomic             Coordinates (Angstroms)
 Number     Number       Type             X           Y           Z
 ---------------------------------------------------------------------
      1          6           0        3.784974   -2.010434    0.746010
      2          6           0        2.597017   -1.474800    1.254317
      3          6           0        2.202315   -0.176567    0.917640
      4          6           0        3.023277    0.561355    0.066299
      5          6           0        4.212562    0.055673   -0.456364
      6          6           0        4.587540   -1.244838   -0.106206
      7          1           0        4.083927   -3.019817    1.012785
      8          1           0        1.971760   -2.067072    1.916368
      9          1           0        1.287664    0.262795    1.296839
     10          1           0        4.815047    0.670307   -1.114129
     11          1           0        5.510649   -1.658231   -0.502465
     12          7           0        2.615864    1.936941   -0.297262
     13          8           0        3.356695    2.566598   -1.049153
     14          8           0        1.563417    2.359423    0.176554
     15          6           0       -4.941782    1.055164    0.877192
     16          6           0       -3.846404    0.677707    1.660897
     17          6           0       -2.814829   -0.092283    1.115447
     18          6           0       -2.911441   -0.469003   -0.223224
     19          6           0       -3.989837   -0.108701   -1.029781
     20          6           0       -5.009883    0.661449   -0.463282
     21          1           0       -5.738657    1.653374    1.309086
     22          1           0       -3.790856    0.982033    2.702216
     23          1           0       -1.955391   -0.398412    1.699458
     24          1           0       -4.017180   -0.427222   -2.064776
     25          1           0       -5.859370    0.953130   -1.074297
     26          7           0       -1.825461   -1.284243   -0.811809
     27          8           0       -1.934241   -1.603340   -1.993749
     28          8           0       -0.886054   -1.588693   -0.080058
 ---------------------------------------------------------------------

 SCF Done:  E(RHF) =  -868.339010051     A.U. after   16 cycles
 E2 =    -0.2599501147D+01 EUMP2 =    -0.87093851119806D+03

 The electronic state is 1-A.
 Alpha  occ. eigenvalues --  -20.61049 -20.61000 -20.60141 -20.60125 -15.86062
 Alpha  occ. eigenvalues --  -15.85181 -11.31248 -11.30285 -11.27853 -11.27770
 Alpha  occ. eigenvalues --  -11.27496 -11.26878 -11.26818 -11.26786 -11.26757
 Alpha  occ. eigenvalues --  -11.26567 -11.25867 -11.25754  -1.60080  -1.59210
 Alpha  occ. eigenvalues --   -1.39649  -1.38774  -1.19397  -1.18443  -1.08823
 Alpha  occ. eigenvalues --   -1.07898  -1.04786  -1.03808  -0.95697  -0.94775
 Alpha  occ. eigenvalues --   -0.86196  -0.85240  -0.82553  -0.81615  -0.77628
 Alpha  occ. eigenvalues --   -0.76686  -0.72307  -0.71425  -0.71369  -0.70528
 Alpha  occ. eigenvalues --   -0.70518  -0.69592  -0.65068  -0.64799  -0.64112
 Alpha  occ. eigenvalues --   -0.63841  -0.62158  -0.61180  -0.55293  -0.54370
 Alpha  occ. eigenvalues --   -0.53100  -0.52891  -0.52134  -0.51932  -0.49063
 Alpha  occ. eigenvalues --   -0.49017  -0.48176  -0.48144  -0.45092  -0.44237
 Alpha  occ. eigenvalues --   -0.37352  -0.36424  -0.36366  -0.35333
 Alpha virt. eigenvalues --    0.04880   0.05872   0.11272   0.12281   0.16447
 Alpha virt. eigenvalues --    0.17391   0.20845   0.22297   0.26018   0.27668
 Alpha virt. eigenvalues --    0.28660   0.29330   0.31157   0.31649   0.32241

 Mulliken charges:
               1
     1  C   -0.170638
     2  C   -0.209530
     3  C   -0.156636
     4  C    0.155930
     5  C   -0.171475
     6  C   -0.218698
     7  H    0.223177
     8  H    0.223490
     9  H    0.269528
    10  H    0.272410
    11  H    0.220149
    12  N    0.488829
    13  O   -0.462610
    14  O   -0.465606
    15  C   -0.169681
    16  C   -0.216831
    17  C   -0.167472
    18  C    0.160783
    19  C   -0.169639
    20  C   -0.217837
    21  H    0.226598
    22  H    0.223802
    23  H    0.267765
    24  H    0.276075
    25  H    0.224344
    26  N    0.491317
    27  O   -0.456571
    28  O   -0.470971
 Sum of Mulliken charges =  -0.00000

 Dipole moment (field-independent basis, Debye):
    X=             -2.6977    Y=             -2.0520    Z=              3.3022  Tot=              4.7321
 Quadrupole moment (field-independent basis, Debye-Ang):
   XX=            -70.1082   YY=           -114.5944   ZZ=           -100.8134
   XY=            -20.8039   XZ=             -1.3714   YZ=             -1.4229

 Normal termination of Gaussian 16 at Thu May  6 03:28:51 2021.
