 Gaussian 16, Revision A.03,
 Gaussian 16:  EM64L-G16RevA.03 25-Dec-2016

 -------------
 #p 6-31g* mp2
 -------------

 ------------------------------------------------------
 Input file generated by CHIRIPA (05-May-2021 14:57:23)
 ------------------------------------------------------
 Symbolic Z-matrix:
 Charge =  0 Multiplicity = 1

                         Standard orientation:
 ---------------------------------------------------------------------
 Center     Atomic      Atomic             Coordinates (Angstroms)
 Number     Number       Type             X           Y           Z
 ---------------------------------------------------------------------
      1          6           0        4.275785   -2.345643   -0.443092
      2          6           0        2.959837   -1.902271   -0.611087
      3          6           0        2.636867   -0.553663   -0.433617
      4          6           0        3.659296    0.328168   -0.086771
      5          6           0        4.979832   -0.082938    0.087774
      6          6           0        5.279813   -1.436165   -0.094812
      7          1           0        4.517746   -3.395068   -0.582942
      8          1           0        2.178052   -2.606335   -0.881553
      9          1           0        1.626420   -0.183387   -0.557349
     10          1           0        5.737624    0.642594    0.357537
     11          1           0        6.302667   -1.777660    0.036319
     12          7           0        3.329552    1.758324    0.103817
     13          8           0        4.248490    2.515221    0.409262
     14          8           0        2.158404    2.095303   -0.055855
     15          6           0       -6.127569    0.242491   -0.535033
     16          6           0       -5.712848   -0.976671    0.011017
     17          6           0       -4.377854   -1.173423    0.376568
     18          6           0       -3.480273   -0.124844    0.181333
     19          6           0       -3.862807    1.101364   -0.360306
     20          6           0       -5.202855    1.275797   -0.718627
     21          1           0       -7.166586    0.386664   -0.816193
     22          1           0       -6.428798   -1.780914    0.154738
     23          1           0       -4.029736   -2.107089    0.801422
     24          1           0       -3.125984    1.884485   -0.491572
     25          1           0       -5.522097    2.223680   -1.142475
     26          7           0       -2.064299   -0.321322    0.564498
     27          8           0       -1.293057    0.618172    0.382362
     28          8           0       -1.752514   -1.411095    1.039704
 ---------------------------------------------------------------------

 SCF Done:  E(RHF) =  -868.338838645     A.U. after   16 cycles
 E2 =    -0.2599178247D+01 EUMP2 =    -0.87093801689131D+03

 The electronic state is 1-A.
 Alpha  occ. eigenvalues --  -20.61024 -20.60939 -20.59626 -20.59560 -15.85990
 Alpha  occ. eigenvalues --  -15.84645 -11.31262 -11.30003 -11.27849 -11.27777
 Alpha  occ. eigenvalues --  -11.27558 -11.26835 -11.26788 -11.26687 -11.26436
 Alpha  occ. eigenvalues --  -11.26427 -11.25718 -11.25568  -1.60052  -1.58679
 Alpha  occ. eigenvalues --   -1.39598  -1.38223  -1.19430  -1.18208  -1.08848
 Alpha  occ. eigenvalues --   -1.07626  -1.04813  -1.03600  -0.95692  -0.94445
 Alpha  occ. eigenvalues --   -0.86216  -0.85007  -0.82516  -0.81265  -0.77578
 Alpha  occ. eigenvalues --   -0.76286  -0.72190  -0.71367  -0.70863  -0.70534
 Alpha  occ. eigenvalues --   -0.70005  -0.69330  -0.65079  -0.64815  -0.63863
 Alpha  occ. eigenvalues --   -0.63617  -0.62154  -0.60918  -0.55327  -0.54162
 Alpha  occ. eigenvalues --   -0.53155  -0.52901  -0.51957  -0.51694  -0.48994
 Alpha  occ. eigenvalues --   -0.48953  -0.47653  -0.47594  -0.45019  -0.43629
 Alpha  occ. eigenvalues --   -0.37414  -0.36413  -0.36241  -0.35203
 Alpha virt. eigenvalues --    0.04917   0.06224   0.11242   0.12442   0.16420
 Alpha virt. eigenvalues --    0.17684   0.21393   0.22541   0.27322   0.28248
 Alpha virt. eigenvalues --    0.28491   0.29488   0.30966   0.32015   0.32556

 Mulliken charges:
               1
     1  C   -0.171334
     2  C   -0.219808
     3  C   -0.171863
     4  C    0.155025
     5  C   -0.171935
     6  C   -0.219845
     7  H    0.221336
     8  H    0.224266
     9  H    0.293060
    10  H    0.271977
    11  H    0.218813
    12  N    0.486830
    13  O   -0.467839
    14  O   -0.452449
    15  C   -0.170426
    16  C   -0.218785
    17  C   -0.171298
    18  C    0.157101
    19  C   -0.170993
    20  C   -0.218845
    21  H    0.226029
    22  H    0.223144
    23  H    0.274156
    24  H    0.280844
    25  H    0.225103
    26  N    0.486897
    27  O   -0.453057
    28  O   -0.466104
 Sum of Mulliken charges =  -0.00000

 Dipole moment (field-independent basis, Debye):
    X=             -4.2862    Y=             -4.1955    Z=             -2.0389  Tot=              6.3349
 Quadrupole moment (field-independent basis, Debye-Ang):
   XX=            -59.1405   YY=           -104.8208   ZZ=           -106.2194
   XY=            -18.1247   XZ=              2.2733   YZ=             -0.9336

 Normal termination of Gaussian 16 at Fri May  7 00:19:28 2021.
