 Gaussian 16, Revision A.03,
 Gaussian 16:  EM64L-G16RevA.03 25-Dec-2016

 -------------
 #p 6-31g* mp2
 -------------

 ------------------------------------------------------
 Input file generated by CHIRIPA (05-May-2021 14:53:15)
 ------------------------------------------------------
 Symbolic Z-matrix:
 Charge =  0 Multiplicity = 1

                         Standard orientation:
 ---------------------------------------------------------------------
 Center     Atomic      Atomic             Coordinates (Angstroms)
 Number     Number       Type             X           Y           Z
 ---------------------------------------------------------------------
      1          6           0        4.014664   -0.198067    0.270024
      2          6           0        5.456956    0.089597   -0.148342
      3          6           0        6.439237    0.006646    1.020434
      4          1           0        3.717418    0.514133    1.051919
      5          1           0        3.964012   -1.198115    0.722497
      6          1           0        5.504617    1.088251   -0.601149
      7          1           0        5.750739   -0.623248   -0.929468
      8          1           0        6.421179   -0.992020    1.468696
      9          1           0        6.173658    0.729203    1.798881
     10          1           0        7.464319    0.215729    0.698950
     11          6           0        3.020868   -0.118933   -0.887489
     12          6           0        1.578577   -0.406597   -0.469123
     13          6           0        0.596295   -0.323646   -1.637899
     14          1           0        3.071521    0.881116   -1.339963
     15          1           0        3.318115   -0.831133   -1.669384
     16          1           0        1.284793    0.306249    0.312003
     17          1           0        1.530915   -1.405251   -0.016316
     18          1           0        0.861874   -1.046203   -2.416346
     19          1           0        0.614354    0.675021   -2.086161
     20          1           0       -0.428787   -0.532728   -1.316415
     21          6           0       -2.341705    2.611921    0.141022
     22          6           0       -2.749900    1.922611   -1.005604
     23          6           0       -2.978089    0.544006   -0.961735
     24          6           0       -2.787558   -0.116712    0.250882
     25          6           0       -2.381432    0.542018    1.410376
     26          6           0       -2.159096    1.920643    1.343233
     27          1           0       -2.166716    3.682862    0.097904
     28          1           0       -2.892510    2.456875   -1.940627
     29          1           0       -3.294602   -0.014382   -1.834342
     30          1           0       -2.247644   -0.017869    2.328005
     31          1           0       -1.842139    2.453376    2.235297
     32          7           0       -3.026035   -1.576190    0.309643
     33          8           0       -2.851106   -2.135228    1.390158
     34          8           0       -3.383366   -2.133455   -0.725928
 ---------------------------------------------------------------------

 SCF Done:  E(RHF) =  -669.534363487     A.U. after   15 cycles
 E2 =    -0.2093444956D+01 EUMP2 =    -0.67162780844254D+03

 The electronic state is 1-A.
 Alpha  occ. eigenvalues --  -20.60826 -20.60813 -15.85867 -11.31203 -11.27823
 Alpha  occ. eigenvalues --  -11.27782 -11.27569 -11.26833 -11.26803 -11.21638
 Alpha  occ. eigenvalues --  -11.21529 -11.21414 -11.21350 -11.21112 -11.20913
 Alpha  occ. eigenvalues --   -1.59896  -1.39448  -1.19426  -1.08816  -1.08425
 Alpha  occ. eigenvalues --   -1.04822  -1.03510  -0.95970  -0.95641  -0.86991
 Alpha  occ. eigenvalues --   -0.86218  -0.82473  -0.79580  -0.78242  -0.77518
 Alpha  occ. eigenvalues --   -0.72087  -0.71238  -0.70528  -0.65070  -0.65057
 Alpha  occ. eigenvalues --   -0.64818  -0.62164  -0.60909  -0.59402  -0.57634
 Alpha  occ. eigenvalues --   -0.55324  -0.55270  -0.53503  -0.52908  -0.52466
 Alpha  occ. eigenvalues --   -0.52145  -0.49900  -0.48850  -0.48841  -0.47901
 Alpha  occ. eigenvalues --   -0.46613  -0.45785  -0.45710  -0.44853  -0.43783
 Alpha  occ. eigenvalues --   -0.37352  -0.36354
 Alpha virt. eigenvalues --    0.04994   0.11174   0.16476   0.21367   0.22840
 Alpha virt. eigenvalues --    0.24263   0.26640   0.27178   0.27476   0.27950
 Alpha virt. eigenvalues --    0.28309   0.30624   0.31404   0.31828   0.31876

 Mulliken charges:
               1
     1  C   -0.298061
     2  C   -0.299534
     3  C   -0.475632
     4  H    0.147214
     5  H    0.151527
     6  H    0.150587
     7  H    0.152780
     8  H    0.156199
     9  H    0.154066
    10  H    0.160170
    11  C   -0.298260
    12  C   -0.300384
    13  C   -0.477255
    14  H    0.146793
    15  H    0.150913
    16  H    0.148520
    17  H    0.156396
    18  H    0.156532
    19  H    0.148973
    20  H    0.164194
    21  C   -0.171210
    22  C   -0.213489
    23  C   -0.174944
    24  C    0.158885
    25  C   -0.171000
    26  C   -0.218384
    27  H    0.225820
    28  H    0.223856
    29  H    0.276042
    30  H    0.276085
    31  H    0.223676
    32  N    0.489499
    33  O   -0.460251
    34  O   -0.460323
 Sum of Mulliken charges =  -0.00000

 Dipole moment (field-independent basis, Debye):
    X=              0.7624    Y=              5.1236    Z=             -0.1917  Tot=              5.1836
 Quadrupole moment (field-independent basis, Debye-Ang):
   XX=           -100.6989   YY=            -95.5080   ZZ=            -90.7629
   XY=            -14.9077   XZ=              1.5974   YZ=              1.5433

 Normal termination of Gaussian 16 at Wed May  5 18:39:35 2021.
