 Gaussian 16, Revision A.03,
 Gaussian 16:  EM64L-G16RevA.03 25-Dec-2016

 -------------
 #p 6-31g* mp2
 -------------

 ------------------------------------------------------
 Input file generated by CHIRIPA (05-May-2021 14:55:25)
 ------------------------------------------------------
 Symbolic Z-matrix:
 Charge =  0 Multiplicity = 1

                         Standard orientation:
 ---------------------------------------------------------------------
 Center     Atomic      Atomic             Coordinates (Angstroms)
 Number     Number       Type             X           Y           Z
 ---------------------------------------------------------------------
      1          6           0       -1.780818    1.853148    0.867926
      2          6           0       -1.551006    0.575087    1.387798
      3          6           0       -2.363345   -0.499821    1.014668
      4          6           0       -3.401193   -0.259787    0.115476
      5          6           0       -3.655498    1.001969   -0.419865
      6          6           0       -2.830480    2.062142   -0.032659
      7          1           0       -1.144849    2.682439    1.163249
      8          1           0       -0.736561    0.409838    2.087382
      9          1           0       -2.207790   -1.499495    1.401802
     10          1           0       -4.475132    1.135699   -1.115375
     11          1           0       -3.011298    3.053627   -0.438006
     12          7           0       -4.267891   -1.389944   -0.286991
     13          8           0       -5.175689   -1.152303   -1.080758
     14          8           0       -4.023000   -2.492002    0.198944
     15          6           0        3.776050    0.748093   -0.232785
     16          6           0        2.307863    0.570301   -0.621115
     17          6           0        1.531527    1.887524   -0.616692
     18          1           0        3.832148    1.205071    0.764696
     19          1           0        4.248827    1.455753   -0.927835
     20          1           0        1.838348   -0.137875    0.073621
     21          1           0        2.255254    0.113516   -1.617707
     22          1           0        1.973537    2.597573   -1.323134
     23          1           0        1.554262    2.344753    0.377805
     24          1           0        0.484327    1.737280   -0.897156
     25          6           0        4.565326   -0.559872   -0.232642
     26          6           0        6.033514   -0.382080    0.155688
     27          6           0        6.809850   -1.699304    0.151266
     28          1           0        4.092549   -1.267533    0.462408
     29          1           0        4.509228   -1.016851   -1.230122
     30          1           0        6.086123    0.074704    1.152281
     31          1           0        6.503030    0.326095   -0.539048
     32          1           0        6.787114   -2.156533   -0.843231
     33          1           0        6.367839   -2.409353    0.857707
     34          1           0        7.857050   -1.549060    0.431729
 ---------------------------------------------------------------------

 SCF Done:  E(RHF) =  -669.534890973     A.U. after   15 cycles
 E2 =    -0.2092210561D+01 EUMP2 =    -0.67162710153399D+03

 The electronic state is 1-A.
 Alpha  occ. eigenvalues --  -20.60765 -20.60760 -15.85822 -11.31185 -11.27787
 Alpha  occ. eigenvalues --  -11.27781 -11.27493 -11.26773 -11.26763 -11.22192
 Alpha  occ. eigenvalues --  -11.21948 -11.21895 -11.21771 -11.21752 -11.21344
 Alpha  occ. eigenvalues --   -1.59842  -1.39395  -1.19381  -1.08908  -1.08765
 Alpha  occ. eigenvalues --   -1.04784  -1.04008  -0.96478  -0.95593  -0.87495
 Alpha  occ. eigenvalues --   -0.86176  -0.82431  -0.80078  -0.78696  -0.77476
 Alpha  occ. eigenvalues --   -0.72040  -0.71167  -0.70486  -0.65545  -0.65027
 Alpha  occ. eigenvalues --   -0.64778  -0.62134  -0.61411  -0.59862  -0.58076
 Alpha  occ. eigenvalues --   -0.55820  -0.55247  -0.53505  -0.52966  -0.52870
 Alpha  occ. eigenvalues --   -0.52643  -0.50416  -0.48798  -0.48793  -0.48386
 Alpha  occ. eigenvalues --   -0.47115  -0.46242  -0.46162  -0.44802  -0.44264
 Alpha  occ. eigenvalues --   -0.37265  -0.36395
 Alpha virt. eigenvalues --    0.05058   0.11185   0.16510   0.20410   0.22607
 Alpha virt. eigenvalues --    0.23998   0.25944   0.26268   0.27096   0.27611
 Alpha virt. eigenvalues --    0.28755   0.30316   0.31207   0.31306   0.32021

 Mulliken charges:
               1
     1  C   -0.168909
     2  C   -0.217980
     3  C   -0.170915
     4  C    0.157901
     5  C   -0.170342
     6  C   -0.220949
     7  H    0.228981
     8  H    0.223501
     9  H    0.275657
    10  H    0.275781
    11  H    0.223912
    12  N    0.488177
    13  O   -0.460538
    14  O   -0.460505
    15  C   -0.298407
    16  C   -0.298723
    17  C   -0.481952
    18  H    0.147242
    19  H    0.150896
    20  H    0.148635
    21  H    0.156286
    22  H    0.156717
    23  H    0.143816
    24  H    0.168719
    25  C   -0.298477
    26  C   -0.299870
    27  C   -0.475951
    28  H    0.148989
    29  H    0.151638
    30  H    0.151283
    31  H    0.152528
    32  H    0.156291
    33  H    0.155478
    34  H    0.161091
 Sum of Mulliken charges =  -0.00000

 Dipole moment (field-independent basis, Debye):
    X=              3.0973    Y=              3.9595    Z=              1.3628  Tot=              5.2085
 Quadrupole moment (field-independent basis, Debye-Ang):
   XX=           -114.9046   YY=            -96.1786   ZZ=            -92.2239
   XY=            -15.9310   XZ=             -3.1553   YZ=             -2.1133

 Normal termination of Gaussian 16 at Thu May  6 11:07:08 2021.
