 Gaussian 16, Revision A.03,
 Gaussian 16:  EM64L-G16RevA.03 25-Dec-2016

 -------------
 #p 6-31g* mp2
 -------------

 ------------------------------------------------------
 Input file generated by CHIRIPA (05-May-2021 14:55:21)
 ------------------------------------------------------
 Symbolic Z-matrix:
 Charge =  0 Multiplicity = 1

                         Standard orientation:
 ---------------------------------------------------------------------
 Center     Atomic      Atomic             Coordinates (Angstroms)
 Number     Number       Type             X           Y           Z
 ---------------------------------------------------------------------
      1          6           0       -1.505924   -2.381019    0.996631
      2          6           0       -2.893112   -2.245216    0.879215
      3          6           0       -3.449029   -1.086451    0.328970
      4          6           0       -2.584369   -0.078768   -0.095561
      5          6           0       -1.198220   -0.184352    0.008043
      6          6           0       -0.664389   -1.351968    0.561437
      7          1           0       -1.082653   -3.284614    1.425297
      8          1           0       -3.549084   -3.042764    1.216354
      9          1           0       -4.519363   -0.955093    0.226266
     10          1           0       -0.569865    0.627822   -0.336865
     11          1           0        0.413296   -1.454686    0.651386
     12          7           0       -3.161202    1.152650   -0.679748
     13          8           0       -2.377864    2.025951   -1.046304
     14          8           0       -4.385740    1.221217   -0.760015
     15          6           0        2.659010    0.841965    0.270525
     16          6           0        3.191894    2.255917    0.504530
     17          6           0        2.125261    3.207292    1.047646
     18          1           0        1.814298    0.886671   -0.430479
     19          1           0        2.260616    0.446758    1.215242
     20          1           0        3.590421    2.647814   -0.440038
     21          1           0        4.035558    2.207819    1.204911
     22          1           0        1.733984    2.842444    2.002837
     23          1           0        1.286319    3.284940    0.348542
     24          1           0        2.527735    4.212425    1.207589
     25          6           0        3.713597   -0.120761   -0.272368
     26          6           0        3.180713   -1.534713   -0.506373
     27          6           0        4.247346   -2.486089   -1.049489
     28          1           0        4.111990    0.274446   -1.217084
     29          1           0        4.558309   -0.165467    0.428637
     30          1           0        2.337049   -1.486614   -1.206753
     31          1           0        2.782186   -1.926610    0.438196
     32          1           0        5.086288   -2.563735   -0.350384
     33          1           0        4.638622   -2.121240   -2.004679
     34          1           0        3.844872   -3.491221   -1.209431
 ---------------------------------------------------------------------

 SCF Done:  E(RHF) =  -669.534910221     A.U. after   15 cycles
 E2 =    -0.2093494889D+01 EUMP2 =    -0.67162840511015D+03

 The electronic state is 1-A.
 Alpha  occ. eigenvalues --  -20.60688 -20.60683 -15.85735 -11.31044 -11.27621
 Alpha  occ. eigenvalues --  -11.27556 -11.27337 -11.26637 -11.26495 -11.22649
 Alpha  occ. eigenvalues --  -11.22301 -11.22184 -11.22071 -11.21853 -11.21268
 Alpha  occ. eigenvalues --   -1.59761  -1.39317  -1.19209  -1.09246  -1.08616
 Alpha  occ. eigenvalues --   -1.04598  -1.04207  -0.96621  -0.95464  -0.87642
 Alpha  occ. eigenvalues --   -0.86008  -0.82313  -0.80322  -0.79160  -0.77295
 Alpha  occ. eigenvalues --   -0.71957  -0.71082  -0.70336  -0.65887  -0.64857
 Alpha  occ. eigenvalues --   -0.64596  -0.61999  -0.61560  -0.60024  -0.58248
 Alpha  occ. eigenvalues --   -0.55884  -0.55124  -0.53331  -0.53085  -0.52932
 Alpha  occ. eigenvalues --   -0.52646  -0.50559  -0.48743  -0.48715  -0.48543
 Alpha  occ. eigenvalues --   -0.47343  -0.46529  -0.46490  -0.44734  -0.44489
 Alpha  occ. eigenvalues --   -0.37199  -0.36193
 Alpha virt. eigenvalues --    0.05158   0.11423   0.16603   0.20028   0.22742
 Alpha virt. eigenvalues --    0.22870   0.24851   0.25106   0.27157   0.28513
 Alpha virt. eigenvalues --    0.29599   0.30600   0.31322   0.31512   0.32209

 Mulliken charges:
               1
     1  C   -0.173742
     2  C   -0.218670
     3  C   -0.171079
     4  C    0.160503
     5  C   -0.182309
     6  C   -0.228410
     7  H    0.225065
     8  H    0.222672
     9  H    0.274926
    10  H    0.281969
    11  H    0.239338
    12  N    0.488176
    13  O   -0.461497
    14  O   -0.460757
    15  C   -0.308691
    16  C   -0.299468
    17  C   -0.480173
    18  H    0.148889
    19  H    0.146726
    20  H    0.155652
    21  H    0.153331
    22  H    0.154654
    23  H    0.163777
    24  H    0.163829
    25  C   -0.296398
    26  C   -0.308094
    27  C   -0.474743
    28  H    0.154894
    29  H    0.152989
    30  H    0.154126
    31  H    0.144315
    32  H    0.157591
    33  H    0.159657
    34  H    0.160951
 Sum of Mulliken charges =  -0.00000

 Dipole moment (field-independent basis, Debye):
    X=              2.3135    Y=             -4.2117    Z=              1.9997  Tot=              5.2048
 Quadrupole moment (field-independent basis, Debye-Ang):
   XX=           -100.6695   YY=            -94.0735   ZZ=            -95.0947
   XY=             13.6846   XZ=             -6.0157   YZ=             -0.4976

 Normal termination of Gaussian 16 at Thu May  6 14:09:31 2021.
