 Gaussian 16, Revision A.03,
 Gaussian 16:  EM64L-G16RevA.03 25-Dec-2016

 -------------
 #p 6-31g* mp2
 -------------

 ------------------------------------------------------
 Input file generated by CHIRIPA (05-May-2021 14:57:21)
 ------------------------------------------------------
 Symbolic Z-matrix:
 Charge =  0 Multiplicity = 1

                         Standard orientation:
 ---------------------------------------------------------------------
 Center     Atomic      Atomic             Coordinates (Angstroms)
 Number     Number       Type             X           Y           Z
 ---------------------------------------------------------------------
      1          6           0       -1.935198    2.492250    0.811743
      2          6           0       -1.025007    1.442104    0.970697
      3          6           0       -1.351254    0.149770    0.548817
      4          6           0       -2.602085   -0.057666   -0.030563
      5          6           0       -3.530439    0.967926   -0.202641
      6          6           0       -3.182810    2.252232    0.226613
      7          1           0       -1.673456    3.493048    1.142334
      8          1           0       -0.055373    1.625573    1.424784
      9          1           0       -0.665592   -0.681478    0.659779
     10          1           0       -4.489412    0.754141   -0.658805
     11          1           0       -3.891666    3.065875    0.101899
     12          7           0       -2.958787   -1.421553   -0.481092
     13          8           0       -4.067193   -1.578222   -0.988565
     14          8           0       -2.123210   -2.308073   -0.318213
     15          6           0        2.102075   -2.380738    1.083756
     16          6           0        2.314188   -2.328842   -0.297850
     17          6           0        2.559551   -1.107879   -0.933142
     18          6           0        2.585952    0.046886   -0.152686
     19          6           0        2.378372    0.027759    1.225658
     20          6           0        2.134787   -1.204347    1.839768
     21          1           0        1.912162   -3.333540    1.569039
     22          1           0        2.289356   -3.240842   -0.887496
     23          1           0        2.727072   -1.038956   -2.001133
     24          1           0        2.409157    0.953749    1.786917
     25          1           0        1.970404   -1.241638    2.912909
     26          7           0        2.844767    1.345362   -0.814030
     27          8           0        2.862933    2.348475   -0.104050
     28          8           0        3.024557    1.335408   -2.029847
 ---------------------------------------------------------------------

 SCF Done:  E(RHF) =  -868.338638481     A.U. after   16 cycles
 E2 =    -0.2602948258D+01 EUMP2 =    -0.87094158673950D+03

 The electronic state is 1-A.
 Alpha  occ. eigenvalues --  -20.61396 -20.61355 -20.60836 -20.60807 -15.86423
 Alpha  occ. eigenvalues --  -15.85871 -11.31798 -11.31036 -11.28429 -11.28237
 Alpha  occ. eigenvalues --  -11.27973 -11.27615 -11.27525 -11.27396 -11.27281
 Alpha  occ. eigenvalues --  -11.27208 -11.26569 -11.26516  -1.60444  -1.59901
 Alpha  occ. eigenvalues --   -1.40002  -1.39461  -1.19971  -1.19197  -1.09315
 Alpha  occ. eigenvalues --   -1.08624  -1.05364  -1.04571  -0.96157  -0.95490
 Alpha  occ. eigenvalues --   -0.86729  -0.85975  -0.82981  -0.82342  -0.78068
 Alpha  occ. eigenvalues --   -0.77420  -0.72636  -0.72102  -0.71769  -0.71219
 Alpha  occ. eigenvalues --   -0.70995  -0.70292  -0.65576  -0.65319  -0.64853
 Alpha  occ. eigenvalues --   -0.64578  -0.62695  -0.61961  -0.55748  -0.55115
 Alpha  occ. eigenvalues --   -0.53609  -0.53400  -0.52903  -0.52610  -0.49411
 Alpha  occ. eigenvalues --   -0.49382  -0.48859  -0.48833  -0.45401  -0.44912
 Alpha  occ. eigenvalues --   -0.37918  -0.37166  -0.36948  -0.36141
 Alpha virt. eigenvalues --    0.04431   0.05103   0.10606   0.11477   0.15945
 Alpha virt. eigenvalues --    0.16691   0.20446   0.22060   0.25823   0.27476
 Alpha virt. eigenvalues --    0.28414   0.28769   0.30205   0.31344   0.32146

 Mulliken charges:
               1
     1  C   -0.168927
     2  C   -0.222484
     3  C   -0.178674
     4  C    0.157487
     5  C   -0.170281
     6  C   -0.219175
     7  H    0.229112
     8  H    0.223445
     9  H    0.279570
    10  H    0.274670
    11  H    0.223609
    12  N    0.488257
    13  O   -0.460198
    14  O   -0.465989
    15  C   -0.169172
    16  C   -0.211997
    17  C   -0.170506
    18  C    0.162728
    19  C   -0.186560
    20  C   -0.225411
    21  H    0.233346
    22  H    0.231991
    23  H    0.279397
    24  H    0.271252
    25  H    0.226303
    26  N    0.489487
    27  O   -0.466242
    28  O   -0.455038
 Sum of Mulliken charges =  -0.00000

 Dipole moment (field-independent basis, Debye):
    X=              0.5698    Y=              0.0151    Z=              3.7468  Tot=              3.7899
 Quadrupole moment (field-independent basis, Debye-Ang):
   XX=           -112.8576   YY=           -104.2970   ZZ=           -102.0091
   XY=            -27.5384   XZ=              2.8839   YZ=              2.2404

 Normal termination of Gaussian 16 at Thu May  6 03:19:19 2021.
