 Gaussian 16, Revision A.03,
 Gaussian 16:  EM64L-G16RevA.03 25-Dec-2016

 -------------
 #p 6-31g* mp2
 -------------

 ------------------------------------------------------
 Input file generated by CHIRIPA (05-May-2021 14:53:15)
 ------------------------------------------------------
 Symbolic Z-matrix:
 Charge =  0 Multiplicity = 1

                         Standard orientation:
 ---------------------------------------------------------------------
 Center     Atomic      Atomic             Coordinates (Angstroms)
 Number     Number       Type             X           Y           Z
 ---------------------------------------------------------------------
      1          6           0        3.778937   -0.134816    0.460759
      2          6           0        2.947644    1.079721    0.875291
      3          6           0        1.492072    0.723887    1.179406
      4          1           0        3.321341   -0.599996   -0.423073
      5          1           0        3.743804   -0.885383    1.262513
      6          1           0        2.985466    1.828348    0.073579
      7          1           0        3.407379    1.542176    1.758125
      8          1           0        1.435869   -0.005097    1.994283
      9          1           0        1.011559    0.282701    0.300166
     10          1           0        0.916014    1.606740    1.473666
     11          6           0        5.236298    0.204873    0.153454
     12          6           0        6.067591   -1.009664   -0.261079
     13          6           0        7.523163   -0.653830   -0.565193
     14          1           0        5.271431    0.955441   -0.648300
     15          1           0        5.693893    0.670053    1.037286
     16          1           0        5.607856   -1.472119   -1.143912
     17          1           0        6.029768   -1.758291    0.540634
     18          1           0        8.003676   -0.212644    0.314047
     19          1           0        7.579366    0.075154   -1.380070
     20          1           0        8.099221   -1.536683   -0.859453
     21          6           0       -1.371192    1.029103   -1.030903
     22          6           0       -1.470571   -0.362208   -0.926508
     23          6           0       -2.657139   -0.958464   -0.489380
     24          6           0       -3.729467   -0.129501   -0.163458
     25          6           0       -3.661436    1.259711   -0.256995
     26          6           0       -2.465013    1.834203   -0.696403
     27          1           0       -0.445610    1.483836   -1.371361
     28          1           0       -0.622710   -0.989939   -1.185606
     29          1           0       -2.761414   -2.032910   -0.399318
     30          1           0       -4.523654    1.859326    0.008449
     31          1           0       -2.390700    2.914992   -0.776509
     32          7           0       -4.990851   -0.749211    0.300517
     33          8           0       -5.921195    0.003175    0.581608
     34          8           0       -5.025293   -1.975590    0.374304
 ---------------------------------------------------------------------

 SCF Done:  E(RHF) =  -669.533796732     A.U. after   15 cycles
 E2 =    -0.2092507352D+01 EUMP2 =    -0.67162630408450D+03

 The electronic state is 1-A.
 Alpha  occ. eigenvalues --  -20.60732 -20.60726 -15.85787 -11.31143 -11.27737
 Alpha  occ. eigenvalues --  -11.27728 -11.27465 -11.26734 -11.26724 -11.22364
 Alpha  occ. eigenvalues --  -11.22115 -11.22104 -11.21958 -11.21837 -11.21497
 Alpha  occ. eigenvalues --   -1.59808  -1.39362  -1.19335  -1.09089  -1.08733
 Alpha  occ. eigenvalues --   -1.04744  -1.04171  -0.96632  -0.95560  -0.87645
 Alpha  occ. eigenvalues --   -0.86146  -0.82397  -0.80239  -0.78888  -0.77441
 Alpha  occ. eigenvalues --   -0.72008  -0.71132  -0.70472  -0.65739  -0.64996
 Alpha  occ. eigenvalues --   -0.64771  -0.62121  -0.61557  -0.59990  -0.58222
 Alpha  occ. eigenvalues --   -0.56002  -0.55199  -0.53452  -0.53139  -0.52865
 Alpha  occ. eigenvalues --   -0.52793  -0.50535  -0.48769  -0.48761  -0.48540
 Alpha  occ. eigenvalues --   -0.47281  -0.46430  -0.46351  -0.44770  -0.44420
 Alpha  occ. eigenvalues --   -0.37224  -0.36327
 Alpha virt. eigenvalues --    0.05098   0.11197   0.16567   0.20067   0.22611
 Alpha virt. eigenvalues --    0.23982   0.25634   0.26405   0.27149   0.27711
 Alpha virt. eigenvalues --    0.29125   0.30125   0.31066   0.31214   0.31666

 Mulliken charges:
               1
     1  C   -0.297559
     2  C   -0.301046
     3  C   -0.476062
     4  H    0.144332
     5  H    0.152233
     6  H    0.147645
     7  H    0.155570
     8  H    0.159994
     9  H    0.147577
    10  H    0.161196
    11  C   -0.298438
    12  C   -0.299999
    13  C   -0.476016
    14  H    0.148994
    15  H    0.151616
    16  H    0.151174
    17  H    0.153198
    18  H    0.156210
    19  H    0.155245
    20  H    0.161703
    21  C   -0.165176
    22  C   -0.217533
    23  C   -0.171862
    24  C    0.157907
    25  C   -0.170592
    26  C   -0.220887
    27  H    0.226661
    28  H    0.222730
    29  H    0.275592
    30  H    0.275521
    31  H    0.223148
    32  N    0.488162
    33  O   -0.460658
    34  O   -0.460582
 Sum of Mulliken charges =  -0.00000

 Dipole moment (field-independent basis, Debye):
    X=              4.5519    Y=              2.1865    Z=             -1.5615  Tot=              5.2857
 Quadrupole moment (field-independent basis, Debye-Ang):
   XX=           -128.3704   YY=            -91.3170   ZZ=            -94.0225
   XY=            -11.1685   XZ=              5.8634   YZ=              0.2045

 Normal termination of Gaussian 16 at Wed May  5 23:30:49 2021.
