 Gaussian 16, Revision A.03,
 Gaussian 16:  EM64L-G16RevA.03 25-Dec-2016

 -------------
 #p 6-31g* mp2
 -------------

 ------------------------------------------------------
 Input file generated by CHIRIPA (05-May-2021 14:57:22)
 ------------------------------------------------------
 Symbolic Z-matrix:
 Charge =  0 Multiplicity = 1

                         Standard orientation:
 ---------------------------------------------------------------------
 Center     Atomic      Atomic             Coordinates (Angstroms)
 Number     Number       Type             X           Y           Z
 ---------------------------------------------------------------------
      1          6           0       -4.848816   -1.675597    0.111267
      2          6           0       -3.573952   -1.860555   -0.433742
      3          6           0       -2.707661   -0.775577   -0.597784
      4          6           0       -3.150782    0.486206   -0.204291
      5          6           0       -4.414998    0.702636    0.341792
      6          6           0       -5.264537   -0.396846    0.496614
      7          1           0       -5.515265   -2.524068    0.235118
      8          1           0       -3.248422   -2.852516   -0.733892
      9          1           0       -1.715443   -0.890396   -1.016995
     10          1           0       -4.711310    1.703427    0.631679
     11          1           0       -6.254061   -0.250232    0.920160
     12          7           0       -2.242545    1.642501   -0.373075
     13          8           0       -2.656737    2.744040   -0.018540
     14          8           0       -1.133675    1.425372   -0.856706
     15          6           0        0.960319   -0.958305    0.847654
     16          6           0        1.813974   -0.361864    1.781490
     17          6           0        3.112643    0.009401    1.420698
     18          6           0        3.526707   -0.231569    0.111586
     19          6           0        2.699779   -0.823958   -0.841595
     20          6           0        1.405161   -1.187046   -0.458606
     21          1           0       -0.046945   -1.243537    1.136548
     22          1           0        1.471200   -0.183012    2.796656
     23          1           0        3.794329    0.472788    2.123545
     24          1           0        3.069875   -0.989508   -1.846105
     25          1           0        0.744383   -1.650078   -1.185942
     26          7           0        4.899405    0.157143   -0.282118
     27          8           0        5.240217   -0.065907   -1.441745
     28          8           0        5.608520    0.677506    0.576377
 ---------------------------------------------------------------------

 SCF Done:  E(RHF) =  -868.336277971     A.U. after   16 cycles
 E2 =    -0.2601878584D+01 EUMP2 =    -0.87093815655556D+03

 The electronic state is 1-A.
 Alpha  occ. eigenvalues --  -20.61523 -20.61504 -20.60313 -20.60308 -15.86560
 Alpha  occ. eigenvalues --  -15.85369 -11.32119 -11.30690 -11.28763 -11.28608
 Alpha  occ. eigenvalues --  -11.28368 -11.27755 -11.27647 -11.27305 -11.27276
 Alpha  occ. eigenvalues --  -11.27098 -11.26414 -11.26288  -1.60587  -1.59388
 Alpha  occ. eigenvalues --   -1.40136  -1.38944  -1.20280  -1.18878  -1.09620
 Alpha  occ. eigenvalues --   -1.08304  -1.05710  -1.04302  -0.96439  -0.95142
 Alpha  occ. eigenvalues --   -0.87090  -0.85735  -0.83263  -0.81989  -0.78314
 Alpha  occ. eigenvalues --   -0.77024  -0.72773  -0.71930  -0.71601  -0.71376
 Alpha  occ. eigenvalues --   -0.70704  -0.70052  -0.65915  -0.65712  -0.64574
 Alpha  occ. eigenvalues --   -0.64403  -0.63027  -0.61669  -0.56145  -0.54925
 Alpha  occ. eigenvalues --   -0.53980  -0.53788  -0.52573  -0.52444  -0.49550
 Alpha  occ. eigenvalues --   -0.49524  -0.48352  -0.48345  -0.45497  -0.44360
 Alpha  occ. eigenvalues --   -0.38230  -0.37328  -0.36792  -0.35855
 Alpha virt. eigenvalues --    0.04186   0.05565   0.10250   0.11697   0.15679
 Alpha virt. eigenvalues --    0.17061   0.19398   0.21988   0.25212   0.27009
 Alpha virt. eigenvalues --    0.28311   0.29057   0.30108   0.30816   0.32034

 Mulliken charges:
               1
     1  C   -0.170649
     2  C   -0.220848
     3  C   -0.181811
     4  C    0.157999
     5  C   -0.170120
     6  C   -0.217656
     7  H    0.228727
     8  H    0.224054
     9  H    0.275206
    10  H    0.278586
    11  H    0.227004
    12  N    0.486711
    13  O   -0.457044
    14  O   -0.458451
    15  C   -0.161999
    16  C   -0.217766
    17  C   -0.169031
    18  C    0.158932
    19  C   -0.168704
    20  C   -0.209016
    21  H    0.218395
    22  H    0.221855
    23  H    0.274854
    24  H    0.274579
    25  H    0.210520
    26  N    0.488278
    27  O   -0.461372
    28  O   -0.461231
 Sum of Mulliken charges =  -0.00000

 Dipole moment (field-independent basis, Debye):
    X=             -8.2539    Y=             -5.2434    Z=              2.0115  Tot=              9.9833
 Quadrupole moment (field-independent basis, Debye-Ang):
   XX=           -116.0405   YY=           -106.9265   ZZ=           -100.6285
   XY=              5.7003   XZ=              2.3172   YZ=              3.8231

 Normal termination of Gaussian 16 at Thu May  6 00:11:18 2021.
