 Gaussian 16, Revision A.03,
 Gaussian 16:  EM64L-G16RevA.03 25-Dec-2016

 -------------
 #p 6-31g* mp2
 -------------

 ------------------------------------------------------
 Input file generated by CHIRIPA (05-May-2021 14:57:25)
 ------------------------------------------------------
 Symbolic Z-matrix:
 Charge =  0 Multiplicity = 1

                         Standard orientation:
 ---------------------------------------------------------------------
 Center     Atomic      Atomic             Coordinates (Angstroms)
 Number     Number       Type             X           Y           Z
 ---------------------------------------------------------------------
      1          6           0       -0.940822   -0.255928    1.894073
      2          6           0       -1.456568    0.967785    1.454696
      3          6           0       -2.563724    1.006540    0.601906
      4          6           0       -3.132929   -0.202960    0.206427
      5          6           0       -2.642127   -1.438074    0.627019
      6          6           0       -1.534202   -1.452842    1.479563
      7          1           0       -0.080458   -0.276717    2.556445
      8          1           0       -0.997775    1.898895    1.774991
      9          1           0       -2.983334    1.939871    0.246605
     10          1           0       -3.120909   -2.349697    0.290671
     11          1           0       -1.135799   -2.404665    1.819201
     12          7           0       -4.305433   -0.174629   -0.696254
     13          8           0       -4.788807   -1.254176   -1.030267
     14          8           0       -4.718866    0.926588   -1.052669
     15          6           0        1.219321    2.045183   -0.527431
     16          6           0        0.969755    0.796197   -1.105594
     17          6           0        1.915780   -0.229288   -1.016365
     18          6           0        3.106005    0.029982   -0.338548
     19          6           0        3.383912    1.263715    0.247932
     20          6           0        2.423481    2.274552    0.146298
     21          1           0        0.478830    2.836116   -0.601565
     22          1           0        0.035468    0.615224   -1.629428
     23          1           0        1.748390   -1.205620   -1.454744
     24          1           0        4.324522    1.414157    0.763721
     25          1           0        2.620003    3.243545    0.596272
     26          7           0        4.115145   -1.047900   -0.237519
     27          8           0        5.155910   -0.794186    0.365037
     28          8           0        3.846237   -2.126047   -0.762803
 ---------------------------------------------------------------------

 SCF Done:  E(RHF) =  -868.336388837     A.U. after   16 cycles
 E2 =    -0.2603426171D+01 EUMP2 =    -0.87093981500802D+03

 The electronic state is 1-A.
 Alpha  occ. eigenvalues --  -20.61391 -20.61377 -20.61311 -20.61304 -15.86443
 Alpha  occ. eigenvalues --  -15.86362 -11.31869 -11.31769 -11.28432 -11.28360
 Alpha  occ. eigenvalues --  -11.28330 -11.28237 -11.28048 -11.28033 -11.27420
 Alpha  occ. eigenvalues --  -11.27395 -11.27334 -11.27240  -1.60466  -1.60388
 Alpha  occ. eigenvalues --   -1.40016  -1.39939  -1.20040  -1.19911  -1.09419
 Alpha  occ. eigenvalues --   -1.09285  -1.05434  -1.05303  -0.96205  -0.96158
 Alpha  occ. eigenvalues --   -0.86805  -0.86703  -0.83066  -0.82946  -0.78108
 Alpha  occ. eigenvalues --   -0.78008  -0.72647  -0.72574  -0.71804  -0.71720
 Alpha  occ. eigenvalues --   -0.71067  -0.71036  -0.65642  -0.65568  -0.65397
 Alpha  occ. eigenvalues --   -0.65302  -0.62763  -0.62649  -0.55882  -0.55794
 Alpha  occ. eigenvalues --   -0.54335  -0.53516  -0.53396  -0.53086  -0.49416
 Alpha  occ. eigenvalues --   -0.49405  -0.49336  -0.49330  -0.45409  -0.45334
 Alpha  occ. eigenvalues --   -0.38593  -0.37827  -0.36997  -0.36345
 Alpha virt. eigenvalues --    0.04228   0.04618   0.10226   0.11108   0.15588
 Alpha virt. eigenvalues --    0.16301   0.20056   0.21481   0.25894   0.26747
 Alpha virt. eigenvalues --    0.27704   0.28557   0.30047   0.31051   0.31845

 Mulliken charges:
               1
     1  C   -0.166291
     2  C   -0.213892
     3  C   -0.181357
     4  C    0.156792
     5  C   -0.172950
     6  C   -0.220371
     7  H    0.230160
     8  H    0.219849
     9  H    0.273095
    10  H    0.278088
    11  H    0.228903
    12  N    0.487728
    13  O   -0.457597
    14  O   -0.461148
    15  C   -0.175587
    16  C   -0.209094
    17  C   -0.174479
    18  C    0.156828
    19  C   -0.173574
    20  C   -0.222536
    21  H    0.223283
    22  H    0.229335
    23  H    0.276781
    24  H    0.276195
    25  H    0.223351
    26  N    0.487615
    27  O   -0.459693
    28  O   -0.459436
 Sum of Mulliken charges =  -0.00000

 Dipole moment (field-independent basis, Debye):
    X=              0.5717    Y=              3.5129    Z=              2.8561  Tot=              4.5634
 Quadrupole moment (field-independent basis, Debye-Ang):
   XX=           -152.5432   YY=            -98.1434   ZZ=           -103.0244
   XY=             13.6960   XZ=             -7.3590   YZ=             -0.3759

 Normal termination of Gaussian 16 at Thu May  6 21:18:22 2021.
