 Gaussian 16, Revision A.03,
 Gaussian 16:  EM64L-G16RevA.03 25-Dec-2016

 -------------
 #p 6-31g* mp2
 -------------

 ------------------------------------------------------
 Input file generated by CHIRIPA (05-May-2021 14:55:19)
 ------------------------------------------------------
 Symbolic Z-matrix:
 Charge =  0 Multiplicity = 1

                         Standard orientation:
 ---------------------------------------------------------------------
 Center     Atomic      Atomic             Coordinates (Angstroms)
 Number     Number       Type             X           Y           Z
 ---------------------------------------------------------------------
      1          6           0        2.080800    2.111588   -0.556629
      2          6           0        1.277708    1.012060   -0.236315
      3          6           0        1.853631   -0.232148    0.037193
      4          6           0        3.242212   -0.341626   -0.018901
      5          6           0        4.069186    0.735164   -0.335017
      6          6           0        3.471524    1.969881   -0.604873
      7          1           0        1.624966    3.074433   -0.767679
      8          1           0        0.197379    1.119179   -0.198106
      9          1           0        1.255580   -1.099865    0.287835
     10          1           0        5.143218    0.597479   -0.365282
     11          1           0        4.097698    2.822060   -0.853353
     12          7           0        3.863422   -1.653790    0.268717
     13          8           0        5.089207   -1.724149    0.212693
     14          8           0        3.112780   -2.587058    0.544729
     15          6           0       -3.736876    0.670748    0.578288
     16          6           0       -2.960749    1.802078   -0.096770
     17          6           0       -2.402573    2.814927    0.903415
     18          1           0       -4.559962    1.099301    1.166349
     19          1           0       -3.077160    0.157644    1.291657
     20          1           0       -3.621328    2.312016   -0.809661
     21          1           0       -2.139530    1.370769   -0.683447
     22          1           0       -1.722132    2.325782    1.607929
     23          1           0       -3.212349    3.272378    1.480998
     24          1           0       -1.851446    3.614974    0.399388
     25          6           0       -4.301087   -0.349812   -0.408551
     26          6           0       -5.077213   -1.481143    0.266508
     27          6           0       -5.635390   -2.493991   -0.733678
     28          1           0       -4.960802    0.163292   -1.121919
     29          1           0       -3.478001   -0.778365   -0.996612
     30          1           0       -5.898432   -1.049833    0.853184
     31          1           0       -4.416635   -1.991080    0.979399
     32          1           0       -4.825613   -2.951443   -1.311260
     33          1           0       -6.315830   -2.004847   -1.438191
     34          1           0       -6.186516   -3.294039   -0.229652
 ---------------------------------------------------------------------

 SCF Done:  E(RHF) =  -669.535505006     A.U. after   15 cycles
 E2 =    -0.2091336155D+01 EUMP2 =    -0.67162684116152D+03

 The electronic state is 1-A.
 Alpha  occ. eigenvalues --  -20.60747 -20.60742 -15.85800 -11.31158 -11.27727
 Alpha  occ. eigenvalues --  -11.27722 -11.27459 -11.26739 -11.26696 -11.22679
 Alpha  occ. eigenvalues --  -11.22175 -11.22150 -11.22041 -11.21966 -11.21385
 Alpha  occ. eigenvalues --   -1.59823  -1.39377  -1.19328  -1.09169  -1.08722
 Alpha  occ. eigenvalues --   -1.04733  -1.04261  -0.96693  -0.95560  -0.87706
 Alpha  occ. eigenvalues --   -0.86129  -0.82395  -0.80346  -0.78925  -0.77446
 Alpha  occ. eigenvalues --   -0.72019  -0.71146  -0.70436  -0.65886  -0.64979
 Alpha  occ. eigenvalues --   -0.64718  -0.62200  -0.61527  -0.60094  -0.58286
 Alpha  occ. eigenvalues --   -0.55983  -0.55219  -0.53400  -0.53106  -0.53060
 Alpha  occ. eigenvalues --   -0.52804  -0.50641  -0.48790  -0.48775  -0.48622
 Alpha  occ. eigenvalues --   -0.47395  -0.46466  -0.46369  -0.44784  -0.44499
 Alpha  occ. eigenvalues --   -0.37305  -0.36333
 Alpha virt. eigenvalues --    0.05091   0.11285   0.16573   0.18946   0.22760
 Alpha virt. eigenvalues --    0.23816   0.25528   0.26652   0.26781   0.28083
 Alpha virt. eigenvalues --    0.29106   0.29764   0.30980   0.31378   0.32357

 Mulliken charges:
               1
     1  C   -0.173270
     2  C   -0.228162
     3  C   -0.173656
     4  C    0.159026
     5  C   -0.171227
     6  C   -0.218498
     7  H    0.225979
     8  H    0.238339
     9  H    0.275350
    10  H    0.275473
    11  H    0.223289
    12  N    0.488072
    13  O   -0.460538
    14  O   -0.460666
    15  C   -0.298960
    16  C   -0.305841
    17  C   -0.479376
    18  H    0.153490
    19  H    0.149275
    20  H    0.157660
    21  H    0.144582
    22  H    0.155569
    23  H    0.162355
    24  H    0.156471
    25  C   -0.298741
    26  C   -0.300422
    27  C   -0.476260
    28  H    0.151071
    29  H    0.148814
    30  H    0.152969
    31  H    0.153429
    32  H    0.156464
    33  H    0.155479
    34  H    0.162460
 Sum of Mulliken charges =  -0.00000

 Dipole moment (field-independent basis, Debye):
    X=             -2.4208    Y=              4.6236    Z=             -0.9782  Tot=              5.3099
 Quadrupole moment (field-independent basis, Debye-Ang):
   XX=           -103.3836   YY=            -97.8671   ZZ=            -95.7963
   XY=             17.0825   XZ=             -4.4270   YZ=             -0.5638

 Normal termination of Gaussian 16 at Thu May  6 17:24:37 2021.
