 Gaussian 16, Revision A.03,
 Gaussian 16:  EM64L-G16RevA.03 25-Dec-2016

 -------------
 #p 6-31g* mp2
 -------------

 ------------------------------------------------------
 Input file generated by CHIRIPA (05-May-2021 14:57:24)
 ------------------------------------------------------
 Symbolic Z-matrix:
 Charge =  0 Multiplicity = 1

                         Standard orientation:
 ---------------------------------------------------------------------
 Center     Atomic      Atomic             Coordinates (Angstroms)
 Number     Number       Type             X           Y           Z
 ---------------------------------------------------------------------
      1          6           0       -1.148723   -1.153869    1.177855
      2          6           0       -2.397699   -1.609072    1.613023
      3          6           0       -3.572767   -1.118120    1.036197
      4          6           0       -3.461463   -0.168331    0.021898
      5          6           0       -2.231820    0.304895   -0.433431
      6          6           0       -1.069909   -0.200019    0.157816
      7          1           0       -0.241012   -1.540675    1.631549
      8          1           0       -2.461939   -2.349793    2.405015
      9          1           0       -4.552690   -1.453145    1.353888
     10          1           0       -2.199728    1.043823   -1.224869
     11          1           0       -0.101301    0.155319   -0.182154
     12          7           0       -4.698491    0.358809   -0.596395
     13          8           0       -4.573462    1.195118   -1.488355
     14          8           0       -5.769679   -0.074310   -0.177347
     15          6           0        2.406759    2.393873    0.909708
     16          6           0        3.268723    1.561986    1.631861
     17          6           0        3.746356    0.374621    1.069207
     18          6           0        3.339841    0.048453   -0.223716
     19          6           0        2.482129    0.856425   -0.968564
     20          6           0        2.016899    2.039062   -0.385915
     21          1           0        2.040540    3.314409    1.354558
     22          1           0        3.573165    1.835008    2.638250
     23          1           0        4.414615   -0.287799    1.605906
     24          1           0        2.196274    0.557622   -1.969774
     25          1           0        1.347588    2.683186   -0.949093
     26          7           0        3.838924   -1.206056   -0.829957
     27          8           0        3.465900   -1.470919   -1.970718
     28          8           0        4.593678   -1.900720   -0.152887
 ---------------------------------------------------------------------

 SCF Done:  E(RHF) =  -868.336971526     A.U. after   16 cycles
 E2 =    -0.2601746376D+01 EUMP2 =    -0.87093871790212D+03

 The electronic state is 1-A.
 Alpha  occ. eigenvalues --  -20.61696 -20.61687 -20.60889 -20.60879 -15.86755
 Alpha  occ. eigenvalues --  -15.85937 -11.32317 -11.31274 -11.28873 -11.28845
 Alpha  occ. eigenvalues --  -11.28559 -11.27899 -11.27846 -11.27842 -11.27809
 Alpha  occ. eigenvalues --  -11.27507 -11.26818 -11.26682  -1.60772  -1.59962
 Alpha  occ. eigenvalues --   -1.40317  -1.39518  -1.20503  -1.19421  -1.09821
 Alpha  occ. eigenvalues --   -1.08814  -1.05928  -1.04819  -0.96629  -0.95664
 Alpha  occ. eigenvalues --   -0.87264  -0.86219  -0.83456  -0.82501  -0.78491
 Alpha  occ. eigenvalues --   -0.77568  -0.72955  -0.72159  -0.72113  -0.71507
 Alpha  occ. eigenvalues --   -0.71285  -0.70529  -0.66112  -0.65848  -0.65068
 Alpha  occ. eigenvalues --   -0.64860  -0.63221  -0.62214  -0.56309  -0.55335
 Alpha  occ. eigenvalues --   -0.54361  -0.53944  -0.53149  -0.52732  -0.49733
 Alpha  occ. eigenvalues --   -0.49708  -0.48918  -0.48905  -0.45678  -0.44931
 Alpha  occ. eigenvalues --   -0.38468  -0.37510  -0.37374  -0.36413
 Alpha virt. eigenvalues --    0.04002   0.04965   0.09987   0.11305   0.15422
 Alpha virt. eigenvalues --    0.16489   0.20235   0.21698   0.25844   0.27342
 Alpha virt. eigenvalues --    0.28075   0.28250   0.30185   0.31337   0.31723

 Mulliken charges:
               1
     1  C   -0.174905
     2  C   -0.218099
     3  C   -0.171739
     4  C    0.159453
     5  C   -0.176631
     6  C   -0.223731
     7  H    0.227065
     8  H    0.223936
     9  H    0.275622
    10  H    0.270560
    11  H    0.234456
    12  N    0.488153
    13  O   -0.462074
    14  O   -0.459816
    15  C   -0.168811
    16  C   -0.218521
    17  C   -0.173096
    18  C    0.161370
    19  C   -0.188209
    20  C   -0.224005
    21  H    0.231549
    22  H    0.227884
    23  H    0.278571
    24  H    0.279887
    25  H    0.228770
    26  N    0.487614
    27  O   -0.457249
    28  O   -0.458004
 Sum of Mulliken charges =  -0.00000

 Dipole moment (field-independent basis, Debye):
    X=              2.9235    Y=              2.6121    Z=              4.4192  Tot=              5.9075
 Quadrupole moment (field-independent basis, Debye-Ang):
   XX=           -144.3862   YY=           -102.5472   ZZ=           -100.8702
   XY=             22.0853   XZ=              0.7790   YZ=             -4.1027

 Normal termination of Gaussian 16 at Thu May  6 14:38:38 2021.
