 Gaussian 16, Revision A.03,
 Gaussian 16:  EM64L-G16RevA.03 25-Dec-2016

 -------------
 #p 6-31g* mp2
 -------------

 ------------------------------------------------------
 Input file generated by CHIRIPA (05-May-2021 14:55:23)
 ------------------------------------------------------
 Symbolic Z-matrix:
 Charge =  0 Multiplicity = 1

                         Standard orientation:
 ---------------------------------------------------------------------
 Center     Atomic      Atomic             Coordinates (Angstroms)
 Number     Number       Type             X           Y           Z
 ---------------------------------------------------------------------
      1          6           0       -0.799759    0.251176    1.449431
      2          6           0       -1.340771   -1.038563    1.429413
      3          6           0       -2.531947   -1.298301    0.745172
      4          6           0       -3.158493   -0.240055    0.088785
      5          6           0       -2.644459    1.055729    0.090346
      6          6           0       -1.452180    1.292370    0.781012
      7          1           0        0.126003    0.443976    1.983461
      8          1           0       -0.836264   -1.849099    1.947630
      9          1           0       -2.972830   -2.287257    0.713455
     10          1           0       -3.170256    1.843364   -0.435569
     11          1           0       -1.034334    2.294996    0.794858
     12          7           0       -4.420122   -0.502802   -0.638991
     13          8           0       -4.952794    0.446693   -1.209390
     14          8           0       -4.852425   -1.653264   -0.625241
     15          6           0        4.301191   -0.212042    0.038067
     16          6           0        4.531211   -1.485922   -0.775754
     17          6           0        5.583200   -2.403793   -0.152354
     18          1           0        5.251758    0.330138    0.135063
     19          1           0        3.992583   -0.486497    1.056315
     20          1           0        4.837956   -1.209128   -1.792567
     21          1           0        3.579947   -2.025035   -0.870987
     22          1           0        5.280431   -2.708598    0.854635
     23          1           0        6.545588   -1.888055   -0.072181
     24          1           0        5.731816   -3.308345   -0.750315
     25          6           0        3.252246    0.715724   -0.572419
     26          6           0        3.022226    1.989605    0.241401
     27          6           0        1.970238    2.907475   -0.381999
     28          1           0        3.560855    0.990181   -1.590667
     29          1           0        2.301679    0.173545   -0.669415
     30          1           0        3.973491    2.528718    0.336635
     31          1           0        2.715482    1.712811    1.258215
     32          1           0        1.007850    2.391739   -0.462171
     33          1           0        2.273007    3.212281   -1.388987
     34          1           0        1.821622    3.812027    0.215963
 ---------------------------------------------------------------------

 SCF Done:  E(RHF) =  -669.535325775     A.U. after   15 cycles
 E2 =    -0.2092201218D+01 EUMP2 =    -0.67162752699268D+03

 The electronic state is 1-A.
 Alpha  occ. eigenvalues --  -20.60794 -20.60789 -15.85848 -11.31238 -11.27809
 Alpha  occ. eigenvalues --  -11.27795 -11.27556 -11.26829 -11.26783 -11.22559
 Alpha  occ. eigenvalues --  -11.22173 -11.22131 -11.22054 -11.22004 -11.21572
 Alpha  occ. eigenvalues --   -1.59869  -1.39422  -1.19413  -1.09178  -1.08802
 Alpha  occ. eigenvalues --   -1.04819  -1.04277  -0.96723  -0.95632  -0.87747
 Alpha  occ. eigenvalues --   -0.86210  -0.82462  -0.80347  -0.78960  -0.77507
 Alpha  occ. eigenvalues --   -0.72066  -0.71192  -0.70521  -0.65850  -0.65061
 Alpha  occ. eigenvalues --   -0.64826  -0.62229  -0.61615  -0.60095  -0.58316
 Alpha  occ. eigenvalues --   -0.56028  -0.55311  -0.53433  -0.53236  -0.53077
 Alpha  occ. eigenvalues --   -0.52857  -0.50636  -0.48827  -0.48820  -0.48643
 Alpha  occ. eigenvalues --   -0.47379  -0.46502  -0.46426  -0.44822  -0.44522
 Alpha  occ. eigenvalues --   -0.37377  -0.36402
 Alpha virt. eigenvalues --    0.05009   0.11081   0.16423   0.19295   0.22707
 Alpha virt. eigenvalues --    0.23877   0.25242   0.26124   0.26748   0.28319
 Alpha virt. eigenvalues --    0.28846   0.30330   0.30963   0.31308   0.32262

 Mulliken charges:
               1
     1  C   -0.173157
     2  C   -0.219092
     3  C   -0.170570
     4  C    0.158638
     5  C   -0.172233
     6  C   -0.220412
     7  H    0.228271
     8  H    0.223623
     9  H    0.275830
    10  H    0.276207
    11  H    0.228126
    12  N    0.488068
    13  O   -0.460089
    14  O   -0.460305
    15  C   -0.297878
    16  C   -0.300181
    17  C   -0.475920
    18  H    0.151685
    19  H    0.145074
    20  H    0.154292
    21  H    0.151951
    22  H    0.153921
    23  H    0.156363
    24  H    0.162393
    25  C   -0.300983
    26  C   -0.299218
    27  C   -0.484718
    28  H    0.153338
    29  H    0.151430
    30  H    0.156517
    31  H    0.142927
    32  H    0.155717
    33  H    0.161536
    34  H    0.158848
 Sum of Mulliken charges =  -0.00000

 Dipole moment (field-independent basis, Debye):
    X=              4.5394    Y=              0.9029    Z=              2.4655  Tot=              5.2441
 Quadrupole moment (field-independent basis, Debye-Ang):
   XX=           -122.9819   YY=            -90.9078   ZZ=            -94.4918
   XY=             -3.3859   XZ=             -8.6552   YZ=             -2.1658

 Normal termination of Gaussian 16 at Thu May  6 17:37:49 2021.
