 Gaussian 16, Revision A.03,
 Gaussian 16:  EM64L-G16RevA.03 25-Dec-2016

 -------------
 #p 6-31g* mp2
 -------------

 ------------------------------------------------------
 Input file generated by CHIRIPA (05-May-2021 14:53:12)
 ------------------------------------------------------
 Symbolic Z-matrix:
 Charge =  0 Multiplicity = 1

                         Standard orientation:
 ---------------------------------------------------------------------
 Center     Atomic      Atomic             Coordinates (Angstroms)
 Number     Number       Type             X           Y           Z
 ---------------------------------------------------------------------
      1          6           0        5.863026   -0.154471    0.300958
      2          6           0        6.957424   -0.294404   -0.757672
      3          6           0        8.350050   -0.463289   -0.149508
      4          1           0        6.091118    0.707092    0.943319
      5          1           0        5.875472   -1.040640    0.950531
      6          1           0        6.942011    0.591130   -1.405907
      7          1           0        6.726599   -1.155619   -1.397707
      8          1           0        8.388908   -1.356831    0.481899
      9          1           0        8.605544    0.399842    0.473652
     10          1           0        9.117126   -0.561522   -0.923979
     11          6           0        4.465191    0.015130   -0.291511
     12          6           0        3.370793    0.155063    0.767119
     13          6           0        1.978167    0.323949    0.158955
     14          1           0        4.452745    0.901299   -0.941084
     15          1           0        4.237098   -0.846432   -0.933872
     16          1           0        3.601617    1.016278    1.407154
     17          1           0        3.386206   -0.730470    1.415354
     18          1           0        1.722673   -0.539183   -0.464205
     19          1           0        1.939309    1.217490   -0.472452
     20          1           0        1.211091    0.422181    0.933426
     21          6           0       -2.755636    2.225947    0.118985
     22          6           0       -2.138702    1.028085    0.494539
     23          6           0       -2.837650   -0.181020    0.430625
     24          6           0       -4.158091   -0.155505   -0.015550
     25          6           0       -4.800368    1.021576   -0.396670
     26          6           0       -4.082161    2.218882   -0.324638
     27          1           0       -2.205197    3.160626    0.171788
     28          1           0       -1.108616    1.030561    0.839448
     29          1           0       -2.384400   -1.122816    0.715236
     30          1           0       -5.828386    0.987382   -0.736418
     31          1           0       -4.563835    3.147642   -0.616941
     32          7           0       -4.908230   -1.429284   -0.087510
     33          8           0       -6.070547   -1.380019   -0.484030
     34          8           0       -4.319669   -2.452817    0.253972
 ---------------------------------------------------------------------

 SCF Done:  E(RHF) =  -669.535525056     A.U. after   15 cycles
 E2 =    -0.2090673407D+01 EUMP2 =    -0.67162619846258D+03

 The electronic state is 1-A.
 Alpha  occ. eigenvalues --  -20.60710 -20.60705 -15.85762 -11.31113 -11.27682
 Alpha  occ. eigenvalues --  -11.27665 -11.27415 -11.26700 -11.26644 -11.22308
 Alpha  occ. eigenvalues --  -11.22083 -11.21936 -11.21917 -11.21783 -11.21343
 Alpha  occ. eigenvalues --   -1.59786  -1.39339  -1.19281  -1.08941  -1.08680
 Alpha  occ. eigenvalues --   -1.04681  -1.04085  -0.96558  -0.95518  -0.87587
 Alpha  occ. eigenvalues --   -0.86078  -0.82351  -0.80153  -0.78717  -0.77399
 Alpha  occ. eigenvalues --   -0.71981  -0.71108  -0.70393  -0.65563  -0.64932
 Alpha  occ. eigenvalues --   -0.64710  -0.62068  -0.61471  -0.59946  -0.58146
 Alpha  occ. eigenvalues --   -0.55828  -0.55191  -0.53420  -0.53021  -0.52979
 Alpha  occ. eigenvalues --   -0.52611  -0.50480  -0.48739  -0.48737  -0.48463
 Alpha  occ. eigenvalues --   -0.47160  -0.46270  -0.46169  -0.44748  -0.44333
 Alpha  occ. eigenvalues --   -0.37264  -0.36281
 Alpha virt. eigenvalues --    0.05132   0.11360   0.16621   0.20303   0.22497
 Alpha virt. eigenvalues --    0.23766   0.25720   0.26182   0.27027   0.28365
 Alpha virt. eigenvalues --    0.28425   0.29890   0.30877   0.31530   0.32300

 Mulliken charges:
               1
     1  C   -0.298766
     2  C   -0.300057
     3  C   -0.475997
     4  H    0.149805
     5  H    0.150827
     6  H    0.152029
     7  H    0.153028
     8  H    0.155956
     9  H    0.155265
    10  H    0.161355
    11  C   -0.299443
    12  C   -0.298934
    13  C   -0.480460
    14  H    0.149736
    15  H    0.151758
    16  H    0.152469
    17  H    0.154834
    18  H    0.160927
    19  H    0.155941
    20  H    0.151330
    21  C   -0.172837
    22  C   -0.223790
    23  C   -0.173469
    24  C    0.158670
    25  C   -0.171353
    26  C   -0.218457
    27  H    0.225739
    28  H    0.233475
    29  H    0.275391
    30  H    0.275274
    31  H    0.222996
    32  N    0.488127
    33  O   -0.460754
    34  O   -0.460614
 Sum of Mulliken charges =  -0.00000

 Dipole moment (field-independent basis, Debye):
    X=              2.8703    Y=              4.4638    Z=              0.2176  Tot=              5.3115
 Quadrupole moment (field-independent basis, Debye-Ang):
   XX=           -114.2392   YY=            -94.4145   ZZ=            -95.1185
   XY=            -21.3426   XZ=              0.1415   YZ=             -1.0653

 Normal termination of Gaussian 16 at Wed May  5 23:21:04 2021.
