 Gaussian 16, Revision A.03,
 Gaussian 16:  EM64L-G16RevA.03 25-Dec-2016

 -------------
 #p 6-31g* mp2
 -------------

 ------------------------------------------------------
 Input file generated by CHIRIPA (05-May-2021 14:53:11)
 ------------------------------------------------------
 Symbolic Z-matrix:
 Charge =  0 Multiplicity = 1

                         Standard orientation:
 ---------------------------------------------------------------------
 Center     Atomic      Atomic             Coordinates (Angstroms)
 Number     Number       Type             X           Y           Z
 ---------------------------------------------------------------------
      1          6           0       -2.378615    1.189990   -0.708588
      2          6           0       -1.013745    1.806223   -0.399770
      3          6           0       -0.629615    2.914026   -1.381101
      4          1           0       -2.369815    0.788971   -1.731355
      5          1           0       -3.142533    1.979573   -0.689004
      6          1           0       -0.252833    1.015480   -0.418568
      7          1           0       -1.025733    2.205652    0.622448
      8          1           0       -1.367161    3.722760   -1.357068
      9          1           0       -0.589869    2.525826   -2.403999
     10          1           0        0.349498    3.340577   -1.141827
     11          6           0       -2.776614    0.081018    0.263783
     12          6           0       -4.141485   -0.535216   -0.045036
     13          6           0       -4.525614   -1.643019    0.936295
     14          1           0       -2.012696   -0.708565    0.244198
     15          1           0       -2.785414    0.482037    1.286549
     16          1           0       -4.129496   -0.934644   -1.067254
     17          1           0       -4.902396    0.255528   -0.026237
     18          1           0       -4.565361   -1.254818    1.959194
     19          1           0       -3.788069   -2.451752    0.912263
     20          1           0       -5.504727   -2.069570    0.697022
     21          6           0        2.316174    1.494601    1.693633
     22          6           0        1.814671    0.293228    2.205217
     23          6           0        1.642971   -0.816435    1.372321
     24          6           0        1.984525   -0.688978    0.026816
     25          6           0        2.486451    0.494361   -0.512690
     26          6           0        2.649876    1.591163    0.338701
     27          1           0        2.446341    2.351618    2.347829
     28          1           0        1.554674    0.215347    3.257064
     29          1           0        1.256722   -1.758513    1.742076
     30          1           0        2.736779    0.541544   -1.565556
     31          1           0        3.039560    2.522905   -0.061359
     32          7           0        1.807134   -1.856922   -0.864724
     33          8           0        2.115516   -1.718920   -2.046457
     34          8           0        1.363073   -2.888241   -0.364897
 ---------------------------------------------------------------------

 SCF Done:  E(RHF) =  -669.534139575     A.U. after   15 cycles
 E2 =    -0.2095351605D+01 EUMP2 =    -0.67162949118062D+03

 The electronic state is 1-A.
 Alpha  occ. eigenvalues --  -20.60872 -20.60867 -15.85924 -11.31266 -11.27866
 Alpha  occ. eigenvalues --  -11.27826 -11.27606 -11.26877 -11.26855 -11.21483
 Alpha  occ. eigenvalues --  -11.21460 -11.21320 -11.21259 -11.21239 -11.20920
 Alpha  occ. eigenvalues --   -1.59950  -1.39502  -1.19485  -1.08863  -1.08354
 Alpha  occ. eigenvalues --   -1.04874  -1.03474  -0.95951  -0.95696  -0.86971
 Alpha  occ. eigenvalues --   -0.86264  -0.82523  -0.79551  -0.78179  -0.77570
 Alpha  occ. eigenvalues --   -0.72140  -0.71286  -0.70567  -0.65118  -0.65000
 Alpha  occ. eigenvalues --   -0.64867  -0.62213  -0.60912  -0.59387  -0.57608
 Alpha  occ. eigenvalues --   -0.55365  -0.55254  -0.53291  -0.52969  -0.52580
 Alpha  occ. eigenvalues --   -0.52371  -0.49872  -0.48900  -0.48896  -0.47800
 Alpha  occ. eigenvalues --   -0.46543  -0.45689  -0.45569  -0.44903  -0.43733
 Alpha  occ. eigenvalues --   -0.37410  -0.36421
 Alpha virt. eigenvalues --    0.04945   0.11080   0.16385   0.21029   0.22960
 Alpha virt. eigenvalues --    0.24230   0.26459   0.26709   0.27418   0.28211
 Alpha virt. eigenvalues --    0.28462   0.30128   0.31420   0.31999   0.32022

 Mulliken charges:
               1
     1  C   -0.298654
     2  C   -0.302968
     3  C   -0.475774
     4  H    0.152557
     5  H    0.147576
     6  H    0.161571
     7  H    0.146227
     8  H    0.154936
     9  H    0.157354
    10  H    0.150383
    11  C   -0.298574
    12  C   -0.299495
    13  C   -0.476538
    14  H    0.151468
    15  H    0.145332
    16  H    0.155076
    17  H    0.150554
    18  H    0.152137
    19  H    0.158711
    20  H    0.160583
    21  C   -0.170358
    22  C   -0.215479
    23  C   -0.171693
    24  C    0.159752
    25  C   -0.176805
    26  C   -0.211424
    27  H    0.226236
    28  H    0.224177
    29  H    0.276144
    30  H    0.276114
    31  H    0.224040
    32  N    0.487748
    33  O   -0.460183
    34  O   -0.460730
 Sum of Mulliken charges =  -0.00000

 Dipole moment (field-independent basis, Debye):
    X=              0.7291    Y=              4.0123    Z=              3.1615  Tot=              5.1600
 Quadrupole moment (field-independent basis, Debye-Ang):
   XX=            -92.4135   YY=           -100.0360   ZZ=            -91.8301
   XY=              8.5242   XZ=              5.0287   YZ=             -3.3360

 Normal termination of Gaussian 16 at Thu May  6 00:53:29 2021.
