 Gaussian 16, Revision A.03,
 Gaussian 16:  EM64L-G16RevA.03 25-Dec-2016

 -------------
 #p 6-31g* mp2
 -------------

 ------------------------------------------------------
 Input file generated by CHIRIPA (05-May-2021 14:51:10)
 ------------------------------------------------------
 Symbolic Z-matrix:
 Charge =  0 Multiplicity = 1

                         Standard orientation:
 ---------------------------------------------------------------------
 Center     Atomic      Atomic             Coordinates (Angstroms)
 Number     Number       Type             X           Y           Z
 ---------------------------------------------------------------------
      1          6           0       -2.438237    0.770429   -0.693443
      2          6           0       -2.752643    2.116978   -0.040802
      3          6           0       -1.873819    3.250344   -0.570843
      4          1           0       -1.380611    0.526120   -0.524074
      5          1           0       -2.568384    0.858655   -1.780951
      6          1           0       -2.623281    2.025861    1.045282
      7          1           0       -3.809691    2.358019   -0.211580
      8          1           0       -2.009264    3.370100   -1.650618
      9          1           0       -0.816113    3.036055   -0.386615
     10          1           0       -2.115424    4.203787   -0.090809
     11          6           0       -3.308594   -0.372508   -0.173923
     12          6           0       -2.994189   -1.719057   -0.826564
     13          6           0       -3.873013   -2.852423   -0.296523
     14          1           0       -3.178447   -0.460734    0.913584
     15          1           0       -4.366220   -0.128200   -0.343292
     16          1           0       -1.937141   -1.960098   -0.655787
     17          1           0       -3.123551   -1.627940   -1.912649
     18          1           0       -4.930718   -2.638134   -0.480752
     19          1           0       -3.737567   -2.972179    0.783252
     20          1           0       -3.631407   -3.805867   -0.776557
     21          6           0        3.138316   -0.249363   -0.280963
     22          6           0        4.664956   -0.230136   -0.364530
     23          6           0        5.179706   -0.331720   -1.800674
     24          1           0        2.763841   -1.173727   -0.741686
     25          1           0        2.735002    0.581932   -0.875676
     26          1           0        5.065320   -1.060392    0.231288
     27          1           0        5.035851    0.694200    0.096616
     28          1           0        4.808129    0.503530   -2.403077
     29          1           0        4.837766   -1.261032   -2.267640
     30          1           0        6.273455   -0.316151   -1.837166
     31          6           0        2.608516   -0.148558    1.148330
     32          6           0        1.081876   -0.167784    1.231897
     33          6           0        0.567126   -0.066201    2.668040
     34          1           0        3.011830   -0.979852    1.743042
     35          1           0        2.982991    0.775806    1.609052
     36          1           0        0.710982   -1.092120    0.770750
     37          1           0        0.681512    0.662472    0.636079
     38          1           0        0.909065    0.863111    3.135006
     39          1           0        0.938703   -0.901451    3.270443
     40          1           0       -0.526622   -0.081770    2.704533
 ---------------------------------------------------------------------

 SCF Done:  E(RHF) =  -470.733120545     A.U. after   11 cycles
 E2 =    -0.1583844423D+01 EUMP2 =    -0.47231696496825D+03

 The electronic state is 1-A.
 Alpha  occ. eigenvalues --  -11.21715 -11.21638 -11.21580 -11.21575 -11.21471
 Alpha  occ. eigenvalues --  -11.21407 -11.21355 -11.21254 -11.21183 -11.21093
 Alpha  occ. eigenvalues --  -11.21088 -11.21058  -1.08512  -1.08385  -1.03609
 Alpha  occ. eigenvalues --   -1.03508  -0.96050  -0.95955  -0.87064  -0.86976
 Alpha  occ. eigenvalues --   -0.79707  -0.79559  -0.78392  -0.78123  -0.65185
 Alpha  occ. eigenvalues --   -0.65001  -0.61109  -0.60810  -0.59415  -0.59323
 Alpha  occ. eigenvalues --   -0.57669  -0.57561  -0.55329  -0.55241  -0.52745
 Alpha  occ. eigenvalues --   -0.52661  -0.52472  -0.52386  -0.50004  -0.49899
 Alpha  occ. eigenvalues --   -0.48099  -0.47879  -0.46854  -0.46495  -0.46127
 Alpha  occ. eigenvalues --   -0.45778  -0.45716  -0.45246  -0.43841  -0.43753
 Alpha virt. eigenvalues --    0.19537   0.22741   0.23303   0.24884   0.25251
 Alpha virt. eigenvalues --    0.26040   0.26398   0.27780   0.28623   0.29454
 Alpha virt. eigenvalues --    0.29857   0.31527   0.31619   0.31977   0.32186

 Mulliken charges:
               1
     1  C   -0.306867
     2  C   -0.299739
     3  C   -0.477083
     4  H    0.160076
     5  H    0.148904
     6  H    0.152050
     7  H    0.151899
     8  H    0.155401
     9  H    0.154969
    10  H    0.160370
    11  C   -0.298332
    12  C   -0.301078
    13  C   -0.475692
    14  H    0.149311
    15  H    0.149472
    16  H    0.153023
    17  H    0.151981
    18  H    0.155213
    19  H    0.155105
    20  H    0.160039
    21  C   -0.298550
    22  C   -0.299701
    23  C   -0.475779
    24  H    0.149792
    25  H    0.149580
    26  H    0.152019
    27  H    0.152066
    28  H    0.155398
    29  H    0.155279
    30  H    0.160384
    31  C   -0.297496
    32  C   -0.306945
    33  C   -0.477082
    34  H    0.149835
    35  H    0.149947
    36  H    0.152996
    37  H    0.156720
    38  H    0.155790
    39  H    0.155898
    40  H    0.160826
 Sum of Mulliken charges =  -0.00000

 Dipole moment (field-independent basis, Debye):
    X=              0.0493    Y=             -0.0061    Z=              0.0064  Tot=              0.0501
 Quadrupole moment (field-independent basis, Debye-Ang):
   XX=            -84.9346   YY=            -84.5951   ZZ=            -85.2665
   XY=             -0.6312   XZ=              1.1921   YZ=             -0.0253

 Normal termination of Gaussian 16 at Wed May  5 15:10:48 2021.
