 Gaussian 16, Revision A.03,
 Gaussian 16:  EM64L-G16RevA.03 25-Dec-2016

 -------------
 #p 6-31g* mp2
 -------------

 ------------------------------------------------------
 Input file generated by CHIRIPA (05-May-2021 14:57:23)
 ------------------------------------------------------
 Symbolic Z-matrix:
 Charge =  0 Multiplicity = 1

                         Standard orientation:
 ---------------------------------------------------------------------
 Center     Atomic      Atomic             Coordinates (Angstroms)
 Number     Number       Type             X           Y           Z
 ---------------------------------------------------------------------
      1          6           0        2.982211    2.238483   -0.681556
      2          6           0        4.014736    1.356642   -0.345744
      3          6           0        3.729428    0.044270    0.042620
      4          6           0        2.394345   -0.354608    0.084330
      5          6           0        1.343528    0.500418   -0.244308
      6          6           0        1.652247    1.808315   -0.629857
      7          1           0        3.212938    3.256226   -0.982153
      8          1           0        5.048529    1.687968   -0.384988
      9          1           0        4.509286   -0.659221    0.307834
     10          1           0        0.322745    0.141183   -0.195639
     11          1           0        0.848331    2.490984   -0.890104
     12          7           0        2.079910   -1.741589    0.493984
     13          8           0        0.895467   -2.068557    0.522669
     14          8           0        3.023853   -2.475473    0.778629
     15          6           0       -2.335358    2.360149    1.150361
     16          6           0       -2.261951    2.294924   -0.244944
     17          6           0       -2.322318    1.062520   -0.902277
     18          6           0       -2.456880   -0.089970   -0.129653
     19          6           0       -2.532680   -0.057690    1.261930
     20          6           0       -2.470250    1.185704    1.898027
     21          1           0       -2.287662    3.321778    1.652745
     22          1           0       -2.157177    3.205382   -0.828153
     23          1           0       -2.267839    0.983167   -1.981236
     24          1           0       -2.636962   -0.982469    1.816301
     25          1           0       -2.527504    1.233334    2.981770
     26          7           0       -2.521880   -1.400478   -0.814301
     27          8           0       -2.640567   -2.401312   -0.110822
     28          8           0       -2.452909   -1.402007   -2.041443
 ---------------------------------------------------------------------

 SCF Done:  E(RHF) =  -868.335848449     A.U. after   16 cycles
 E2 =    -0.2604818351D+01 EUMP2 =    -0.87094066680043D+03

 The electronic state is 1-A.
 Alpha  occ. eigenvalues --  -20.60631 -20.60558 -20.60534 -20.60533 -15.85658
 Alpha  occ. eigenvalues --  -15.85593 -11.31495 -11.31042 -11.28231 -11.28053
 Alpha  occ. eigenvalues --  -11.27989 -11.27657 -11.27554 -11.27457 -11.27354
 Alpha  occ. eigenvalues --  -11.27156 -11.26704 -11.26683  -1.59640  -1.59613
 Alpha  occ. eigenvalues --   -1.39185  -1.39164  -1.19797  -1.19245  -1.09056
 Alpha  occ. eigenvalues --   -1.08639  -1.05237  -1.04659  -0.95796  -0.95449
 Alpha  occ. eigenvalues --   -0.86581  -0.86073  -0.82623  -0.82277  -0.77579
 Alpha  occ. eigenvalues --   -0.77325  -0.71884  -0.71850  -0.70970  -0.70912
 Alpha  occ. eigenvalues --   -0.70798  -0.70375  -0.65379  -0.65192  -0.64904
 Alpha  occ. eigenvalues --   -0.64702  -0.62525  -0.62092  -0.55669  -0.55279
 Alpha  occ. eigenvalues --   -0.53536  -0.53271  -0.52992  -0.52647  -0.48673
 Alpha  occ. eigenvalues --   -0.48601  -0.48570  -0.48560  -0.44552  -0.44461
 Alpha  occ. eigenvalues --   -0.37781  -0.37267  -0.36870  -0.36244
 Alpha virt. eigenvalues --    0.04948   0.05217   0.10725   0.11370   0.16265
 Alpha virt. eigenvalues --    0.16688   0.20559   0.21754   0.26054   0.28012
 Alpha virt. eigenvalues --    0.28084   0.28282   0.29950   0.31592   0.32270

 Mulliken charges:
               1
     1  C   -0.171045
     2  C   -0.219467
     3  C   -0.169540
     4  C    0.156065
     5  C   -0.173229
     6  C   -0.224995
     7  H    0.223005
     8  H    0.222626
     9  H    0.275793
    10  H    0.287989
    11  H    0.216760
    12  N    0.487488
    13  O   -0.458940
    14  O   -0.460399
    15  C   -0.172162
    16  C   -0.222262
    17  C   -0.185298
    18  C    0.150604
    19  C   -0.165811
    20  C   -0.217048
    21  H    0.226492
    22  H    0.221175
    23  H    0.277308
    24  H    0.284668
    25  H    0.227244
    26  N    0.494272
    27  O   -0.447364
    28  O   -0.463928
 Sum of Mulliken charges =  -0.00000

 Dipole moment (field-independent basis, Debye):
    X=              1.0673    Y=              9.0866    Z=              1.1959  Tot=              9.2269
 Quadrupole moment (field-independent basis, Debye-Ang):
   XX=            -96.3306   YY=           -109.0569   ZZ=           -102.5289
   XY=             -0.5090   XZ=             -9.6586   YZ=             -2.2424

 Normal termination of Gaussian 16 at Wed May  5 19:22:51 2021.
