 Gaussian 16, Revision A.03,
 Gaussian 16:  EM64L-G16RevA.03 25-Dec-2016

 -------------
 #p 6-31g* mp2
 -------------

 ------------------------------------------------------
 Input file generated by CHIRIPA (05-May-2021 14:51:13)
 ------------------------------------------------------
 Symbolic Z-matrix:
 Charge =  0 Multiplicity = 1

                         Standard orientation:
 ---------------------------------------------------------------------
 Center     Atomic      Atomic             Coordinates (Angstroms)
 Number     Number       Type             X           Y           Z
 ---------------------------------------------------------------------
      1          6           0       -3.288217    0.399903   -0.355832
      2          6           0       -4.148824    1.360369    0.465660
      3          6           0       -4.597834    2.583484   -0.334449
      4          1           0       -2.407034    0.937505   -0.731924
      5          1           0       -3.855631    0.073736   -1.238470
      6          1           0       -3.580464    1.683549    1.347214
      7          1           0       -5.027963    0.820369    0.839999
      8          1           0       -5.187102    2.278968   -1.205444
      9          1           0       -3.731379    3.147052   -0.695348
     10          1           0       -5.211770    3.256670    0.271986
     11          6           0       -2.831590   -0.827778    0.430308
     12          6           0       -1.970983   -1.788244   -0.391183
     13          6           0       -1.521973   -3.011359    0.408925
     14          1           0       -2.264176   -0.501610    1.312947
     15          1           0       -3.712773   -1.365380    0.806400
     16          1           0       -1.091844   -1.248244   -0.765523
     17          1           0       -2.539343   -2.111424   -1.272737
     18          1           0       -2.388428   -3.574927    0.769824
     19          1           0       -0.932705   -2.706843    1.279921
     20          1           0       -0.908037   -3.684545   -0.197509
     21          6           0        2.722424   -0.382684   -0.374258
     22          6           0        3.048046   -1.719708    0.292319
     23          6           0        2.365559   -2.903768   -0.393252
     24          1           0        1.634020   -0.233351   -0.369592
     25          1           0        3.027906   -0.422742   -1.428995
     26          1           0        2.743304   -1.676657    1.345835
     27          1           0        4.135814   -1.865787    0.286237
     28          1           0        2.677814   -2.975049   -1.440159
     29          1           0        1.277391   -2.784844   -0.374542
     30          1           0        2.612003   -3.849493    0.099427
     31          6           0        3.397383    0.810560    0.299781
     32          6           0        3.071761    2.147583   -0.366796
     33          6           0        3.754248    3.331643    0.318775
     34          1           0        3.091900    0.850617    1.354518
     35          1           0        4.485787    0.661226    0.295115
     36          1           0        1.983993    2.293661   -0.360713
     37          1           0        3.376503    2.104532   -1.420311
     38          1           0        4.842415    3.212719    0.300066
     39          1           0        3.441994    3.402923    1.365683
     40          1           0        3.507804    4.277367   -0.173903
 ---------------------------------------------------------------------

 SCF Done:  E(RHF) =  -470.732828256     A.U. after   11 cycles
 E2 =    -0.1583358904D+01 EUMP2 =    -0.47231618716017D+03

 The electronic state is 1-A.
 Alpha  occ. eigenvalues --  -11.21665 -11.21634 -11.21631 -11.21584 -11.21452
 Alpha  occ. eigenvalues --  -11.21428 -11.21391 -11.21368 -11.21100 -11.21094
 Alpha  occ. eigenvalues --  -11.21094 -11.20950  -1.08484  -1.08436  -1.03603
 Alpha  occ. eigenvalues --   -1.03502  -0.96074  -0.95929  -0.87104  -0.86931
 Alpha  occ. eigenvalues --   -0.79649  -0.79580  -0.78303  -0.78244  -0.65205
 Alpha  occ. eigenvalues --   -0.64995  -0.61176  -0.60772  -0.59421  -0.59328
 Alpha  occ. eigenvalues --   -0.57737  -0.57500  -0.55495  -0.55080  -0.52812
 Alpha  occ. eigenvalues --   -0.52636  -0.52505  -0.52269  -0.50089  -0.49745
 Alpha  occ. eigenvalues --   -0.47958  -0.47882  -0.46686  -0.46604  -0.45932
 Alpha  occ. eigenvalues --   -0.45790  -0.45758  -0.45593  -0.43832  -0.43768
 Alpha virt. eigenvalues --    0.20236   0.23362   0.23437   0.25108   0.25487
 Alpha virt. eigenvalues --    0.26874   0.27015   0.27193   0.28643   0.29135
 Alpha virt. eigenvalues --    0.30691   0.30842   0.31478   0.31808   0.32369

 Mulliken charges:
               1
     1  C   -0.298292
     2  C   -0.299691
     3  C   -0.475737
     4  H    0.149389
     5  H    0.149832
     6  H    0.151819
     7  H    0.152075
     8  H    0.155301
     9  H    0.155230
    10  H    0.160362
    11  C   -0.298058
    12  C   -0.305302
    13  C   -0.480010
    14  H    0.149210
    15  H    0.150104
    16  H    0.155249
    17  H    0.152814
    18  H    0.156840
    19  H    0.155328
    20  H    0.163130
    21  C   -0.300978
    22  C   -0.298981
    23  C   -0.485450
    24  H    0.150868
    25  H    0.149780
    26  H    0.151261
    27  H    0.151834
    28  H    0.154214
    29  H    0.168096
    30  H    0.159701
    31  C   -0.298206
    32  C   -0.299520
    33  C   -0.475714
    34  H    0.149340
    35  H    0.149995
    36  H    0.151257
    37  H    0.152118
    38  H    0.155341
    39  H    0.155139
    40  H    0.160310
 Sum of Mulliken charges =  -0.00000

 Dipole moment (field-independent basis, Debye):
    X=             -0.0352    Y=             -0.0161    Z=             -0.0056  Tot=              0.0392
 Quadrupole moment (field-independent basis, Debye-Ang):
   XX=            -83.7495   YY=            -86.2595   ZZ=            -84.6842
   XY=              0.4082   XZ=             -0.5743   YZ=              0.2682

 Normal termination of Gaussian 16 at Wed May  5 16:52:57 2021.
