 Gaussian 16, Revision A.03,
 Gaussian 16:  EM64L-G16RevA.03 25-Dec-2016

 -------------
 #p 6-31g* mp2
 -------------

 ------------------------------------------------------
 Input file generated by CHIRIPA (05-May-2021 14:55:23)
 ------------------------------------------------------
 Symbolic Z-matrix:
 Charge =  0 Multiplicity = 1

                         Standard orientation:
 ---------------------------------------------------------------------
 Center     Atomic      Atomic             Coordinates (Angstroms)
 Number     Number       Type             X           Y           Z
 ---------------------------------------------------------------------
      1          6           0        1.877154    0.073907    2.574576
      2          6           0        2.077958   -1.225343    2.096927
      3          6           0        2.315233   -1.453540    0.738187
      4          6           0        2.345166   -0.354397   -0.118713
      5          6           0        2.148789    0.951855    0.326743
      6          6           0        1.913147    1.156451    1.689521
      7          1           0        1.693466    0.242008    3.631646
      8          1           0        2.050553   -2.067964    2.781970
      9          1           0        2.473944   -2.448984    0.341550
     10          1           0        2.181884    1.771767   -0.380411
     11          1           0        1.757541    2.166554    2.057654
     12          7           0        2.595495   -0.583485   -1.559287
     13          8           0        2.616989    0.401793   -2.293728
     14          8           0        2.765469   -1.743985   -1.926692
     15          6           0       -3.630323    0.073230   -0.246642
     16          6           0       -3.647858   -1.401074    0.158456
     17          6           0       -5.017758   -2.051514   -0.036731
     18          1           0       -4.383051    0.617163    0.340285
     19          1           0       -3.932043    0.160572   -1.299606
     20          1           0       -3.344859   -1.485732    1.209951
     21          1           0       -2.894869   -1.941525   -0.429367
     22          1           0       -5.324287   -1.996536   -1.086311
     23          1           0       -5.776834   -1.538153    0.562321
     24          1           0       -5.007672   -3.105221    0.259007
     25          6           0       -2.267685    0.737368   -0.057257
     26          6           0       -2.250149    2.211672   -0.462356
     27          6           0       -0.880251    2.862113   -0.267169
     28          1           0       -1.965966    0.650026    0.995707
     29          1           0       -1.514958    0.193435   -0.644183
     30          1           0       -3.003139    2.752123    0.125468
     31          1           0       -2.553149    2.296331   -1.513850
     32          1           0       -0.121174    2.348752   -0.866221
     33          1           0       -0.573720    2.807134    0.782411
     34          1           0       -0.890336    3.915819   -0.562907
 ---------------------------------------------------------------------

 SCF Done:  E(RHF) =  -669.534523307     A.U. after   15 cycles
 E2 =    -0.2093221349D+01 EUMP2 =    -0.67162774465573D+03

 The electronic state is 1-A.
 Alpha  occ. eigenvalues --  -20.60800 -20.60794 -15.85848 -11.31170 -11.27743
 Alpha  occ. eigenvalues --  -11.27719 -11.27490 -11.26745 -11.26725 -11.21793
 Alpha  occ. eigenvalues --  -11.21686 -11.21506 -11.21439 -11.21410 -11.21132
 Alpha  occ. eigenvalues --   -1.59874  -1.39429  -1.19349  -1.08753  -1.08553
 Alpha  occ. eigenvalues --   -1.04754  -1.03685  -0.96162  -0.95590  -0.87191
 Alpha  occ. eigenvalues --   -0.86153  -0.82427  -0.79775  -0.78364  -0.77464
 Alpha  occ. eigenvalues --   -0.72066  -0.71198  -0.70474  -0.65199  -0.65002
 Alpha  occ. eigenvalues --   -0.64753  -0.62132  -0.61079  -0.59515  -0.57761
 Alpha  occ. eigenvalues --   -0.55474  -0.55249  -0.53179  -0.52878  -0.52831
 Alpha  occ. eigenvalues --   -0.52486  -0.50076  -0.48825  -0.48822  -0.48065
 Alpha  occ. eigenvalues --   -0.46777  -0.45898  -0.45818  -0.44834  -0.43932
 Alpha  occ. eigenvalues --   -0.37328  -0.36259
 Alpha virt. eigenvalues --    0.05046   0.11184   0.16488   0.20945   0.22780
 Alpha virt. eigenvalues --    0.24206   0.25999   0.26200   0.27447   0.27900
 Alpha virt. eigenvalues --    0.29102   0.29361   0.31562   0.31756   0.32176

 Mulliken charges:
               1
     1  C   -0.171722
     2  C   -0.218277
     3  C   -0.170953
     4  C    0.157073
     5  C   -0.167531
     6  C   -0.217278
     7  H    0.225317
     8  H    0.223246
     9  H    0.275369
    10  H    0.277240
    11  H    0.223868
    12  N    0.488258
    13  O   -0.461759
    14  O   -0.460229
    15  C   -0.298667
    16  C   -0.299711
    17  C   -0.475752
    18  H    0.148495
    19  H    0.151874
    20  H    0.148999
    21  H    0.154312
    22  H    0.156842
    23  H    0.154426
    24  H    0.160009
    25  C   -0.298359
    26  C   -0.299164
    27  C   -0.480630
    28  H    0.146547
    29  H    0.152690
    30  H    0.150950
    31  H    0.156183
    32  H    0.160236
    33  H    0.147176
    34  H    0.160924
 Sum of Mulliken charges =  -0.00000

 Dipole moment (field-independent basis, Debye):
    X=             -0.9018    Y=              0.7791    Z=              5.0129  Tot=              5.1526
 Quadrupole moment (field-independent basis, Debye-Ang):
   XX=           -100.5284   YY=            -90.9953   ZZ=            -95.5397
   XY=              1.2497   XZ=             12.0809   YZ=             -2.7330

 Normal termination of Gaussian 16 at Thu May  6 14:18:31 2021.
