 Gaussian 16, Revision A.03,
 Gaussian 16:  EM64L-G16RevA.03 25-Dec-2016

 -------------
 #p 6-31g* mp2
 -------------

 ------------------------------------------------------
 Input file generated by CHIRIPA (05-May-2021 14:57:24)
 ------------------------------------------------------
 Symbolic Z-matrix:
 Charge =  0 Multiplicity = 1

                         Standard orientation:
 ---------------------------------------------------------------------
 Center     Atomic      Atomic             Coordinates (Angstroms)
 Number     Number       Type             X           Y           Z
 ---------------------------------------------------------------------
      1          6           0       -3.079135    2.522894   -0.567349
      2          6           0       -2.074700    1.582437   -0.818693
      3          6           0       -2.307355    0.220651   -0.604316
      4          6           0       -3.561712   -0.167333   -0.135972
      5          6           0       -4.582716    0.745558    0.123777
      6          6           0       -4.327736    2.102194   -0.097744
      7          1           0       -2.889732    3.578762   -0.736657
      8          1           0       -1.104063    1.906275   -1.183437
      9          1           0       -1.547633   -0.528691   -0.790667
     10          1           0       -5.540213    0.392364    0.486919
     11          1           0       -5.109667    2.830335    0.098316
     12          7           0       -3.819831   -1.606270    0.094760
     13          8           0       -4.933433   -1.922439    0.507755
     14          8           0       -2.903654   -2.390692   -0.141754
     15          6           0        1.098014   -0.103336    0.883082
     16          6           0        1.917114    0.972866    1.239997
     17          6           0        3.260101    1.002008    0.852591
     18          6           0        3.753240   -0.066580    0.105449
     19          6           0        2.962427   -1.152942   -0.265665
     20          6           0        1.622361   -1.160940    0.132714
     21          1           0        0.055883   -0.117760    1.188290
     22          1           0        1.512607    1.795591    1.822700
     23          1           0        3.916524    1.822712    1.115217
     24          1           0        3.394197   -1.958582   -0.846989
     25          1           0        0.988575   -1.998038   -0.145905
     26          7           0        5.173454   -0.046922   -0.310489
     27          8           0        5.583818   -1.000585   -0.968337
     28          8           0        5.849363    0.921779    0.029224
 ---------------------------------------------------------------------

 SCF Done:  E(RHF) =  -868.337971173     A.U. after   16 cycles
 E2 =    -0.2601021379D+01 EUMP2 =    -0.87093899255117D+03

 The electronic state is 1-A.
 Alpha  occ. eigenvalues --  -20.61714 -20.61675 -20.60997 -20.60989 -15.86748
 Alpha  occ. eigenvalues --  -15.86050 -11.32133 -11.31484 -11.28705 -11.28622
 Alpha  occ. eigenvalues --  -11.28349 -11.28073 -11.28020 -11.27752 -11.27671
 Alpha  occ. eigenvalues --  -11.27636 -11.27108 -11.27007  -1.60767  -1.60070
 Alpha  occ. eigenvalues --   -1.40323  -1.39621  -1.20286  -1.19661  -1.09659
 Alpha  occ. eigenvalues --   -1.09048  -1.05682  -1.05060  -0.96506  -0.95864
 Alpha  occ. eigenvalues --   -0.87072  -0.86448  -0.83333  -0.82681  -0.78397
 Alpha  occ. eigenvalues --   -0.77720  -0.72963  -0.72265  -0.72095  -0.71441
 Alpha  occ. eigenvalues --   -0.71395  -0.70694  -0.65918  -0.65667  -0.65290
 Alpha  occ. eigenvalues --   -0.65036  -0.63013  -0.62378  -0.56151  -0.55593
 Alpha  occ. eigenvalues --   -0.53968  -0.53729  -0.53389  -0.53124  -0.49730
 Alpha  occ. eigenvalues --   -0.49704  -0.49029  -0.49017  -0.45723  -0.45011
 Alpha  occ. eigenvalues --   -0.38245  -0.37788  -0.37155  -0.36676
 Alpha virt. eigenvalues --    0.04052   0.04823   0.10246   0.10889   0.15532
 Alpha virt. eigenvalues --    0.16309   0.20046   0.21615   0.25483   0.26854
 Alpha virt. eigenvalues --    0.27885   0.28548   0.30177   0.30767   0.31271

 Mulliken charges:
               1
     1  C   -0.171190
     2  C   -0.222157
     3  C   -0.182646
     4  C    0.159855
     5  C   -0.170479
     6  C   -0.217616
     7  H    0.228866
     8  H    0.229316
     9  H    0.273673
    10  H    0.278181
    11  H    0.226925
    12  N    0.488586
    13  O   -0.455414
    14  O   -0.465274
    15  C   -0.180247
    16  C   -0.222351
    17  C   -0.171400
    18  C    0.158585
    19  C   -0.170354
    20  C   -0.227165
    21  H    0.231933
    22  H    0.222915
    23  H    0.275749
    24  H    0.278145
    25  H    0.234664
    26  N    0.487983
    27  O   -0.458702
    28  O   -0.460379
 Sum of Mulliken charges =  -0.00000

 Dipole moment (field-independent basis, Debye):
    X=             -4.2514    Y=              5.0345    Z=              0.6305  Tot=              6.6196
 Quadrupole moment (field-independent basis, Debye-Ang):
   XX=           -143.8805   YY=           -102.7160   ZZ=           -104.1821
   XY=            -19.3442   XZ=              6.4856   YZ=              1.9312

 Normal termination of Gaussian 16 at Thu May  6 13:02:52 2021.
