 Gaussian 16, Revision A.03,
 Gaussian 16:  EM64L-G16RevA.03 25-Dec-2016

 -------------
 #p 6-31g* mp2
 -------------

 ------------------------------------------------------
 Input file generated by CHIRIPA (05-May-2021 14:55:22)
 ------------------------------------------------------
 Symbolic Z-matrix:
 Charge =  0 Multiplicity = 1

                         Standard orientation:
 ---------------------------------------------------------------------
 Center     Atomic      Atomic             Coordinates (Angstroms)
 Number     Number       Type             X           Y           Z
 ---------------------------------------------------------------------
      1          6           0        0.795293   -1.427768    0.936907
      2          6           0        0.908994   -0.035203    1.002908
      3          6           0        2.072256    0.603810    0.563553
      4          6           0        3.106926   -0.184140    0.061675
      5          6           0        3.023793   -1.573454   -0.016979
      6          6           0        1.851194   -2.191103    0.428072
      7          1           0       -0.111983   -1.915870    1.280421
      8          1           0        0.090572    0.560149    1.397606
      9          1           0        2.186881    1.680240    0.603269
     10          1           0        3.856544   -2.140208   -0.415392
     11          1           0        1.765681   -3.272760    0.375622
     12          7           0        4.343362    0.481045   -0.406465
     13          8           0        5.240633   -0.235700   -0.844434
     14          8           0        4.391797    1.706568   -0.326560
     15          6           0       -3.580063   -0.354687   -0.353782
     16          6           0       -4.792596   -1.263460   -0.149142
     17          6           0       -4.504918   -2.722209   -0.505637
     18          1           0       -3.253233   -0.420218   -1.400602
     19          1           0       -2.745715   -0.724925    0.257921
     20          1           0       -5.624832   -0.890813   -0.759988
     21          1           0       -5.116695   -1.195610    0.897267
     22          1           0       -3.691881   -3.116691    0.112390
     23          1           0       -4.202906   -2.810161   -1.554281
     24          1           0       -5.385191   -3.354158   -0.351959
     25          6           0       -3.851993    1.106740   -0.001624
     26          6           0       -2.639460    2.015514   -0.206263
     27          6           0       -2.927139    3.474262    0.150231
     28          1           0       -4.686342    1.476978   -0.613327
     29          1           0       -4.178823    1.172272    1.045197
     30          1           0       -2.315361    1.947664   -1.252673
     31          1           0       -1.807224    1.642866    0.404582
     32          1           0       -3.229150    3.562215    1.198876
     33          1           0       -3.740175    3.868744   -0.467796
     34          1           0       -2.046865    4.106212   -0.003447
 ---------------------------------------------------------------------

 SCF Done:  E(RHF) =  -669.535352310     A.U. after   15 cycles
 E2 =    -0.2091702186D+01 EUMP2 =    -0.67162705449633D+03

 The electronic state is 1-A.
 Alpha  occ. eigenvalues --  -20.60747 -20.60742 -15.85800 -11.31167 -11.27737
 Alpha  occ. eigenvalues --  -11.27731 -11.27484 -11.26752 -11.26734 -11.22442
 Alpha  occ. eigenvalues --  -11.22357 -11.22256 -11.22154 -11.21827 -11.21725
 Alpha  occ. eigenvalues --   -1.59822  -1.39376  -1.19340  -1.09240  -1.08735
 Alpha  occ. eigenvalues --   -1.04744  -1.04298  -0.96733  -0.95570  -0.87747
 Alpha  occ. eigenvalues --   -0.86145  -0.82405  -0.80364  -0.79063  -0.77447
 Alpha  occ. eigenvalues --   -0.72019  -0.71145  -0.70451  -0.65916  -0.64993
 Alpha  occ. eigenvalues --   -0.64741  -0.62143  -0.61658  -0.60096  -0.58346
 Alpha  occ. eigenvalues --   -0.56030  -0.55247  -0.53414  -0.53161  -0.53067
 Alpha  occ. eigenvalues --   -0.52849  -0.50674  -0.48800  -0.48773  -0.48647
 Alpha  occ. eigenvalues --   -0.47398  -0.46591  -0.46517  -0.44781  -0.44557
 Alpha  occ. eigenvalues --   -0.37312  -0.36334
 Alpha virt. eigenvalues --    0.05077   0.11225   0.16514   0.18969   0.22766
 Alpha virt. eigenvalues --    0.22954   0.25052   0.26360   0.26858   0.27219
 Alpha virt. eigenvalues --    0.29426   0.30427   0.31014   0.31341   0.31960

 Mulliken charges:
               1
     1  C   -0.172248
     2  C   -0.219796
     3  C   -0.172267
     4  C    0.158545
     5  C   -0.170872
     6  C   -0.218652
     7  H    0.226042
     8  H    0.228248
     9  H    0.275582
    10  H    0.275557
    11  H    0.223489
    12  N    0.488101
    13  O   -0.460528
    14  O   -0.460452
    15  C   -0.297125
    16  C   -0.300520
    17  C   -0.474888
    18  H    0.153778
    19  H    0.138908
    20  H    0.155371
    21  H    0.152295
    22  H    0.149254
    23  H    0.157466
    24  H    0.163232
    25  C   -0.299064
    26  C   -0.302714
    27  C   -0.476395
    28  H    0.153621
    29  H    0.149547
    30  H    0.157166
    31  H    0.142936
    32  H    0.155183
    33  H    0.158773
    34  H    0.162428
 Sum of Mulliken charges =  -0.00000

 Dipole moment (field-independent basis, Debye):
    X=             -4.5299    Y=             -2.2901    Z=              1.5402  Tot=              5.3044
 Quadrupole moment (field-independent basis, Debye-Ang):
   XX=           -120.8303   YY=            -90.9186   ZZ=            -94.1592
   XY=             -8.6832   XZ=              4.9735   YZ=              0.3115

 Normal termination of Gaussian 16 at Wed May  5 23:53:09 2021.
