 Gaussian 16, Revision A.03,
 Gaussian 16:  EM64L-G16RevA.03 25-Dec-2016

 -------------
 #p 6-31g* mp2
 -------------

 ------------------------------------------------------
 Input file generated by CHIRIPA (05-May-2021 14:57:23)
 ------------------------------------------------------
 Symbolic Z-matrix:
 Charge =  0 Multiplicity = 1

                         Standard orientation:
 ---------------------------------------------------------------------
 Center     Atomic      Atomic             Coordinates (Angstroms)
 Number     Number       Type             X           Y           Z
 ---------------------------------------------------------------------
      1          6           0        2.996410   -2.472446    0.122945
      2          6           0        3.378117   -1.646472   -0.939406
      3          6           0        3.226588   -0.259514   -0.850340
      4          6           0        2.687475    0.270109    0.321047
      5          6           0        2.297750   -0.526448    1.396641
      6          6           0        2.458393   -1.910788    1.285528
      7          1           0        3.117662   -3.548851    0.045193
      8          1           0        3.796233   -2.079891   -1.843492
      9          1           0        3.513780    0.403205   -1.657646
     10          1           0        1.883947   -0.065186    2.285135
     11          1           0        2.161083   -2.549810    2.112149
     12          7           0        2.522233    1.737033    0.427007
     13          8           0        2.044745    2.178971    1.469760
     14          8           0        2.873333    2.417095   -0.534701
     15          6           0       -0.429348    0.212223   -1.345302
     16          6           0       -0.933643   -1.058530   -1.049677
     17          6           0       -2.198643   -1.203754   -0.472411
     18          6           0       -2.935649   -0.051598   -0.202874
     19          6           0       -2.460718    1.228129   -0.485765
     20          6           0       -1.193147    1.349491   -1.062900
     21          1           0        0.554333    0.315768   -1.793684
     22          1           0       -0.342685   -1.943512   -1.267900
     23          1           0       -2.613328   -2.175488   -0.233271
     24          1           0       -3.073190    2.091741   -0.256704
     25          1           0       -0.804048    2.337636   -1.291409
     26          7           0       -4.276208   -0.192710    0.408182
     27          8           0       -4.905776    0.838027    0.635913
     28          8           0       -4.671986   -1.331379    0.647827
 ---------------------------------------------------------------------

 SCF Done:  E(RHF) =  -868.337543390     A.U. after   16 cycles
 E2 =    -0.2603591607D+01 EUMP2 =    -0.87094113499630D+03

 The electronic state is 1-A.
 Alpha  occ. eigenvalues --  -20.61826 -20.61779 -20.60627 -20.60610 -15.86833
 Alpha  occ. eigenvalues --  -15.85671 -11.32198 -11.30982 -11.28807 -11.28696
 Alpha  occ. eigenvalues --  -11.28515 -11.27864 -11.27739 -11.27580 -11.27473
 Alpha  occ. eigenvalues --  -11.27187 -11.26585 -11.26417  -1.60876  -1.59698
 Alpha  occ. eigenvalues --   -1.40426  -1.39253  -1.20413  -1.19138  -1.09794
 Alpha  occ. eigenvalues --   -1.08544  -1.05797  -1.04522  -0.96618  -0.95397
 Alpha  occ. eigenvalues --   -0.87186  -0.85918  -0.83434  -0.82224  -0.78483
 Alpha  occ. eigenvalues --   -0.77275  -0.73048  -0.72280  -0.71888  -0.71482
 Alpha  occ. eigenvalues --   -0.71021  -0.70226  -0.66038  -0.65763  -0.64782
 Alpha  occ. eigenvalues --   -0.64505  -0.63116  -0.61866  -0.56273  -0.55276
 Alpha  occ. eigenvalues --   -0.54029  -0.53851  -0.52766  -0.52578  -0.49829
 Alpha  occ. eigenvalues --   -0.49802  -0.48652  -0.48641  -0.45817  -0.44671
 Alpha  occ. eigenvalues --   -0.38517  -0.37452  -0.36911  -0.36103
 Alpha virt. eigenvalues --    0.03938   0.05267   0.10125   0.11504   0.15467
 Alpha virt. eigenvalues --    0.16787   0.20452   0.21781   0.26321   0.27178
 Alpha virt. eigenvalues --    0.27621   0.28526   0.30213   0.30992   0.32147

 Mulliken charges:
               1
     1  C   -0.175007
     2  C   -0.220048
     3  C   -0.187058
     4  C    0.161788
     5  C   -0.165759
     6  C   -0.217908
     7  H    0.229252
     8  H    0.226525
     9  H    0.275910
    10  H    0.280498
    11  H    0.228819
    12  N    0.487868
    13  O   -0.453436
    14  O   -0.464915
    15  C   -0.178325
    16  C   -0.218793
    17  C   -0.173902
    18  C    0.158078
    19  C   -0.169857
    20  C   -0.219684
    21  H    0.227659
    22  H    0.218702
    23  H    0.272156
    24  H    0.277137
    25  H    0.234512
    26  N    0.488037
    27  O   -0.459223
    28  O   -0.463027
 Sum of Mulliken charges =  -0.00000

 Dipole moment (field-independent basis, Debye):
    X=              5.4748    Y=             -4.5738    Z=             -2.2844  Tot=              7.4907
 Quadrupole moment (field-independent basis, Debye-Ang):
   XX=           -130.1562   YY=           -102.9246   ZZ=           -100.6880
   XY=            -16.5657   XZ=              2.9998   YZ=             -2.5252

 Normal termination of Gaussian 16 at Thu May  6 00:16:08 2021.
