 Gaussian 16, Revision A.03,
 Gaussian 16:  EM64L-G16RevA.03 25-Dec-2016

 -------------
 #p 6-31g* mp2
 -------------

 ------------------------------------------------------
 Input file generated by CHIRIPA (05-May-2021 14:55:24)
 ------------------------------------------------------
 Symbolic Z-matrix:
 Charge =  0 Multiplicity = 1

                         Standard orientation:
 ---------------------------------------------------------------------
 Center     Atomic      Atomic             Coordinates (Angstroms)
 Number     Number       Type             X           Y           Z
 ---------------------------------------------------------------------
      1          6           0        4.647579   -0.402367   -1.396788
      2          6           0        3.997965    0.832174   -1.294648
      3          6           0        2.943310    1.007133   -0.393738
      4          6           0        2.562542   -0.078684    0.393223
      5          6           0        3.190007   -1.321020    0.314613
      6          6           0        4.242241   -1.473135   -0.593248
      7          1           0        5.465921   -0.529406   -2.099336
      8          1           0        4.310621    1.665503   -1.917427
      9          1           0        2.422963    1.951991   -0.294234
     10          1           0        2.855843   -2.133223    0.948710
     11          1           0        4.744913   -2.433036   -0.670429
     12          7           0        1.447307    0.094446    1.350655
     13          8           0        1.130840   -0.877780    2.032757
     14          8           0        0.910769    1.199092    1.400860
     15          6           0       -3.586049   -0.549749    0.024963
     16          6           0       -4.223439   -1.593982   -0.892259
     17          6           0       -4.358171   -2.963208   -0.225280
     18          1           0       -2.595409   -0.904347    0.340937
     19          1           0       -4.190338   -0.456057    0.937898
     20          1           0       -3.618889   -1.684675   -1.803802
     21          1           0       -5.212597   -1.236770   -1.206241
     22          1           0       -4.979039   -2.894329    0.673819
     23          1           0       -3.376277   -3.344779    0.072863
     24          1           0       -4.816154   -3.694451   -0.898625
     25          6           0       -3.444598    0.824227   -0.627655
     26          6           0       -2.807207    1.868460    0.289568
     27          6           0       -2.672475    3.237686   -0.377412
     28          1           0       -2.840308    0.730535   -1.540590
     29          1           0       -4.435235    1.178825   -0.943629
     30          1           0       -1.818050    1.511249    0.603549
     31          1           0       -3.411757    1.959154    1.201110
     32          1           0       -3.654369    3.619257   -0.675555
     33          1           0       -2.051607    3.168806   -1.276511
     34          1           0       -2.214491    3.968929    0.295934
 ---------------------------------------------------------------------

 SCF Done:  E(RHF) =  -669.536358098     A.U. after   15 cycles
 E2 =    -0.2091140821D+01 EUMP2 =    -0.67162749891931D+03

 The electronic state is 1-A.
 Alpha  occ. eigenvalues --  -20.61034 -20.61027 -15.86052 -11.31345 -11.27904
 Alpha  occ. eigenvalues --  -11.27900 -11.27637 -11.26904 -11.26894 -11.20936
 Alpha  occ. eigenvalues --  -11.20500 -11.20473 -11.20440 -11.20279 -11.20144
 Alpha  occ. eigenvalues --   -1.60087  -1.39643  -1.19511  -1.08920  -1.07523
 Alpha  occ. eigenvalues --   -1.04902  -1.02643  -0.95766  -0.95141  -0.86303
 Alpha  occ. eigenvalues --   -0.86163  -0.82600  -0.78705  -0.77659  -0.77292
 Alpha  occ. eigenvalues --   -0.72270  -0.71399  -0.70618  -0.65166  -0.64903
 Alpha  occ. eigenvalues --   -0.64159  -0.62248  -0.60043  -0.58506  -0.56723
 Alpha  occ. eigenvalues --   -0.55407  -0.54449  -0.53236  -0.52992  -0.51850
 Alpha  occ. eigenvalues --   -0.51559  -0.49147  -0.49032  -0.49007  -0.47028
 Alpha  occ. eigenvalues --   -0.45784  -0.45134  -0.44857  -0.44547  -0.42902
 Alpha  occ. eigenvalues --   -0.37487  -0.36501
 Alpha virt. eigenvalues --    0.04829   0.11154   0.16311   0.21283   0.23718
 Alpha virt. eigenvalues --    0.25140   0.27215   0.27510   0.28120   0.28578
 Alpha virt. eigenvalues --    0.28798   0.30864   0.32138   0.32442   0.32765

 Mulliken charges:
               1
     1  C   -0.170475
     2  C   -0.218570
     3  C   -0.170876
     4  C    0.157870
     5  C   -0.170757
     6  C   -0.218580
     7  H    0.226233
     8  H    0.224127
     9  H    0.276188
    10  H    0.275919
    11  H    0.224026
    12  N    0.488256
    13  O   -0.458542
    14  O   -0.459450
    15  C   -0.299028
    16  C   -0.298740
    17  C   -0.475233
    18  H    0.156280
    19  H    0.149808
    20  H    0.148437
    21  H    0.149727
    22  H    0.155405
    23  H    0.156192
    24  H    0.156731
    25  C   -0.297379
    26  C   -0.310513
    27  C   -0.473718
    28  H    0.143940
    29  H    0.145142
    30  H    0.177946
    31  H    0.149856
    32  H    0.150030
    33  H    0.148643
    34  H    0.161106
 Sum of Mulliken charges =  -0.00000

 Dipole moment (field-independent basis, Debye):
    X=              4.2371    Y=             -0.6534    Z=             -3.2077  Tot=              5.3544
 Quadrupole moment (field-independent basis, Debye-Ang):
   XX=            -75.1806   YY=            -91.6978   ZZ=            -97.8214
   XY=             -2.7988   XZ=             -8.0130   YZ=             -1.0278

 Normal termination of Gaussian 16 at Thu May  6 17:38:43 2021.
