 Gaussian 16, Revision A.03,
 Gaussian 16:  EM64L-G16RevA.03 25-Dec-2016

 -------------
 #p 6-31g* mp2
 -------------

 ------------------------------------------------------
 Input file generated by CHIRIPA (05-May-2021 14:53:13)
 ------------------------------------------------------
 Symbolic Z-matrix:
 Charge =  0 Multiplicity = 1

                         Standard orientation:
 ---------------------------------------------------------------------
 Center     Atomic      Atomic             Coordinates (Angstroms)
 Number     Number       Type             X           Y           Z
 ---------------------------------------------------------------------
      1          6           0       -4.118326   -0.410410    0.390903
      2          6           0       -3.446527    0.225664    1.608311
      3          6           0       -2.021865   -0.283061    1.830421
      4          1           0       -4.132542   -1.501739    0.516379
      5          1           0       -3.511702   -0.206351   -0.502272
      6          1           0       -4.054958    0.021644    2.498706
      7          1           0       -3.434080    1.315618    1.480010
      8          1           0       -1.395032   -0.065710    0.959537
      9          1           0       -2.019438   -1.367036    1.984021
     10          1           0       -1.560455    0.184656    2.705750
     11          6           0       -5.543079    0.088104    0.155765
     12          6           0       -6.214878   -0.547970   -1.061643
     13          6           0       -7.639540   -0.039245   -1.283753
     14          1           0       -6.149703   -0.115955    1.048940
     15          1           0       -5.528863    1.179432    0.030289
     16          1           0       -6.227325   -1.637924   -0.933342
     17          1           0       -5.606447   -0.343950   -1.952038
     18          1           0       -7.641967    1.044730   -1.437353
     19          1           0       -8.266373   -0.256596   -0.412869
     20          1           0       -8.100950   -0.506963   -2.159082
     21          6           0        1.925393    1.841737   -0.280894
     22          6           0        1.616638    0.478123   -0.322727
     23          6           0        2.632774   -0.481391   -0.286008
     24          6           0        3.952701   -0.039979   -0.207031
     25          6           0        4.292312    1.311347   -0.163771
     26          6           0        3.259893    2.253270   -0.201689
     27          1           0        1.129710    2.580278   -0.309884
     28          1           0        0.581143    0.155617   -0.384245
     29          1           0        2.421972   -1.543474   -0.316999
     30          1           0        5.333966    1.602245   -0.102509
     31          1           0        3.502634    3.311597   -0.169055
     32          7           0        5.037058   -1.046463   -0.167523
     33          8           0        6.191963   -0.631753   -0.097892
     34          8           0        4.711541   -2.230998   -0.206937
 ---------------------------------------------------------------------

 SCF Done:  E(RHF) =  -669.535384298     A.U. after   15 cycles
 E2 =    -0.2090775670D+01 EUMP2 =    -0.67162615996799D+03

 The electronic state is 1-A.
 Alpha  occ. eigenvalues --  -20.60732 -20.60727 -15.85785 -11.31149 -11.27722
 Alpha  occ. eigenvalues --  -11.27711 -11.27466 -11.26739 -11.26713 -11.22356
 Alpha  occ. eigenvalues --  -11.22071 -11.22060 -11.22004 -11.21916 -11.21459
 Alpha  occ. eigenvalues --   -1.59807  -1.39361  -1.19323  -1.09054  -1.08720
 Alpha  occ. eigenvalues --   -1.04726  -1.04159  -0.96618  -0.95554  -0.87638
 Alpha  occ. eigenvalues --   -0.86126  -0.82386  -0.80226  -0.78849  -0.77433
 Alpha  occ. eigenvalues --   -0.72004  -0.71130  -0.70434  -0.65699  -0.64976
 Alpha  occ. eigenvalues --   -0.64752  -0.62121  -0.61528  -0.59982  -0.58215
 Alpha  occ. eigenvalues --   -0.55936  -0.55226  -0.53311  -0.53133  -0.53041
 Alpha  occ. eigenvalues --   -0.52740  -0.50552  -0.48770  -0.48758  -0.48527
 Alpha  occ. eigenvalues --   -0.47255  -0.46393  -0.46309  -0.44767  -0.44400
 Alpha  occ. eigenvalues --   -0.37304  -0.36323
 Alpha virt. eigenvalues --    0.05103   0.11283   0.16579   0.19970   0.22470
 Alpha virt. eigenvalues --    0.23740   0.25250   0.26367   0.27122   0.28265
 Alpha virt. eigenvalues --    0.28557   0.30057   0.31122   0.31447   0.32009

 Mulliken charges:
               1
     1  C   -0.298116
     2  C   -0.299888
     3  C   -0.478181
     4  H    0.151927
     5  H    0.145378
     6  H    0.155877
     7  H    0.150782
     8  H    0.144223
     9  H    0.159829
    10  H    0.164488
    11  C   -0.298573
    12  C   -0.300037
    13  C   -0.476011
    14  H    0.151326
    15  H    0.149355
    16  H    0.153182
    17  H    0.151474
    18  H    0.155188
    19  H    0.156124
    20  H    0.161669
    21  C   -0.172275
    22  C   -0.221569
    23  C   -0.172295
    24  C    0.158702
    25  C   -0.171090
    26  C   -0.218616
    27  H    0.225229
    28  H    0.230152
    29  H    0.276024
    30  H    0.275472
    31  H    0.223214
    32  N    0.488050
    33  O   -0.460623
    34  O   -0.460392
 Sum of Mulliken charges =  -0.00000

 Dipole moment (field-independent basis, Debye):
    X=             -3.9947    Y=              3.5211    Z=             -0.0735  Tot=              5.3256
 Quadrupole moment (field-independent basis, Debye-Ang):
   XX=           -123.2752   YY=            -92.1054   ZZ=            -95.1324
   XY=             17.8152   XZ=             -0.2362   YZ=             -0.9438

 Normal termination of Gaussian 16 at Thu May  6 17:04:02 2021.
