 Gaussian 16, Revision A.03,
 Gaussian 16:  EM64L-G16RevA.03 25-Dec-2016

 -------------
 #p 6-31g* mp2
 -------------

 ------------------------------------------------------
 Input file generated by CHIRIPA (05-May-2021 14:51:12)
 ------------------------------------------------------
 Symbolic Z-matrix:
 Charge =  0 Multiplicity = 1

                         Standard orientation:
 ---------------------------------------------------------------------
 Center     Atomic      Atomic             Coordinates (Angstroms)
 Number     Number       Type             X           Y           Z
 ---------------------------------------------------------------------
      1          6           0       -4.082474   -0.007598    0.467941
      2          6           0       -2.865106   -0.868129    0.128109
      3          6           0       -1.600341   -0.418395    0.860162
      4          1           0       -3.864770    1.039638    0.217249
      5          1           0       -4.254427   -0.040072    1.552733
      6          1           0       -2.696333   -0.835153   -0.955886
      7          1           0       -3.085804   -1.913467    0.379461
      8          1           0       -1.744393   -0.468280    1.944302
      9          1           0       -1.352710    0.616161    0.601368
     10          1           0       -0.742353   -1.047200    0.602634
     11          6           0       -5.354584   -0.444817   -0.256147
     12          6           0       -6.571952    0.415714    0.083686
     13          6           0       -7.836717   -0.034021   -0.648367
     14          1           0       -5.182631   -0.412344   -1.340939
     15          1           0       -5.572288   -1.492053   -0.005455
     16          1           0       -6.351254    1.461052   -0.167666
     17          1           0       -6.740725    0.382737    1.167680
     18          1           0       -8.084348   -1.068577   -0.389574
     19          1           0       -7.692664    0.015865   -1.732508
     20          1           0       -8.694705    0.594785   -0.390839
     21          6           0        5.226521   -0.325757   -0.249806
     22          6           0        6.660071    0.058625    0.117852
     23          6           0        7.664767   -1.055875   -0.175865
     24          1           0        4.943301   -1.231799    0.303205
     25          1           0        5.186073   -0.585333   -1.316754
     26          1           0        6.697525    0.318733    1.183477
     27          1           0        6.939846    0.963966   -0.435953
     28          1           0        7.656823   -1.310964   -1.240509
     29          1           0        7.413125   -1.959864    0.388122
     30          1           0        8.683164   -0.759830    0.094475
     31          6           0        4.210536    0.778173    0.038011
     32          6           0        2.776986    0.393790   -0.329646
     33          6           0        1.772291    1.508291   -0.035929
     34          1           0        4.250985    1.037750    1.104960
     35          1           0        4.493757    1.684214   -0.515000
     36          1           0        2.497211   -0.511550    0.224159
     37          1           0        2.739532    0.133683   -1.395272
     38          1           0        2.023932    2.412279   -0.599916
     39          1           0        1.780235    1.763380    1.028715
     40          1           0        0.753894    1.212245   -0.306269
 ---------------------------------------------------------------------

 SCF Done:  E(RHF) =  -470.732963438     A.U. after   11 cycles
 E2 =    -0.1582414536D+01 EUMP2 =    -0.47231537797441D+03

 The electronic state is 1-A.
 Alpha  occ. eigenvalues --  -11.21604 -11.21602 -11.21580 -11.21552 -11.21408
 Alpha  occ. eigenvalues --  -11.21371 -11.21348 -11.21311 -11.21071 -11.21055
 Alpha  occ. eigenvalues --  -11.21054 -11.20939  -1.08434  -1.08391  -1.03546
 Alpha  occ. eigenvalues --   -1.03472  -0.96026  -0.95893  -0.87068  -0.86887
 Alpha  occ. eigenvalues --   -0.79628  -0.79520  -0.78245  -0.78207  -0.65069
 Alpha  occ. eigenvalues --   -0.65021  -0.60979  -0.60873  -0.59443  -0.59226
 Alpha  occ. eigenvalues --   -0.57592  -0.57561  -0.55312  -0.55190  -0.52848
 Alpha  occ. eigenvalues --   -0.52560  -0.52387  -0.52267  -0.49935  -0.49828
 Alpha  occ. eigenvalues --   -0.47948  -0.47827  -0.46630  -0.46569  -0.45787
 Alpha  occ. eigenvalues --   -0.45747  -0.45710  -0.45673  -0.43815  -0.43671
 Alpha virt. eigenvalues --    0.22055   0.22992   0.23518   0.24964   0.26518
 Alpha virt. eigenvalues --    0.26544   0.27130   0.27257   0.27696   0.28997
 Alpha virt. eigenvalues --    0.29934   0.31111   0.31558   0.31873   0.32380

 Mulliken charges:
               1
     1  C   -0.298533
     2  C   -0.299951
     3  C   -0.479771
     4  H    0.149881
     5  H    0.149579
     6  H    0.151802
     7  H    0.151947
     8  H    0.155240
     9  H    0.159023
    10  H    0.161378
    11  C   -0.298277
    12  C   -0.299666
    13  C   -0.475710
    14  H    0.149521
    15  H    0.149658
    16  H    0.151990
    17  H    0.151936
    18  H    0.155170
    19  H    0.155185
    20  H    0.160269
    21  C   -0.298232
    22  C   -0.299611
    23  C   -0.475679
    24  H    0.149545
    25  H    0.149380
    26  H    0.151921
    27  H    0.151887
    28  H    0.155122
    29  H    0.155139
    30  H    0.160180
    31  C   -0.298361
    32  C   -0.299794
    33  C   -0.480545
    34  H    0.149559
    35  H    0.149558
    36  H    0.151996
    37  H    0.151382
    38  H    0.153755
    39  H    0.154929
    40  H    0.167199
 Sum of Mulliken charges =  -0.00000

 Dipole moment (field-independent basis, Debye):
    X=             -0.0305    Y=             -0.0018    Z=              0.0098  Tot=              0.0321
 Quadrupole moment (field-independent basis, Debye-Ang):
   XX=            -86.5745   YY=            -84.8390   ZZ=            -83.5079
   XY=              0.5535   XZ=             -0.6277   YZ=             -1.0650

 Normal termination of Gaussian 16 at Wed May  5 23:08:49 2021.
