 Gaussian 16, Revision A.03,
 Gaussian 16:  EM64L-G16RevA.03 25-Dec-2016

 -------------
 #p 6-31g* mp2
 -------------

 ------------------------------------------------------
 Input file generated by CHIRIPA (05-May-2021 14:55:20)
 ------------------------------------------------------
 Symbolic Z-matrix:
 Charge =  0 Multiplicity = 1

                         Standard orientation:
 ---------------------------------------------------------------------
 Center     Atomic      Atomic             Coordinates (Angstroms)
 Number     Number       Type             X           Y           Z
 ---------------------------------------------------------------------
      1          6           0       -1.312627    0.071941    2.337333
      2          6           0       -1.555566   -1.228197    1.882203
      3          6           0       -2.311021   -1.446236    0.726221
      4          6           0       -2.810532   -0.336139    0.046909
      5          6           0       -2.585723    0.971287    0.475147
      6          6           0       -1.827573    1.165605    1.633592
      7          1           0       -0.724725    0.232105    3.236285
      8          1           0       -1.156905   -2.079443    2.426717
      9          1           0       -2.514305   -2.442112    0.351621
     10          1           0       -2.996325    1.799919   -0.088939
     11          1           0       -1.640497    2.176425    1.984720
     12          7           0       -3.611725   -0.554412   -1.178181
     13          8           0       -4.040653    0.440412   -1.758684
     14          8           0       -3.795601   -1.716184   -1.534708
     15          6           0        2.868492    0.783762    0.013513
     16          6           0        2.276287    1.864803   -0.891269
     17          6           0        1.157174    2.655570   -0.212988
     18          1           0        2.069432    0.097260    0.325224
     19          1           0        3.252956    1.252567    0.929921
     20          1           0        1.894301    1.394267   -1.806309
     21          1           0        3.076885    2.548700   -1.201017
     22          1           0        1.528302    3.151228    0.689889
     23          1           0        0.338999    1.990235    0.081157
     24          1           0        0.748160    3.422994   -0.877540
     25          6           0        3.988433   -0.015338   -0.650490
     26          6           0        4.580637   -1.096379    0.254292
     27          6           0        5.699751   -1.887146   -0.423989
     28          1           0        3.603969   -0.484144   -1.566898
     29          1           0        4.787492    0.671164   -0.962201
     30          1           0        3.780040   -1.780276    0.564040
     31          1           0        4.962624   -0.625843    1.169333
     32          1           0        6.517925   -1.221812   -0.718135
     33          1           0        5.328623   -2.382804   -1.326866
     34          1           0        6.108764   -2.654570    0.240562
 ---------------------------------------------------------------------

 SCF Done:  E(RHF) =  -669.535116475     A.U. after   15 cycles
 E2 =    -0.2092479659D+01 EUMP2 =    -0.67162759613384D+03

 The electronic state is 1-A.
 Alpha  occ. eigenvalues --  -20.60826 -20.60821 -15.85880 -11.31275 -11.27836
 Alpha  occ. eigenvalues --  -11.27825 -11.27577 -11.26869 -11.26831 -11.21910
 Alpha  occ. eigenvalues --  -11.21848 -11.21699 -11.21620 -11.21321 -11.21311
 Alpha  occ. eigenvalues --   -1.59901  -1.39453  -1.19457  -1.08843  -1.08707
 Alpha  occ. eigenvalues --   -1.04866  -1.03803  -0.96264  -0.95666  -0.87293
 Alpha  occ. eigenvalues --   -0.86244  -0.82498  -0.79882  -0.78533  -0.77538
 Alpha  occ. eigenvalues --   -0.72097  -0.71225  -0.70538  -0.65342  -0.65098
 Alpha  occ. eigenvalues --   -0.64848  -0.62200  -0.61210  -0.59629  -0.57887
 Alpha  occ. eigenvalues --   -0.55603  -0.55338  -0.53321  -0.52971  -0.52932
 Alpha  occ. eigenvalues --   -0.52571  -0.50184  -0.48859  -0.48850  -0.48189
 Alpha  occ. eigenvalues --   -0.46901  -0.46072  -0.45989  -0.44852  -0.44066
 Alpha  occ. eigenvalues --   -0.37412  -0.36381
 Alpha virt. eigenvalues --    0.04979   0.11160   0.16426   0.21223   0.22617
 Alpha virt. eigenvalues --    0.24087   0.26343   0.26679   0.27220   0.28271
 Alpha virt. eigenvalues --    0.28331   0.30699   0.31254   0.31672   0.31781

 Mulliken charges:
               1
     1  C   -0.170327
     2  C   -0.219012
     3  C   -0.171313
     4  C    0.159032
     5  C   -0.170823
     6  C   -0.219928
     7  H    0.226903
     8  H    0.224037
     9  H    0.275892
    10  H    0.276756
    11  H    0.227161
    12  N    0.488077
    13  O   -0.459949
    14  O   -0.460269
    15  C   -0.299247
    16  C   -0.298287
    17  C   -0.486904
    18  H    0.149248
    19  H    0.146403
    20  H    0.155376
    21  H    0.152413
    22  H    0.149219
    23  H    0.163279
    24  H    0.160726
    25  C   -0.298583
    26  C   -0.299333
    27  C   -0.475863
    28  H    0.151793
    29  H    0.150533
    30  H    0.149755
    31  H    0.150627
    32  H    0.156005
    33  H    0.156603
    34  H    0.160001
 Sum of Mulliken charges =  -0.00000

 Dipole moment (field-independent basis, Debye):
    X=              2.7623    Y=              0.7199    Z=              4.3047  Tot=              5.1652
 Quadrupole moment (field-independent basis, Debye-Ang):
   XX=           -111.5306   YY=            -90.5993   ZZ=            -94.8513
   XY=             -2.9680   XZ=            -11.7058   YZ=             -1.9978

 Normal termination of Gaussian 16 at Thu May  6 07:44:32 2021.
