 Gaussian 16, Revision A.03,
 Gaussian 16:  EM64L-G16RevA.03 25-Dec-2016

 -------------
 #p 6-31g* mp2
 -------------

 ------------------------------------------------------
 Input file generated by CHIRIPA (05-May-2021 14:57:22)
 ------------------------------------------------------
 Symbolic Z-matrix:
 Charge =  0 Multiplicity = 1

                         Standard orientation:
 ---------------------------------------------------------------------
 Center     Atomic      Atomic             Coordinates (Angstroms)
 Number     Number       Type             X           Y           Z
 ---------------------------------------------------------------------
      1          6           0       -3.082800    2.549051    0.488556
      2          6           0       -4.049770    1.611415    0.865822
      3          6           0       -3.936320    0.275626    0.469158
      4          6           0       -2.838074   -0.089522   -0.307896
      5          6           0       -1.858166    0.821229   -0.699821
      6          6           0       -1.992007    2.151665   -0.291686
      7          1           0       -3.178851    3.584645    0.801150
      8          1           0       -4.897954    1.917183    1.471739
      9          1           0       -4.670365   -0.470941    0.747067
     10          1           0       -1.023825    0.486430   -1.304140
     11          1           0       -1.239520    2.877677   -0.586160
     12          7           0       -2.707176   -1.500829   -0.733899
     13          8           0       -1.730188   -1.797200   -1.418220
     14          8           0       -3.584044   -2.283916   -0.375411
     15          6           0        4.217524    0.787129   -1.674592
     16          6           0        4.704076    0.868899   -0.365737
     17          6           0        3.960251    0.356852    0.701540
     18          6           0        2.728373   -0.233008    0.422557
     19          6           0        2.216583   -0.329574   -0.870515
     20          6           0        2.977516    0.189207   -1.922367
     21          1           0        4.801990    1.187516   -2.497688
     22          1           0        5.666752    1.332710   -0.170341
     23          1           0        4.313075    0.406834    1.724494
     24          1           0        1.253458   -0.797640   -1.033993
     25          1           0        2.597154    0.124308   -2.937827
     26          7           0        1.931863   -0.778654    1.544272
     27          8           0        0.849515   -1.293497    1.272061
     28          8           0        2.404987   -0.681157    2.674441
 ---------------------------------------------------------------------

 SCF Done:  E(RHF) =  -868.338196099     A.U. after   16 cycles
 E2 =    -0.2600886420D+01 EUMP2 =    -0.87093908251862D+03

 The electronic state is 1-A.
 Alpha  occ. eigenvalues --  -20.60666 -20.60636 -20.60468 -20.60455 -15.85706
 Alpha  occ. eigenvalues --  -15.85501 -11.31169 -11.30846 -11.27767 -11.27666
 Alpha  occ. eigenvalues --  -11.27521 -11.27510 -11.27393 -11.27184 -11.26804
 Alpha  occ. eigenvalues --  -11.26772 -11.26491 -11.26430  -1.59731  -1.59493
 Alpha  occ. eigenvalues --   -1.39277  -1.39063  -1.19356  -1.19018  -1.08735
 Alpha  occ. eigenvalues --   -1.08415  -1.04767  -1.04449  -0.95550  -0.95263
 Alpha  occ. eigenvalues --   -0.86158  -0.85849  -0.82371  -0.82121  -0.77436
 Alpha  occ. eigenvalues --   -0.77135  -0.71933  -0.71743  -0.71066  -0.70753
 Alpha  occ. eigenvalues --   -0.70459  -0.70163  -0.64998  -0.64786  -0.64696
 Alpha  occ. eigenvalues --   -0.64466  -0.62160  -0.61750  -0.55266  -0.54964
 Alpha  occ. eigenvalues --   -0.53112  -0.52872  -0.52730  -0.52529  -0.48698
 Alpha  occ. eigenvalues --   -0.48673  -0.48486  -0.48471  -0.44665  -0.44457
 Alpha  occ. eigenvalues --   -0.37356  -0.36971  -0.36397  -0.36021
 Alpha virt. eigenvalues --    0.05075   0.05408   0.11170   0.11650   0.16565
 Alpha virt. eigenvalues --    0.16879   0.20664   0.22043   0.25880   0.27760
 Alpha virt. eigenvalues --    0.27979   0.29379   0.30701   0.31388   0.32034

 Mulliken charges:
               1
     1  C   -0.170049
     2  C   -0.217921
     3  C   -0.168941
     4  C    0.164901
     5  C   -0.162716
     6  C   -0.219548
     7  H    0.224310
     8  H    0.222969
     9  H    0.275931
    10  H    0.264971
    11  H    0.220258
    12  N    0.493249
    13  O   -0.468078
    14  O   -0.457767
    15  C   -0.171266
    16  C   -0.218912
    17  C   -0.171356
    18  C    0.157854
    19  C   -0.186776
    20  C   -0.221976
    21  H    0.225249
    22  H    0.223056
    23  H    0.275308
    24  H    0.293174
    25  H    0.225018
    26  N    0.486921
    27  O   -0.455718
    28  O   -0.462146
 Sum of Mulliken charges =  -0.00000

 Dipole moment (field-independent basis, Debye):
    X=              2.2101    Y=              6.7384    Z=             -2.3395  Tot=              7.4675
 Quadrupole moment (field-independent basis, Debye-Ang):
   XX=            -80.9864   YY=           -107.3506   ZZ=           -107.1179
   XY=             -7.1657   XZ=            -13.9561   YZ=              0.5441

 Normal termination of Gaussian 16 at Wed May  5 20:59:38 2021.
