 Gaussian 16, Revision A.03,
 Gaussian 16:  EM64L-G16RevA.03 25-Dec-2016

 -------------
 #p 6-31g* mp2
 -------------

 ------------------------------------------------------
 Input file generated by CHIRIPA (05-May-2021 14:53:12)
 ------------------------------------------------------
 Symbolic Z-matrix:
 Charge =  0 Multiplicity = 1

                         Standard orientation:
 ---------------------------------------------------------------------
 Center     Atomic      Atomic             Coordinates (Angstroms)
 Number     Number       Type             X           Y           Z
 ---------------------------------------------------------------------
      1          6           0       -3.633599   -0.174073    0.252515
      2          6           0       -3.225712   -1.541763   -0.296154
      3          6           0       -4.203094   -2.650814    0.094387
      4          1           0       -3.706241   -0.232041    1.347187
      5          1           0       -4.638701    0.075632   -0.114653
      6          1           0       -2.221114   -1.788195    0.070820
      7          1           0       -3.153846   -1.480482   -1.389633
      8          1           0       -5.206288   -2.431499   -0.285224
      9          1           0       -4.268257   -2.740961    1.183528
     10          1           0       -3.892355   -3.619926   -0.308259
     11          6           0       -2.666313    0.944930   -0.129481
     12          6           0       -3.074200    2.312619    0.419188
     13          6           0       -2.096818    3.421671    0.028647
     14          1           0       -1.661211    0.695225    0.237687
     15          1           0       -2.593671    1.002898   -1.224153
     16          1           0       -3.146066    2.251339    1.512667
     17          1           0       -4.078798    2.559052    0.052214
     18          1           0       -2.031655    3.511817   -1.060494
     19          1           0       -1.093624    3.202356    0.408258
     20          1           0       -2.407557    4.390783    0.431293
     21          6           0        3.243419    2.097245   -0.086218
     22          6           0        1.932194    1.782742   -0.458105
     23          6           0        1.487773    0.457324   -0.440753
     24          6           0        2.385252   -0.532981   -0.044371
     25          6           0        3.697704   -0.251422    0.331775
     26          6           0        4.120442    1.080950    0.306843
     27          1           0        3.580234    3.129564   -0.102642
     28          1           0        1.248897    2.569951   -0.763802
     29          1           0        0.478002    0.185796   -0.723692
     30          1           0        4.355772   -1.057841    0.631864
     31          1           0        5.139316    1.322258    0.596176
     32          7           0        1.926241   -1.939823   -0.021988
     33          8           0        2.736404   -2.793971    0.331145
     34          8           0        0.764993   -2.161721   -0.358003
 ---------------------------------------------------------------------

 SCF Done:  E(RHF) =  -669.535930147     A.U. after   15 cycles
 E2 =    -0.2092817460D+01 EUMP2 =    -0.67162874760758D+03

 The electronic state is 1-A.
 Alpha  occ. eigenvalues --  -20.60846 -20.60836 -15.85884 -11.31190 -11.27771
 Alpha  occ. eigenvalues --  -11.27707 -11.27497 -11.26775 -11.26729 -11.21973
 Alpha  occ. eigenvalues --  -11.21753 -11.21659 -11.21217 -11.20929 -11.20483
 Alpha  occ. eigenvalues --   -1.59910  -1.39465  -1.19364  -1.08771  -1.08457
 Alpha  occ. eigenvalues --   -1.04757  -1.03476  -0.96005  -0.95613  -0.87029
 Alpha  occ. eigenvalues --   -0.86154  -0.82448  -0.79629  -0.78213  -0.77453
 Alpha  occ. eigenvalues --   -0.72103  -0.71227  -0.70476  -0.65104  -0.65016
 Alpha  occ. eigenvalues --   -0.64759  -0.62110  -0.60854  -0.59422  -0.57567
 Alpha  occ. eigenvalues --   -0.55342  -0.55257  -0.53094  -0.52958  -0.52644
 Alpha  occ. eigenvalues --   -0.52322  -0.49961  -0.48875  -0.48859  -0.47898
 Alpha  occ. eigenvalues --   -0.46663  -0.45718  -0.45560  -0.44832  -0.43745
 Alpha  occ. eigenvalues --   -0.37347  -0.36348
 Alpha virt. eigenvalues --    0.04973   0.11221   0.16407   0.20291   0.23118
 Alpha virt. eigenvalues --    0.24012   0.25411   0.26411   0.26784   0.28510
 Alpha virt. eigenvalues --    0.30302   0.30660   0.31474   0.31819   0.32732

 Mulliken charges:
               1
     1  C   -0.297584
     2  C   -0.308628
     3  C   -0.475749
     4  H    0.150001
     5  H    0.148395
     6  H    0.174328
     7  H    0.149874
     8  H    0.150958
     9  H    0.154036
    10  H    0.164848
    11  C   -0.304836
    12  C   -0.298129
    13  C   -0.481064
    14  H    0.148200
    15  H    0.147803
    16  H    0.154716
    17  H    0.154852
    18  H    0.153372
    19  H    0.149921
    20  H    0.163467
    21  C   -0.170828
    22  C   -0.224396
    23  C   -0.177802
    24  C    0.157937
    25  C   -0.170599
    26  C   -0.218625
    27  H    0.225940
    28  H    0.228884
    29  H    0.284496
    30  H    0.275462
    31  H    0.223432
    32  N    0.490637
    33  O   -0.459669
    34  O   -0.463652
 Sum of Mulliken charges =  -0.00000

 Dipole moment (field-independent basis, Debye):
    X=              1.6088    Y=              4.8257    Z=             -0.0426  Tot=              5.0869
 Quadrupole moment (field-independent basis, Debye-Ang):
   XX=            -83.1175   YY=           -100.8709   ZZ=            -94.4164
   XY=              9.0378   XZ=              1.8608   YZ=             -0.6333

 Normal termination of Gaussian 16 at Thu May  6 05:42:29 2021.
