 Gaussian 16, Revision A.03,
 Gaussian 16:  EM64L-G16RevA.03 25-Dec-2016

 -------------
 #p 6-31g* mp2
 -------------

 ------------------------------------------------------
 Input file generated by CHIRIPA (05-May-2021 14:51:13)
 ------------------------------------------------------
 Symbolic Z-matrix:
 Charge =  0 Multiplicity = 1

                         Standard orientation:
 ---------------------------------------------------------------------
 Center     Atomic      Atomic             Coordinates (Angstroms)
 Number     Number       Type             X           Y           Z
 ---------------------------------------------------------------------
      1          6           0       -3.513312    0.884633   -0.434118
      2          6           0       -2.225217    1.699362   -0.556639
      3          6           0       -2.484220    3.202658   -0.660631
      4          1           0       -4.152822    1.088671   -1.303797
      5          1           0       -4.070649    1.223648    0.450099
      6          1           0       -1.669805    1.357968   -1.439580
      7          1           0       -1.588616    1.493215    0.313337
      8          1           0       -3.017318    3.563877    0.224767
      9          1           0       -3.098968    3.427862   -1.538110
     10          1           0       -1.549864    3.765964   -0.747369
     11          6           0       -3.270785   -0.619998   -0.329260
     12          6           0       -4.558881   -1.434727   -0.206739
     13          6           0       -4.299877   -2.938022   -0.102748
     14          1           0       -2.713449   -0.959012   -1.213478
     15          1           0       -2.631276   -0.824035    0.540418
     16          1           0       -5.195482   -1.228580   -1.076716
     17          1           0       -5.114292   -1.093332    0.676201
     18          1           0       -3.685129   -3.163226    0.774731
     19          1           0       -3.766780   -3.299242   -0.988145
     20          1           0       -5.234234   -3.501329   -0.016009
     21          6           0        2.875849    0.337234    0.692319
     22          6           0        2.035747   -0.323367    1.785854
     23          6           0        1.007568    0.628650    2.397658
     24          1           0        3.389240    1.213144    1.112029
     25          1           0        2.208904    0.713672   -0.095638
     26          1           0        2.704176   -0.699673    2.570847
     27          1           0        1.524446   -1.197918    1.363540
     28          1           0        0.317454    0.994903    1.630712
     29          1           0        1.503887    1.495980    2.844879
     30          1           0        0.418053    0.135863    3.177075
     31          6           0        3.908250   -0.601870    0.071060
     32          6           0        4.748350    0.058732   -1.022475
     33          6           0        5.776530   -0.893286   -1.634279
     34          1           0        4.575193   -0.978307    0.859016
     35          1           0        3.394858   -1.477779   -0.348650
     36          1           0        5.259652    0.933283   -0.600161
     37          1           0        4.079923    0.435037   -1.807468
     38          1           0        5.280211   -1.760616   -2.081501
     39          1           0        6.466643   -1.259539   -0.867333
     40          1           0        6.366045   -0.400497   -2.413697
 ---------------------------------------------------------------------

 SCF Done:  E(RHF) =  -470.733384261     A.U. after   11 cycles
 E2 =    -0.1582626782D+01 EUMP2 =    -0.47231601104292D+03

 The electronic state is 1-A.
 Alpha  occ. eigenvalues --  -11.21624 -11.21614 -11.21599 -11.21596 -11.21422
 Alpha  occ. eigenvalues --  -11.21395 -11.21363 -11.21335 -11.21084 -11.21083
 Alpha  occ. eigenvalues --  -11.21072 -11.21067  -1.08451  -1.08421  -1.03556
 Alpha  occ. eigenvalues --   -1.03520  -0.95996  -0.95977  -0.87022  -0.86986
 Alpha  occ. eigenvalues --   -0.79658  -0.79552  -0.78282  -0.78217  -0.65124
 Alpha  occ. eigenvalues --   -0.65016  -0.61044  -0.60842  -0.59378  -0.59333
 Alpha  occ. eigenvalues --   -0.57638  -0.57558  -0.55319  -0.55236  -0.52692
 Alpha  occ. eigenvalues --   -0.52673  -0.52447  -0.52383  -0.50040  -0.49852
 Alpha  occ. eigenvalues --   -0.48041  -0.47822  -0.46792  -0.46486  -0.45873
 Alpha  occ. eigenvalues --   -0.45759  -0.45733  -0.45536  -0.43800  -0.43782
 Alpha virt. eigenvalues --    0.21373   0.23168   0.23676   0.24536   0.25873
 Alpha virt. eigenvalues --    0.26694   0.27148   0.27653   0.28023   0.29062
 Alpha virt. eigenvalues --    0.30318   0.31551   0.31701   0.31929   0.31960

 Mulliken charges:
               1
     1  C   -0.297401
     2  C   -0.309460
     3  C   -0.475095
     4  H    0.149751
     5  H    0.149760
     6  H    0.151265
     7  H    0.160643
     8  H    0.155459
     9  H    0.155243
    10  H    0.160373
    11  C   -0.298797
    12  C   -0.299660
    13  C   -0.475741
    14  H    0.149135
    15  H    0.150112
    16  H    0.151987
    17  H    0.152092
    18  H    0.155248
    19  H    0.155053
    20  H    0.160334
    21  C   -0.298610
    22  C   -0.298971
    23  C   -0.484415
    24  H    0.149520
    25  H    0.150127
    26  H    0.151870
    27  H    0.152190
    28  H    0.162930
    29  H    0.155454
    30  H    0.159671
    31  C   -0.298349
    32  C   -0.299657
    33  C   -0.475703
    34  H    0.149472
    35  H    0.149757
    36  H    0.151908
    37  H    0.151931
    38  H    0.155177
    39  H    0.155177
    40  H    0.160217
 Sum of Mulliken charges =  -0.00000

 Dipole moment (field-independent basis, Debye):
    X=             -0.0104    Y=              0.0069    Z=             -0.0002  Tot=              0.0125
 Quadrupole moment (field-independent basis, Debye-Ang):
   XX=            -84.9231   YY=            -86.2473   ZZ=            -83.5796
   XY=              0.6706   XZ=              0.9395   YZ=              0.0883

 Normal termination of Gaussian 16 at Wed May  5 18:22:56 2021.
