 Gaussian 16, Revision A.03,
 Gaussian 16:  EM64L-G16RevA.03 25-Dec-2016

 -------------
 #p 6-31g* mp2
 -------------

 ------------------------------------------------------
 Input file generated by CHIRIPA (05-May-2021 14:53:18)
 ------------------------------------------------------
 Symbolic Z-matrix:
 Charge =  0 Multiplicity = 1

                         Standard orientation:
 ---------------------------------------------------------------------
 Center     Atomic      Atomic             Coordinates (Angstroms)
 Number     Number       Type             X           Y           Z
 ---------------------------------------------------------------------
      1          6           0        3.334610    0.721992    0.204134
      2          6           0        3.595117    2.220106    0.043588
      3          6           0        2.429350    3.078829    0.534888
      4          1           0        2.422386    0.453869   -0.346232
      5          1           0        3.136960    0.502635    1.262534
      6          1           0        3.793582    2.436357   -1.013986
      7          1           0        4.506933    2.484658    0.594242
      8          1           0        2.233722    2.892208    1.595786
      9          1           0        1.516318    2.843632   -0.021580
     10          1           0        2.636803    4.146269    0.410810
     11          6           0        4.490977   -0.149572   -0.282612
     12          6           0        4.230470   -1.647686   -0.122066
     13          6           0        5.396237   -2.506409   -0.613366
     14          1           0        4.688628    0.069786   -1.341012
     15          1           0        5.403201    0.118551    0.267754
     16          1           0        3.318654   -1.912238   -0.672720
     17          1           0        4.032005   -1.863936    0.935508
     18          1           0        6.309269   -2.271212   -0.056898
     19          1           0        5.591865   -2.319788   -1.674264
     20          1           0        5.188785   -3.573849   -0.489288
     21          6           0       -0.593444   -0.490275    0.506405
     22          6           0       -1.495523   -1.480096    0.910174
     23          6           0       -2.862637   -1.342877    0.651877
     24          6           0       -3.295025   -0.197820   -0.015338
     25          6           0       -2.421046    0.805818   -0.430261
     26          6           0       -1.058265    0.647516   -0.161346
     27          1           0        0.466881   -0.605058    0.711181
     28          1           0       -1.137378   -2.364778    1.428935
     29          1           0       -3.582866   -2.093761    0.953309
     30          1           0       -2.808006    1.676558   -0.945520
     31          1           0       -0.359990    1.417839   -0.476087
     32          7           0       -4.740034   -0.041394   -0.294405
     33          8           0       -5.095688    0.976820   -0.883801
     34          8           0       -5.489618   -0.939964    0.081540
 ---------------------------------------------------------------------

 SCF Done:  E(RHF) =  -669.535183865     A.U. after   15 cycles
 E2 =    -0.2092372619D+01 EUMP2 =    -0.67162755648455D+03

 The electronic state is 1-A.
 Alpha  occ. eigenvalues --  -20.60688 -20.60683 -15.85741 -11.31084 -11.27657
 Alpha  occ. eigenvalues --  -11.27653 -11.27318 -11.26649 -11.26630 -11.22747
 Alpha  occ. eigenvalues --  -11.22685 -11.22607 -11.22406 -11.22251 -11.21853
 Alpha  occ. eigenvalues --   -1.59764  -1.39319  -1.19252  -1.09564  -1.08642
 Alpha  occ. eigenvalues --   -1.04663  -1.04570  -0.97035  -0.95484  -0.88045
 Alpha  occ. eigenvalues --   -0.86056  -0.82324  -0.80656  -0.79422  -0.77379
 Alpha  occ. eigenvalues --   -0.71959  -0.71088  -0.70346  -0.66202  -0.64898
 Alpha  occ. eigenvalues --   -0.64677  -0.62139  -0.61842  -0.60388  -0.58667
 Alpha  occ. eigenvalues --   -0.56357  -0.55145  -0.53675  -0.53461  -0.52979
 Alpha  occ. eigenvalues --   -0.52733  -0.50955  -0.48958  -0.48716  -0.48709
 Alpha  occ. eigenvalues --   -0.47675  -0.46900  -0.46836  -0.44850  -0.44729
 Alpha  occ. eigenvalues --   -0.37217  -0.36264
 Alpha virt. eigenvalues --    0.05154   0.11356   0.16624   0.19150   0.22387
 Alpha virt. eigenvalues --    0.23039   0.24793   0.25243   0.26162   0.28227
 Alpha virt. eigenvalues --    0.29437   0.30308   0.30920   0.31385   0.31716

 Mulliken charges:
               1
     1  C   -0.305834
     2  C   -0.300203
     3  C   -0.479973
     4  H    0.144324
     5  H    0.149258
     6  H    0.155521
     7  H    0.157191
     8  H    0.158623
     9  H    0.147862
    10  H    0.167274
    11  C   -0.297743
    12  C   -0.302294
    13  C   -0.476038
    14  H    0.153173
    15  H    0.153795
    16  H    0.150169
    17  H    0.150446
    18  H    0.157458
    19  H    0.157696
    20  H    0.162314
    21  C   -0.178574
    22  C   -0.219516
    23  C   -0.170915
    24  C    0.158446
    25  C   -0.172499
    26  C   -0.225780
    27  H    0.234336
    28  H    0.223233
    29  H    0.275096
    30  H    0.275627
    31  H    0.231026
    32  N    0.488019
    33  O   -0.460712
    34  O   -0.460808
 Sum of Mulliken charges =  -0.00000

 Dipole moment (field-independent basis, Debye):
    X=              5.4488    Y=             -0.4935    Z=              0.9856  Tot=              5.5592
 Quadrupole moment (field-independent basis, Debye-Ang):
   XX=           -127.8875   YY=            -90.9281   ZZ=            -93.6897
   XY=              2.5067   XZ=             -3.2519   YZ=             -2.5586

 Normal termination of Gaussian 16 at Wed May  5 15:47:09 2021.
