 Gaussian 16, Revision A.03,
 Gaussian 16:  EM64L-G16RevA.03 25-Dec-2016

 -------------
 #p 6-31g* mp2
 -------------

 ------------------------------------------------------
 Input file generated by CHIRIPA (05-May-2021 14:57:22)
 ------------------------------------------------------
 Symbolic Z-matrix:
 Charge =  0 Multiplicity = 1

                         Standard orientation:
 ---------------------------------------------------------------------
 Center     Atomic      Atomic             Coordinates (Angstroms)
 Number     Number       Type             X           Y           Z
 ---------------------------------------------------------------------
      1          6           0       -0.939290   -1.908177   -0.509968
      2          6           0       -0.928802   -0.623512   -1.063183
      3          6           0       -2.026167    0.227685   -0.902554
      4          6           0       -3.122293   -0.240361   -0.179554
      5          6           0       -3.162815   -1.514890    0.383673
      6          6           0       -2.054297   -2.348989    0.210424
      7          1           0       -0.082498   -2.562767   -0.639650
      8          1           0       -0.064240   -0.278503   -1.623135
      9          1           0       -2.044582    1.227007   -1.320206
     10          1           0       -4.039060   -1.830692    0.936738
     11          1           0       -2.065223   -3.346176    0.641172
     12          7           0       -4.289928    0.651712   -0.002824
     13          8           0       -5.243454    0.215622    0.638465
     14          8           0       -4.229486    1.770118   -0.508938
     15          6           0        1.527769    2.459129    0.537260
     16          6           0        2.719942    2.528956   -0.191004
     17          6           0        3.504774    1.387422   -0.379379
     18          6           0        3.065401    0.187098    0.176915
     19          6           0        1.882496    0.085428    0.907456
     20          6           0        1.113581    1.239737    1.083203
     21          1           0        0.924274    3.350862    0.678689
     22          1           0        3.044075    3.474603   -0.616134
     23          1           0        4.432027    1.413156   -0.938806
     24          1           0        1.585413   -0.871454    1.319203
     25          1           0        0.188176    1.182540    1.649241
     26          7           0        3.887843   -1.028156   -0.015823
     27          8           0        3.478781   -2.073642    0.484439
     28          8           0        4.925963   -0.912175   -0.663506
 ---------------------------------------------------------------------

 SCF Done:  E(RHF) =  -868.337706590     A.U. after   16 cycles
 E2 =    -0.2602899641D+01 EUMP2 =    -0.87094060623100D+03

 The electronic state is 1-A.
 Alpha  occ. eigenvalues --  -20.61588 -20.61549 -20.61248 -20.61232 -15.86614
 Alpha  occ. eigenvalues --  -15.86292 -11.31894 -11.31648 -11.28390 -11.28387
 Alpha  occ. eigenvalues --  -11.28138 -11.28121 -11.28049 -11.27741 -11.27385
 Alpha  occ. eigenvalues --  -11.27315 -11.27142 -11.27100  -1.60647  -1.60320
 Alpha  occ. eigenvalues --   -1.40203  -1.39873  -1.20050  -1.19773  -1.09435
 Alpha  occ. eigenvalues --   -1.09162  -1.05435  -1.05119  -0.96291  -0.95994
 Alpha  occ. eigenvalues --   -0.86796  -0.86535  -0.83104  -0.82818  -0.78187
 Alpha  occ. eigenvalues --   -0.77896  -0.72822  -0.72501  -0.71983  -0.71652
 Alpha  occ. eigenvalues --   -0.71113  -0.70771  -0.65657  -0.65433  -0.65323
 Alpha  occ. eigenvalues --   -0.65112  -0.62738  -0.62495  -0.55863  -0.55556
 Alpha  occ. eigenvalues --   -0.54129  -0.53459  -0.53319  -0.53043  -0.49593
 Alpha  occ. eigenvalues --   -0.49568  -0.49267  -0.49254  -0.45623  -0.45281
 Alpha  occ. eigenvalues --   -0.38112  -0.38084  -0.37315  -0.35967
 Alpha virt. eigenvalues --    0.04257   0.04573   0.10371   0.11111   0.15730
 Alpha virt. eigenvalues --    0.16207   0.20698   0.21389   0.26595   0.26924
 Alpha virt. eigenvalues --    0.27355   0.28510   0.30322   0.30938   0.32104

 Mulliken charges:
               1
     1  C   -0.182683
     2  C   -0.213930
     3  C   -0.178213
     4  C    0.157183
     5  C   -0.173396
     6  C   -0.219541
     7  H    0.237771
     8  H    0.228817
     9  H    0.273223
    10  H    0.276468
    11  H    0.227356
    12  N    0.487837
    13  O   -0.458519
    14  O   -0.461997
    15  C   -0.176324
    16  C   -0.219006
    17  C   -0.173321
    18  C    0.154605
    19  C   -0.175549
    20  C   -0.215519
    21  H    0.231058
    22  H    0.226472
    23  H    0.276890
    24  H    0.273738
    25  H    0.230091
    26  N    0.488055
    27  O   -0.464804
    28  O   -0.456763
 Sum of Mulliken charges =  -0.00000

 Dipole moment (field-independent basis, Debye):
    X=              1.2630    Y=              1.1584    Z=              0.0638  Tot=              1.7149
 Quadrupole moment (field-independent basis, Debye-Ang):
   XX=           -146.1314   YY=            -98.0149   ZZ=           -102.6868
   XY=             25.8227   XZ=             -0.7021   YZ=             -1.9974

 Normal termination of Gaussian 16 at Thu May  6 04:56:59 2021.
