 Gaussian 16, Revision A.03,
 Gaussian 16:  EM64L-G16RevA.03 25-Dec-2016

 -------------
 #p 6-31g* mp2
 -------------

 ------------------------------------------------------
 Input file generated by CHIRIPA (05-May-2021 14:55:21)
 ------------------------------------------------------
 Symbolic Z-matrix:
 Charge =  0 Multiplicity = 1

                         Standard orientation:
 ---------------------------------------------------------------------
 Center     Atomic      Atomic             Coordinates (Angstroms)
 Number     Number       Type             X           Y           Z
 ---------------------------------------------------------------------
      1          6           0       -5.437274   -0.715708    0.401208
      2          6           0       -5.126608    0.323585   -0.481899
      3          6           0       -3.795322    0.621136   -0.787983
      4          6           0       -2.795301   -0.144328   -0.190225
      5          6           0       -3.072823   -1.186085    0.693524
      6          6           0       -4.411199   -1.465903    0.985072
      7          1           0       -6.474203   -0.939965    0.633335
      8          1           0       -5.921411    0.907864   -0.936819
      9          1           0       -3.526577    1.420176   -1.468225
     10          1           0       -2.258807   -1.750957    1.131379
     11          1           0       -4.649506   -2.273613    1.671264
     12          7           0       -1.382175    0.161290   -0.506568
     13          8           0       -0.519491   -0.527915    0.033256
     14          8           0       -1.164009    1.084250   -1.288351
     15          6           0        4.106615   -0.459100    0.345828
     16          6           0        5.114515   -1.024031   -0.655659
     17          6           0        5.566225   -2.441776   -0.303878
     18          1           0        4.553927   -0.464580    1.349236
     19          1           0        3.232296   -1.123204    0.389742
     20          1           0        5.986066   -0.358325   -0.698693
     21          1           0        4.664822   -1.017027   -1.656830
     22          1           0        4.710348   -3.124065   -0.280242
     23          1           0        6.039099   -2.461620    0.683338
     24          1           0        6.286468   -2.826136   -1.032833
     25          6           0        3.645581    0.957525    0.007677
     26          6           0        2.637680    1.522454    1.009164
     27          6           0        2.185971    2.940200    0.657383
     28          1           0        4.519899    1.621629   -0.036237
     29          1           0        3.198269    0.963004   -0.995731
     30          1           0        3.087374    1.515452    2.010335
     31          1           0        1.766130    0.856749    1.052199
     32          1           0        1.713097    2.960044   -0.329834
     33          1           0        3.041847    3.622489    0.633746
     34          1           0        1.465727    3.324562    1.386338
 ---------------------------------------------------------------------

 SCF Done:  E(RHF) =  -669.536789919     A.U. after   15 cycles
 E2 =    -0.2091422233D+01 EUMP2 =    -0.67162821215144D+03

 The electronic state is 1-A.
 Alpha  occ. eigenvalues --  -20.61101 -20.61096 -15.86111 -11.31379 -11.27933
 Alpha  occ. eigenvalues --  -11.27929 -11.27661 -11.26927 -11.26917 -11.20565
 Alpha  occ. eigenvalues --  -11.20236 -11.20080 -11.19907 -11.19840 -11.19552
 Alpha  occ. eigenvalues --   -1.60144  -1.39702  -1.19539  -1.08955  -1.07066
 Alpha  occ. eigenvalues --   -1.04927  -1.02216  -0.95805  -0.94705  -0.86330
 Alpha  occ. eigenvalues --   -0.85730  -0.82641  -0.78312  -0.77701  -0.76848
 Alpha  occ. eigenvalues --   -0.72330  -0.71449  -0.70648  -0.65196  -0.64931
 Alpha  occ. eigenvalues --   -0.63673  -0.62274  -0.59591  -0.58113  -0.56316
 Alpha  occ. eigenvalues --   -0.55433  -0.53978  -0.53260  -0.53018  -0.51451
 Alpha  occ. eigenvalues --   -0.51137  -0.49138  -0.49085  -0.48619  -0.46630
 Alpha  occ. eigenvalues --   -0.45418  -0.45049  -0.44407  -0.44157  -0.42472
 Alpha  occ. eigenvalues --   -0.37514  -0.36524
 Alpha virt. eigenvalues --    0.04797   0.11132   0.16296   0.21266   0.24206
 Alpha virt. eigenvalues --    0.25619   0.27195   0.27914   0.28271   0.28874
 Alpha virt. eigenvalues --    0.29204   0.30849   0.32370   0.32677   0.33002

 Mulliken charges:
               1
     1  C   -0.170367
     2  C   -0.218611
     3  C   -0.170512
     4  C    0.158098
     5  C   -0.170612
     6  C   -0.218579
     7  H    0.226331
     8  H    0.224146
     9  H    0.276084
    10  H    0.275908
    11  H    0.224151
    12  N    0.489249
    13  O   -0.460462
    14  O   -0.458703
    15  C   -0.299804
    16  C   -0.298842
    17  C   -0.474966
    18  H    0.144066
    19  H    0.158017
    20  H    0.148635
    21  H    0.152651
    22  H    0.154850
    23  H    0.152681
    24  H    0.156725
    25  C   -0.296407
    26  C   -0.308337
    27  C   -0.476735
    28  H    0.142057
    29  H    0.155941
    30  H    0.141434
    31  H    0.176226
    32  H    0.166154
    33  H    0.146935
    34  H    0.152600
 Sum of Mulliken charges =  -0.00000

 Dipole moment (field-independent basis, Debye):
    X=             -5.4434    Y=             -1.1751    Z=              0.9938  Tot=              5.6568
 Quadrupole moment (field-independent basis, Debye-Ang):
   XX=            -68.1008   YY=            -93.6834   ZZ=            -93.8175
   XY=              3.0625   XZ=             -1.1733   YZ=             -2.6767

 Normal termination of Gaussian 16 at Thu May  6 01:23:40 2021.
