 Gaussian 16, Revision A.03,
 Gaussian 16:  EM64L-G16RevA.03 25-Dec-2016

 -------------
 #p 6-31g* mp2
 -------------

 ------------------------------------------------------
 Input file generated by CHIRIPA (05-May-2021 14:57:26)
 ------------------------------------------------------
 Symbolic Z-matrix:
 Charge =  0 Multiplicity = 1

                         Standard orientation:
 ---------------------------------------------------------------------
 Center     Atomic      Atomic             Coordinates (Angstroms)
 Number     Number       Type             X           Y           Z
 ---------------------------------------------------------------------
      1          6           0        0.760446   -1.175478   -0.221367
      2          6           0        1.789825   -1.836061    0.457256
      3          6           0        3.067800   -1.273823    0.529483
      4          6           0        3.282208   -0.044096   -0.091074
      5          6           0        2.277202    0.638544   -0.774635
      6          6           0        1.006985    0.057542   -0.834067
      7          1           0       -0.229303   -1.619526   -0.272505
      8          1           0        1.601248   -2.793755    0.934021
      9          1           0        3.882880   -1.763618    1.048292
     10          1           0        2.495616    1.592014   -1.240046
     11          1           0        0.209459    0.572824   -1.361781
     12          7           0        4.631037    0.561053   -0.021384
     13          8           0        4.794239    1.645462   -0.576414
     14          8           0        5.499506   -0.060500    0.586949
     15          6           0       -3.060301   -2.339911   -0.341223
     16          6           0       -2.735540   -1.856080    0.930374
     17          6           0       -2.732103   -0.481908    1.187648
     18          6           0       -3.059866    0.383951    0.145464
     19          6           0       -3.387839   -0.067331   -1.132061
     20          6           0       -3.384842   -1.445569   -1.366575
     21          1           0       -3.060472   -3.408981   -0.532239
     22          1           0       -2.483089   -2.548307    1.728581
     23          1           0       -2.484572   -0.080190    2.162722
     24          1           0       -3.635194    0.647272   -1.907676
     25          1           0       -3.637463   -1.818472   -2.355093
     26          7           0       -3.059635    1.840877    0.405779
     27          8           0       -3.352026    2.582970   -0.529336
     28          8           0       -2.767065    2.213137    1.540004
 ---------------------------------------------------------------------

 SCF Done:  E(RHF) =  -868.336782500     A.U. after   16 cycles
 E2 =    -0.2602823658D+01 EUMP2 =    -0.87093960615722D+03

 The electronic state is 1-A.
 Alpha  occ. eigenvalues --  -20.61769 -20.61750 -20.60659 -20.60647 -15.86824
 Alpha  occ. eigenvalues --  -15.85713 -11.32475 -11.31082 -11.29052 -11.29004
 Alpha  occ. eigenvalues --  -11.28809 -11.28100 -11.28072 -11.27718 -11.27646
 Alpha  occ. eigenvalues --  -11.27275 -11.26727 -11.26621  -1.60836  -1.59732
 Alpha  occ. eigenvalues --   -1.40378  -1.39285  -1.20692  -1.19268  -1.10023
 Alpha  occ. eigenvalues --   -1.08653  -1.06087  -1.04684  -0.96788  -0.95486
 Alpha  occ. eigenvalues --   -0.87452  -0.86082  -0.83589  -0.82328  -0.78596
 Alpha  occ. eigenvalues --   -0.77378  -0.73023  -0.72184  -0.71929  -0.71708
 Alpha  occ. eigenvalues --   -0.71057  -0.70404  -0.66285  -0.66030  -0.64917
 Alpha  occ. eigenvalues --   -0.64719  -0.63375  -0.62042  -0.56538  -0.55757
 Alpha  occ. eigenvalues --   -0.54120  -0.53850  -0.52988  -0.52773  -0.49809
 Alpha  occ. eigenvalues --   -0.49768  -0.48693  -0.48682  -0.45718  -0.44690
 Alpha  occ. eigenvalues --   -0.38711  -0.37894  -0.37026  -0.36298
 Alpha virt. eigenvalues --    0.03856   0.05208   0.09824   0.11342   0.15273
 Alpha virt. eigenvalues --    0.16701   0.20213   0.21675   0.26081   0.27055
 Alpha virt. eigenvalues --    0.27255   0.28819   0.29930   0.31362   0.31623

 Mulliken charges:
               1
     1  C   -0.176076
     2  C   -0.224175
     3  C   -0.170037
     4  C    0.157645
     5  C   -0.168857
     6  C   -0.224297
     7  H    0.235284
     8  H    0.217417
     9  H    0.274549
    10  H    0.277575
    11  H    0.223613
    12  N    0.488091
    13  O   -0.459268
    14  O   -0.461588
    15  C   -0.179956
    16  C   -0.230185
    17  C   -0.166507
    18  C    0.157521
    19  C   -0.176192
    20  C   -0.217493
    21  H    0.230273
    22  H    0.227583
    23  H    0.281525
    24  H    0.279814
    25  H    0.229137
    26  N    0.487364
    27  O   -0.458259
    28  O   -0.454502
 Sum of Mulliken charges =  -0.00000

 Dipole moment (field-independent basis, Debye):
    X=             -5.1083    Y=             -7.0999    Z=             -1.1272  Tot=              8.8189
 Quadrupole moment (field-independent basis, Debye-Ang):
   XX=           -135.7746   YY=           -106.1852   ZZ=            -99.5106
   XY=              7.5164   XZ=              4.8049   YZ=             -4.1469

 Normal termination of Gaussian 16 at Thu May  6 16:28:50 2021.
