 Gaussian 16, Revision A.03,
 Gaussian 16:  EM64L-G16RevA.03 25-Dec-2016

 -------------
 #p 6-31g* mp2
 -------------

 ------------------------------------------------------
 Input file generated by CHIRIPA (05-May-2021 14:57:23)
 ------------------------------------------------------
 Symbolic Z-matrix:
 Charge =  0 Multiplicity = 1

                         Standard orientation:
 ---------------------------------------------------------------------
 Center     Atomic      Atomic             Coordinates (Angstroms)
 Number     Number       Type             X           Y           Z
 ---------------------------------------------------------------------
      1          6           0        5.148453    0.872422    0.387166
      2          6           0        4.666768    0.001969    1.370433
      3          6           0        3.486260   -0.718169    1.164642
      4          6           0        2.809768   -0.542866   -0.041557
      5          6           0        3.264162    0.316808   -1.040445
      6          6           0        4.446849    1.026791   -0.813019
      7          1           0        6.066347    1.427898    0.555432
      8          1           0        5.209559   -0.119904    2.303476
      9          1           0        3.090838   -1.398732    1.908882
     10          1           0        2.701121    0.417344   -1.960388
     11          1           0        4.818571    1.702095   -1.578416
     12          7           0        1.558864   -1.299868   -0.270871
     13          8           0        0.981413   -1.127735   -1.342112
     14          8           0        1.179541   -2.051006    0.624977
     15          6           0       -1.903045    2.681505   -0.062691
     16          6           0       -1.625239    1.735471   -1.054842
     17          6           0       -2.236061    0.478202   -1.028035
     18          6           0       -3.123522    0.199285    0.010188
     19          6           0       -3.420815    1.120661    1.013171
     20          6           0       -2.798369    2.371627    0.966335
     21          1           0       -1.424029    3.655733   -0.091295
     22          1           0       -0.930342    1.973368   -1.855198
     23          1           0       -2.039087   -0.272875   -1.783352
     24          1           0       -4.117977    0.854450    1.798355
     25          1           0       -3.016013    3.104370    1.738192
     26          7           0       -3.776325   -1.128393    0.049169
     27          8           0       -4.554419   -1.349581    0.974525
     28          8           0       -3.497537   -1.922699   -0.846371
 ---------------------------------------------------------------------

 SCF Done:  E(RHF) =  -868.337956603     A.U. after   16 cycles
 E2 =    -0.2599976036D+01 EUMP2 =    -0.87093793263939D+03

 The electronic state is 1-A.
 Alpha  occ. eigenvalues --  -20.61166 -20.61119 -20.59730 -20.59677 -15.86187
 Alpha  occ. eigenvalues --  -15.84765 -11.31570 -11.30194 -11.28176 -11.28101
 Alpha  occ. eigenvalues --  -11.27870 -11.27173 -11.27124 -11.26893 -11.26709
 Alpha  occ. eigenvalues --  -11.26693 -11.25947 -11.25848  -1.60197  -1.58776
 Alpha  occ. eigenvalues --   -1.39758  -1.38326  -1.19739  -1.18426  -1.09126
 Alpha  occ. eigenvalues --   -1.07833  -1.05147  -1.03835  -0.95961  -0.94636
 Alpha  occ. eigenvalues --   -0.86542  -0.85246  -0.82801  -0.81463  -0.77847
 Alpha  occ. eigenvalues --   -0.76466  -0.72414  -0.71518  -0.70992  -0.70845
 Alpha  occ. eigenvalues --   -0.70088  -0.69568  -0.65394  -0.65147  -0.64089
 Alpha  occ. eigenvalues --   -0.63873  -0.62497  -0.61162  -0.55637  -0.54421
 Alpha  occ. eigenvalues --   -0.53473  -0.53238  -0.52184  -0.51945  -0.49165
 Alpha  occ. eigenvalues --   -0.49135  -0.47768  -0.47723  -0.45163  -0.43716
 Alpha  occ. eigenvalues --   -0.37716  -0.36754  -0.36473  -0.35412
 Alpha virt. eigenvalues --    0.04664   0.06092   0.10896   0.12215   0.16162
 Alpha virt. eigenvalues --    0.17505   0.20968   0.22202   0.26777   0.27518
 Alpha virt. eigenvalues --    0.28468   0.29165   0.30607   0.31525   0.32506

 Mulliken charges:
               1
     1  C   -0.170936
     2  C   -0.218483
     3  C   -0.170561
     4  C    0.159571
     5  C   -0.172270
     6  C   -0.218694
     7  H    0.226426
     8  H    0.224938
     9  H    0.277789
    10  H    0.271567
    11  H    0.223021
    12  N    0.489584
    13  O   -0.467115
    14  O   -0.452972
    15  C   -0.172400
    16  C   -0.221755
    17  C   -0.159491
    18  C    0.156833
    19  C   -0.171131
    20  C   -0.220202
    21  H    0.219433
    22  H    0.219263
    23  H    0.287056
    24  H    0.273068
    25  H    0.218709
    26  N    0.488996
    27  O   -0.465759
    28  O   -0.454484
 Sum of Mulliken charges =  -0.00000

 Dipole moment (field-independent basis, Debye):
    X=              6.9093    Y=              7.0173    Z=              0.6367  Tot=              9.8685
 Quadrupole moment (field-independent basis, Debye-Ang):
   XX=            -94.7626   YY=           -106.3341   ZZ=            -97.7425
   XY=             -9.4526   XZ=              1.4315   YZ=             -1.5445

 Normal termination of Gaussian 16 at Thu May  6 08:11:11 2021.
