 Gaussian 16, Revision A.03,
 Gaussian 16:  EM64L-G16RevA.03 25-Dec-2016

 -------------
 #p 6-31g* mp2
 -------------

 ------------------------------------------------------
 Input file generated by CHIRIPA (05-May-2021 14:53:17)
 ------------------------------------------------------
 Symbolic Z-matrix:
 Charge =  0 Multiplicity = 1

                         Standard orientation:
 ---------------------------------------------------------------------
 Center     Atomic      Atomic             Coordinates (Angstroms)
 Number     Number       Type             X           Y           Z
 ---------------------------------------------------------------------
      1          6           0       -3.330397    0.743490    0.475457
      2          6           0       -3.831252    1.853886   -0.448745
      3          6           0       -3.633156    3.249753    0.142954
      4          1           0       -3.854218    0.812724    1.438662
      5          1           0       -2.264340    0.905138    0.687085
      6          1           0       -4.895710    1.689416   -0.659680
      7          1           0       -3.306316    1.781882   -1.409929
      8          1           0       -2.572449    3.438838    0.337244
      9          1           0       -4.170875    3.345847    1.091756
     10          1           0       -3.998082    4.028326   -0.534182
     11          6           0       -3.521555   -0.657756   -0.102208
     12          6           0       -3.020701   -1.768152    0.821994
     13          6           0       -3.218796   -3.164019    0.230295
     14          1           0       -4.587613   -0.819404   -0.313836
     15          1           0       -2.997734   -0.726991   -1.065413
     16          1           0       -3.545637   -1.696148    1.783177
     17          1           0       -1.956242   -1.603682    1.032928
     18          1           0       -2.681078   -3.260113   -0.718507
     19          1           0       -4.279503   -3.353104    0.036005
     20          1           0       -2.853870   -3.942592    0.907431
     21          6           0        0.365525   -0.787051   -0.822008
     22          6           0        0.631888    0.573553   -0.636732
     23          6           0        1.908675    1.002501   -0.262078
     24          6           0        2.899965    0.039362   -0.080427
     25          6           0        2.665710   -1.323394   -0.257372
     26          6           0        1.381495   -1.729521   -0.632071
     27          1           0       -0.629200   -1.111404   -1.113065
     28          1           0       -0.155191    1.307720   -0.783537
     29          1           0        2.142352    2.049524   -0.111893
     30          1           0        3.470723   -2.031729   -0.103635
     31          1           0        1.177513   -2.786846   -0.775252
     32          7           0        4.255575    0.481389    0.316226
     33          8           0        5.111667   -0.386994    0.470018
     34          8           0        4.436340    1.687865    0.465820
 ---------------------------------------------------------------------

 SCF Done:  E(RHF) =  -669.534769873     A.U. after   15 cycles
 E2 =    -0.2093763764D+01 EUMP2 =    -0.67162853363647D+03

 The electronic state is 1-A.
 Alpha  occ. eigenvalues --  -20.60779 -20.60774 -15.85834 -11.31215 -11.27788
 Alpha  occ. eigenvalues --  -11.27784 -11.27487 -11.26795 -11.26785 -11.22642
 Alpha  occ. eigenvalues --  -11.22608 -11.22582 -11.22429 -11.22147 -11.21936
 Alpha  occ. eigenvalues --   -1.59855  -1.39408  -1.19391  -1.09559  -1.08772
 Alpha  occ. eigenvalues --   -1.04795  -1.04571  -0.97018  -0.95615  -0.88028
 Alpha  occ. eigenvalues --   -0.86191  -0.82447  -0.80611  -0.79342  -0.77490
 Alpha  occ. eigenvalues --   -0.72052  -0.71178  -0.70600  -0.66276  -0.65035
 Alpha  occ. eigenvalues --   -0.64693  -0.62220  -0.61927  -0.60369  -0.58607
 Alpha  occ. eigenvalues --   -0.56341  -0.55261  -0.53667  -0.53421  -0.53123
 Alpha  occ. eigenvalues --   -0.52885  -0.50951  -0.48924  -0.48805  -0.48796
 Alpha  occ. eigenvalues --   -0.47679  -0.46870  -0.46810  -0.44829  -0.44810
 Alpha  occ. eigenvalues --   -0.37330  -0.36394
 Alpha virt. eigenvalues --    0.05012   0.11123   0.16399   0.17981   0.21507
 Alpha virt. eigenvalues --    0.23840   0.25305   0.26182   0.26725   0.28001
 Alpha virt. eigenvalues --    0.29531   0.30209   0.30838   0.31457   0.32394

 Mulliken charges:
               1
     1  C   -0.303907
     2  C   -0.301733
     3  C   -0.475697
     4  H    0.155933
     5  H    0.148924
     6  H    0.156416
     7  H    0.147466
     8  H    0.151844
     9  H    0.159310
    10  H    0.163958
    11  C   -0.302446
    12  C   -0.308169
    13  C   -0.476016
    14  H    0.156415
    15  H    0.139659
    16  H    0.158584
    17  H    0.155177
    18  H    0.147076
    19  H    0.160123
    20  H    0.164417
    21  C   -0.174594
    22  C   -0.224575
    23  C   -0.171187
    24  C    0.158483
    25  C   -0.170281
    26  C   -0.221690
    27  H    0.236410
    28  H    0.226602
    29  H    0.275891
    30  H    0.275781
    31  H    0.224416
    32  N    0.488013
    33  O   -0.460301
    34  O   -0.460301
 Sum of Mulliken charges =  -0.00000

 Dipole moment (field-independent basis, Debye):
    X=             -4.9756    Y=             -1.5438    Z=             -1.2700  Tot=              5.3622
 Quadrupole moment (field-independent basis, Debye-Ang):
   XX=           -120.6384   YY=            -91.1896   ZZ=            -95.2633
   XY=             -6.5827   XZ=             -4.5523   YZ=             -0.3630

 Normal termination of Gaussian 16 at Thu May  6 04:22:38 2021.
