 Gaussian 16, Revision A.03,
 Gaussian 16:  EM64L-G16RevA.03 25-Dec-2016

 -------------
 #p 6-31g* mp2
 -------------

 ------------------------------------------------------
 Input file generated by CHIRIPA (05-May-2021 14:51:12)
 ------------------------------------------------------
 Symbolic Z-matrix:
 Charge =  0 Multiplicity = 1

                         Standard orientation:
 ---------------------------------------------------------------------
 Center     Atomic      Atomic             Coordinates (Angstroms)
 Number     Number       Type             X           Y           Z
 ---------------------------------------------------------------------
      1          6           0       -3.291354   -0.517837    0.154233
      2          6           0       -1.938287    0.028437   -0.302690
      3          6           0       -0.779856   -0.915553    0.020904
      4          1           0       -3.258425   -0.702560    1.236702
      5          1           0       -3.466161   -1.491628   -0.323856
      6          1           0       -1.766706    1.001549    0.175043
      7          1           0       -1.974502    0.212061   -1.384165
      8          1           0       -0.924133   -1.884281   -0.468332
      9          1           0       -0.715156   -1.090307    1.099735
     10          1           0        0.177878   -0.505447   -0.314386
     11          6           0       -4.459296    0.414619   -0.162254
     12          6           0       -5.812363   -0.131655    0.294669
     13          6           0       -6.970794    0.812335   -0.028926
     14          1           0       -4.284489    1.388410    0.315834
     15          1           0       -4.492224    0.599342   -1.244723
     16          1           0       -5.776147   -0.315279    1.376144
     17          1           0       -5.983943   -1.104767   -0.183064
     18          1           0       -7.035493    0.987089   -1.107756
     19          1           0       -6.826517    1.781063    0.460311
     20          1           0       -7.928527    0.402229    0.306365
     21          6           0        3.988170   -0.638215    0.311974
     22          6           0        3.349358   -1.772316   -0.490347
     23          6           0        3.583797   -3.146188    0.138389
     24          1           0        5.067473   -0.823097    0.400672
     25          1           0        3.584256   -0.648602    1.333806
     26          1           0        3.753331   -1.758933   -1.510760
     27          1           0        2.271480   -1.584613   -0.577309
     28          1           0        3.165011   -3.183779    1.149233
     29          1           0        4.655281   -3.359088    0.210478
     30          1           0        3.118657   -3.942242   -0.451358
     31          6           0        3.762480    0.741433   -0.303953
     32          6           0        4.401291    1.875534    0.498369
     33          6           0        4.166853    3.249406   -0.130368
     34          1           0        4.166393    0.751820   -1.325784
     35          1           0        2.683177    0.926316   -0.392650
     36          1           0        5.479169    1.687831    0.585330
     37          1           0        3.997319    1.862151    1.518781
     38          1           0        3.095368    3.462306   -0.202458
     39          1           0        4.585638    3.286997   -1.141212
     40          1           0        4.631992    4.045460    0.459379
 ---------------------------------------------------------------------

 SCF Done:  E(RHF) =  -470.733180647     A.U. after   11 cycles
 E2 =    -0.1582750590D+01 EUMP2 =    -0.47231593123744D+03

 The electronic state is 1-A.
 Alpha  occ. eigenvalues --  -11.21661 -11.21625 -11.21591 -11.21491 -11.21442
 Alpha  occ. eigenvalues --  -11.21384 -11.21381 -11.21311 -11.21147 -11.21089
 Alpha  occ. eigenvalues --  -11.21064 -11.20999  -1.08471  -1.08394  -1.03579
 Alpha  occ. eigenvalues --   -1.03482  -0.96030  -0.95940  -0.87057  -0.86950
 Alpha  occ. eigenvalues --   -0.79670  -0.79525  -0.78284  -0.78207  -0.65098
 Alpha  occ. eigenvalues --   -0.65044  -0.60972  -0.60907  -0.59437  -0.59263
 Alpha  occ. eigenvalues --   -0.57639  -0.57550  -0.55315  -0.55224  -0.52799
 Alpha  occ. eigenvalues --   -0.52607  -0.52450  -0.52360  -0.49968  -0.49876
 Alpha  occ. eigenvalues --   -0.47976  -0.47857  -0.46676  -0.46574  -0.45822
 Alpha  occ. eigenvalues --   -0.45759  -0.45742  -0.45677  -0.43777  -0.43710
 Alpha virt. eigenvalues --    0.21143   0.23006   0.24054   0.24397   0.25799
 Alpha virt. eigenvalues --    0.26609   0.27097   0.27467   0.27906   0.28865
 Alpha virt. eigenvalues --    0.30916   0.31309   0.31750   0.31928   0.32031

 Mulliken charges:
               1
     1  C   -0.298737
     2  C   -0.299373
     3  C   -0.482335
     4  H    0.149683
     5  H    0.149725
     6  H    0.151773
     7  H    0.152392
     8  H    0.155936
     9  H    0.155341
    10  H    0.165852
    11  C   -0.298285
    12  C   -0.299652
    13  C   -0.475726
    14  H    0.149554
    15  H    0.149774
    16  H    0.151966
    17  H    0.152002
    18  H    0.155239
    19  H    0.155211
    20  H    0.160339
    21  C   -0.297594
    22  C   -0.307910
    23  C   -0.474995
    24  H    0.149478
    25  H    0.149506
    26  H    0.151149
    27  H    0.161151
    28  H    0.155204
    29  H    0.154648
    30  H    0.159937
    31  C   -0.301076
    32  C   -0.299529
    33  C   -0.475731
    34  H    0.149621
    35  H    0.150892
    36  H    0.152097
    37  H    0.151966
    38  H    0.155116
    39  H    0.155178
    40  H    0.160212
 Sum of Mulliken charges =  -0.00000

 Dipole moment (field-independent basis, Debye):
    X=             -0.0382    Y=             -0.0013    Z=             -0.0007  Tot=              0.0382
 Quadrupole moment (field-independent basis, Debye-Ang):
   XX=            -85.0018   YY=            -86.0645   ZZ=            -83.7937
   XY=              0.6480   XZ=             -0.5227   YZ=              0.9302

 Normal termination of Gaussian 16 at Wed May  5 19:56:03 2021.
