 Gaussian 16, Revision A.03,
 Gaussian 16:  EM64L-G16RevA.03 25-Dec-2016

 -------------
 #p 6-31g* mp2
 -------------

 ------------------------------------------------------
 Input file generated by CHIRIPA (05-May-2021 14:57:25)
 ------------------------------------------------------
 Symbolic Z-matrix:
 Charge =  0 Multiplicity = 1

                         Standard orientation:
 ---------------------------------------------------------------------
 Center     Atomic      Atomic             Coordinates (Angstroms)
 Number     Number       Type             X           Y           Z
 ---------------------------------------------------------------------
      1          6           0        2.738172    2.478126   -0.454029
      2          6           0        1.787726    1.556899   -0.001797
      3          6           0        2.123872    0.208931    0.154839
      4          6           0        3.425543   -0.184994   -0.151373
      5          6           0        4.394831    0.708849   -0.603937
      6          6           0        4.036403    2.051912   -0.753128
      7          1           0        2.468391    3.523355   -0.572816
      8          1           0        0.778744    1.885061    0.231247
      9          1           0        1.407776   -0.525427    0.503183
     10          1           0        5.392632    0.351780   -0.828243
     11          1           0        4.776598    2.765130   -1.104522
     12          7           0        3.793200   -1.609432    0.010510
     13          8           0        4.946730   -1.931202   -0.266022
     14          8           0        2.920879   -2.377164    0.410859
     15          6           0       -1.321115    0.464372    1.565255
     16          6           0       -1.545462   -0.837327    1.105069
     17          6           0       -2.674523   -1.133690    0.335695
     18          6           0       -3.562538   -0.099476    0.043944
     19          6           0       -3.366700    1.207391    0.487832
     20          6           0       -2.230846    1.480785    1.255713
     21          1           0       -0.441395    0.685673    2.162342
     22          1           0       -0.840651   -1.628678    1.343922
     23          1           0       -2.872632   -2.132639   -0.033453
     24          1           0       -4.087194    1.975259    0.233502
     25          1           0       -2.059176    2.492622    1.611748
     26          7           0       -4.761421   -0.401063   -0.769767
     27          8           0       -5.528647    0.527802   -1.013099
     28          8           0       -4.911178   -1.560603   -1.148815
 ---------------------------------------------------------------------

 SCF Done:  E(RHF) =  -868.336660319     A.U. after   16 cycles
 E2 =    -0.2602623256D+01 EUMP2 =    -0.87093928357412D+03

 The electronic state is 1-A.
 Alpha  occ. eigenvalues --  -20.61417 -20.61388 -20.61240 -20.61227 -15.86456
 Alpha  occ. eigenvalues --  -15.86295 -11.31863 -11.31817 -11.28480 -11.28415
 Alpha  occ. eigenvalues --  -11.28400 -11.28342 -11.28282 -11.28090 -11.27590
 Alpha  occ. eigenvalues --  -11.27455 -11.27356 -11.27347  -1.60473  -1.60307
 Alpha  occ. eigenvalues --   -1.40031  -1.39854  -1.20084  -1.19972  -1.09478
 Alpha  occ. eigenvalues --   -1.09361  -1.05488  -1.05385  -0.96280  -0.96186
 Alpha  occ. eigenvalues --   -0.86959  -0.86725  -0.83160  -0.82950  -0.78167
 Alpha  occ. eigenvalues --   -0.78001  -0.72680  -0.72511  -0.71792  -0.71631
 Alpha  occ. eigenvalues --   -0.71339  -0.70993  -0.65787  -0.65633  -0.65507
 Alpha  occ. eigenvalues --   -0.65337  -0.62877  -0.62654  -0.56067  -0.55866
 Alpha  occ. eigenvalues --   -0.53837  -0.53696  -0.53575  -0.53395  -0.49443
 Alpha  occ. eigenvalues --   -0.49417  -0.49286  -0.49251  -0.45437  -0.45213
 Alpha  occ. eigenvalues --   -0.38097  -0.37945  -0.37091  -0.36968
 Alpha virt. eigenvalues --    0.04375   0.04472   0.10275   0.10669   0.15723
 Alpha virt. eigenvalues --    0.15924   0.19481   0.22054   0.25106   0.26666
 Alpha virt. eigenvalues --    0.27816   0.29370   0.30173   0.30650   0.31426

 Mulliken charges:
               1
     1  C   -0.170738
     2  C   -0.225069
     3  C   -0.176464
     4  C    0.159565
     5  C   -0.169642
     6  C   -0.218153
     7  H    0.226839
     8  H    0.224570
     9  H    0.271267
    10  H    0.277490
    11  H    0.225736
    12  N    0.488429
    13  O   -0.456757
    14  O   -0.464979
    15  C   -0.182238
    16  C   -0.226193
    17  C   -0.169144
    18  C    0.159530
    19  C   -0.169617
    20  C   -0.222928
    21  H    0.228339
    22  H    0.235801
    23  H    0.281536
    24  H    0.277705
    25  H    0.223071
    26  N    0.487900
    27  O   -0.459262
    28  O   -0.456593
 Sum of Mulliken charges =  -0.00000

 Dipole moment (field-independent basis, Debye):
    X=              2.7786    Y=              5.9698    Z=              2.1762  Tot=              6.9350
 Quadrupole moment (field-independent basis, Debye-Ang):
   XX=           -138.1605   YY=           -102.4990   ZZ=           -105.4333
   XY=             13.3030   XZ=            -13.8252   YZ=             -1.0770

 Normal termination of Gaussian 16 at Fri May  7 01:58:18 2021.
