 Gaussian 16, Revision A.03,
 Gaussian 16:  EM64L-G16RevA.03 25-Dec-2016

 -------------
 #p 6-31g* mp2
 -------------

 ------------------------------------------------------
 Input file generated by CHIRIPA (05-May-2021 14:57:22)
 ------------------------------------------------------
 Symbolic Z-matrix:
 Charge =  0 Multiplicity = 1

                         Standard orientation:
 ---------------------------------------------------------------------
 Center     Atomic      Atomic             Coordinates (Angstroms)
 Number     Number       Type             X           Y           Z
 ---------------------------------------------------------------------
      1          6           0       -4.329826    1.481998   -0.337048
      2          6           0       -3.480291    1.106730   -1.382986
      3          6           0       -2.516770    0.111720   -1.192909
      4          6           0       -2.430005   -0.489804    0.061655
      5          6           0       -3.261910   -0.137851    1.123424
      6          6           0       -4.218121    0.859608    0.910619
      7          1           0       -5.075473    2.255897   -0.493533
      8          1           0       -3.564774    1.588368   -2.353003
      9          1           0       -1.846288   -0.198156   -1.985278
     10          1           0       -3.153788   -0.636078    2.079194
     11          1           0       -4.876539    1.149017    1.724727
     12          7           0       -1.413837   -1.544472    0.274912
     13          8           0       -1.357580   -2.059129    1.389632
     14          8           0       -0.692863   -1.836494   -0.676695
     15          6           0        2.565121    2.777252    0.527591
     16          6           0        2.406896    2.355732   -0.796722
     17          6           0        2.423170    0.994568   -1.115340
     18          6           0        2.600610    0.078035   -0.080077
     19          6           0        2.760889    0.466725    1.249029
     20          6           0        2.741302    1.833067    1.544448
     21          1           0        2.551192    3.836648    0.766090
     22          1           0        2.269895    3.086762   -1.588475
     23          1           0        2.303003    0.640641   -2.132057
     24          1           0        2.895600   -0.285568    2.016706
     25          1           0        2.864425    2.157532    2.573820
     26          7           0        2.619592   -1.365709   -0.405103
     27          8           0        2.777486   -2.153280    0.525187
     28          8           0        2.476217   -1.682407   -1.583993
 ---------------------------------------------------------------------

 SCF Done:  E(RHF) =  -868.336005155     A.U. after   16 cycles
 E2 =    -0.2601807971D+01 EUMP2 =    -0.87093781312566D+03

 The electronic state is 1-A.
 Alpha  occ. eigenvalues --  -20.60477 -20.60470 -20.59486 -20.59474 -15.85525
 Alpha  occ. eigenvalues --  -15.84564 -11.31102 -11.30450 -11.27701 -11.27693
 Alpha  occ. eigenvalues --  -11.27489 -11.27108 -11.27051 -11.26951 -11.26767
 Alpha  occ. eigenvalues --  -11.26756 -11.26260 -11.26211  -1.59554  -1.58511
 Alpha  occ. eigenvalues --   -1.39101  -1.38071  -1.19299  -1.18678  -1.08657
 Alpha  occ. eigenvalues --   -1.07972  -1.04734  -1.04165  -0.95451  -0.94722
 Alpha  occ. eigenvalues --   -0.86121  -0.85534  -0.82278  -0.81571  -0.77294
 Alpha  occ. eigenvalues --   -0.76509  -0.71777  -0.70966  -0.70806  -0.70407
 Alpha  occ. eigenvalues --   -0.69790  -0.69677  -0.64942  -0.64738  -0.64323
 Alpha  occ. eigenvalues --   -0.64182  -0.62076  -0.61505  -0.55229  -0.54662
 Alpha  occ. eigenvalues --   -0.53054  -0.52828  -0.52466  -0.52267  -0.48496
 Alpha  occ. eigenvalues --   -0.48473  -0.47572  -0.47510  -0.44498  -0.43330
 Alpha  occ. eigenvalues --   -0.37297  -0.36687  -0.36351  -0.35799
 Alpha virt. eigenvalues --    0.05219   0.06075   0.11296   0.11854   0.16676
 Alpha virt. eigenvalues --    0.17457   0.21404   0.21903   0.27278   0.27753
 Alpha virt. eigenvalues --    0.28305   0.28884   0.30889   0.31431   0.32503

 Mulliken charges:
               1
     1  C   -0.171643
     2  C   -0.219027
     3  C   -0.171768
     4  C    0.158686
     5  C   -0.171457
     6  C   -0.218798
     7  H    0.224400
     8  H    0.221989
     9  H    0.277035
    10  H    0.275568
    11  H    0.222551
    12  N    0.486273
    13  O   -0.457961
    14  O   -0.454977
    15  C   -0.173005
    16  C   -0.219599
    17  C   -0.172296
    18  C    0.161186
    19  C   -0.171159
    20  C   -0.219210
    21  H    0.221405
    22  H    0.218428
    23  H    0.273610
    24  H    0.278049
    25  H    0.220895
    26  N    0.495952
    27  O   -0.456630
    28  O   -0.458497
 Sum of Mulliken charges =  -0.00000

 Dipole moment (field-independent basis, Debye):
    X=             -3.6692    Y=              8.4056    Z=              0.3905  Tot=              9.1798
 Quadrupole moment (field-independent basis, Debye-Ang):
   XX=            -89.2854   YY=           -108.9868   ZZ=            -96.0999
   XY=              5.3653   XZ=              3.7798   YZ=             -1.4377

 Normal termination of Gaussian 16 at Thu May  6 06:34:09 2021.
