 Gaussian 16, Revision A.03,
 Gaussian 16:  EM64L-G16RevA.03 25-Dec-2016

 -------------
 #p 6-31g* mp2
 -------------

 ------------------------------------------------------
 Input file generated by CHIRIPA (05-May-2021 14:57:23)
 ------------------------------------------------------
 Symbolic Z-matrix:
 Charge =  0 Multiplicity = 1

                         Standard orientation:
 ---------------------------------------------------------------------
 Center     Atomic      Atomic             Coordinates (Angstroms)
 Number     Number       Type             X           Y           Z
 ---------------------------------------------------------------------
      1          6           0        2.096510   -0.378682    0.232611
      2          6           0        2.918001   -1.492492    0.029875
      3          6           0        4.299015   -1.337735   -0.123092
      4          6           0        4.827328   -0.048897   -0.067662
      5          6           0        4.035137    1.080471    0.132966
      6          6           0        2.656712    0.901987    0.283420
      7          1           0        1.024711   -0.508117    0.350463
      8          1           0        2.485699   -2.488267   -0.010029
      9          1           0        4.958175   -2.182669   -0.281245
     10          1           0        4.495149    2.060561    0.168059
     11          1           0        2.021163    1.768804    0.440741
     12          7           0        6.287975    0.127497   -0.228271
     13          8           0        6.728876    1.273558   -0.175482
     14          8           0        6.964272   -0.883648   -0.403903
     15          6           0       -2.180228    0.578404    0.611174
     16          6           0       -3.031705    1.609853    0.201758
     17          6           0       -4.366859    1.344165   -0.116551
     18          6           0       -4.819234    0.029589   -0.013912
     19          6           0       -3.995501   -1.019605    0.390992
     20          6           0       -2.663991   -0.730724    0.704321
     21          1           0       -1.144463    0.793806    0.856511
     22          1           0       -2.658746    2.627488    0.128510
     23          1           0       -5.047764    2.123675   -0.436163
     24          1           0       -4.396141   -2.024035    0.454424
     25          1           0       -2.004999   -1.533752    1.022002
     26          7           0       -6.230774   -0.263959   -0.348255
     27          8           0       -6.604954   -1.430544   -0.249737
     28          8           0       -6.936231    0.678101   -0.702501
 ---------------------------------------------------------------------

 SCF Done:  E(RHF) =  -868.335993881     A.U. after   16 cycles
 E2 =    -0.2599960305D+01 EUMP2 =    -0.87093595418578D+03

 The electronic state is 1-A.
 Alpha  occ. eigenvalues --  -20.61397 -20.61391 -20.61338 -20.61332 -15.86456
 Alpha  occ. eigenvalues --  -15.86397 -11.32004 -11.31924 -11.28597 -11.28563
 Alpha  occ. eigenvalues --  -11.28522 -11.28521 -11.28488 -11.28428 -11.27745
 Alpha  occ. eigenvalues --  -11.27667 -11.27659 -11.27583  -1.60467  -1.60409
 Alpha  occ. eigenvalues --   -1.40015  -1.39958  -1.20209  -1.20129  -1.09608
 Alpha  occ. eigenvalues --   -1.09521  -1.05631  -1.05552  -0.96417  -0.96312
 Alpha  occ. eigenvalues --   -0.87043  -0.86964  -0.83233  -0.83135  -0.78206
 Alpha  occ. eigenvalues --   -0.78138  -0.72673  -0.72615  -0.71791  -0.71733
 Alpha  occ. eigenvalues --   -0.71638  -0.71106  -0.65878  -0.65799  -0.65679
 Alpha  occ. eigenvalues --   -0.65563  -0.62968  -0.62892  -0.56485  -0.55924
 Alpha  occ. eigenvalues --   -0.53951  -0.53872  -0.53741  -0.53664  -0.49447
 Alpha  occ. eigenvalues --   -0.49414  -0.49387  -0.49356  -0.45379  -0.45327
 Alpha  occ. eigenvalues --   -0.38248  -0.38150  -0.37216  -0.37139
 Alpha virt. eigenvalues --    0.04305   0.04402   0.10393   0.10501   0.15667
 Alpha virt. eigenvalues --    0.15830   0.17129   0.22109   0.24771   0.24905
 Alpha virt. eigenvalues --    0.27304   0.29107   0.30137   0.30398   0.32774

 Mulliken charges:
               1
     1  C   -0.172221
     2  C   -0.218031
     3  C   -0.169566
     4  C    0.159303
     5  C   -0.169657
     6  C   -0.218200
     7  H    0.217692
     8  H    0.224737
     9  H    0.278238
    10  H    0.277649
    11  H    0.218249
    12  N    0.487907
    13  O   -0.458743
    14  O   -0.458201
    15  C   -0.173010
    16  C   -0.217358
    17  C   -0.169611
    18  C    0.159591
    19  C   -0.169568
    20  C   -0.218748
    21  H    0.217280
    22  H    0.224868
    23  H    0.278532
    24  H    0.277956
    25  H    0.219452
    26  N    0.487899
    27  O   -0.458484
    28  O   -0.457952
 Sum of Mulliken charges =  -0.00000

 Dipole moment (field-independent basis, Debye):
    X=             -0.2119    Y=              0.4005    Z=              1.6675  Tot=              1.7280
 Quadrupole moment (field-independent basis, Debye-Ang):
   XX=           -200.9048   YY=            -94.8555   ZZ=           -106.4393
   XY=             -9.2734   XZ=             -2.5487   YZ=             -0.5476

 Normal termination of Gaussian 16 at Fri May  7 07:58:05 2021.
