 Gaussian 16, Revision A.03,
 Gaussian 16:  EM64L-G16RevA.03 25-Dec-2016

 -------------
 #p 6-31g* mp2
 -------------

 ------------------------------------------------------
 Input file generated by CHIRIPA (05-May-2021 14:51:09)
 ------------------------------------------------------
 Symbolic Z-matrix:
 Charge =  0 Multiplicity = 1

                         Standard orientation:
 ---------------------------------------------------------------------
 Center     Atomic      Atomic             Coordinates (Angstroms)
 Number     Number       Type             X           Y           Z
 ---------------------------------------------------------------------
      1          6           0       -2.505261   -0.113536    0.489180
      2          6           0       -3.902776    0.482971    0.659817
      3          6           0       -3.920975    1.685615    1.603804
      4          1           0       -2.118282   -0.412014    1.473102
      5          1           0       -1.826830    0.662634    0.108804
      6          1           0       -4.578686   -0.294461    1.038447
      7          1           0       -4.286551    0.779889   -0.324648
      8          1           0       -3.269177    2.480669    1.227439
      9          1           0       -3.562972    1.400214    2.598279
     10          1           0       -4.929734    2.096348    1.711337
     11          6           0       -2.470817   -1.316601   -0.451658
     12          6           0       -1.073302   -1.913108   -0.622295
     13          6           0       -1.055103   -3.115752   -1.566282
     14          1           0       -3.149248   -2.092771   -0.071282
     15          1           0       -2.857796   -1.018123   -1.435580
     16          1           0       -0.689527   -2.210026    0.362170
     17          1           0       -0.397392   -1.135676   -1.000925
     18          1           0       -1.413106   -2.830351   -2.560757
     19          1           0       -1.706901   -3.910805   -1.189917
     20          1           0       -0.046344   -3.526485   -1.673815
     21          6           0        2.453088    1.419600   -0.311757
     22          6           0        1.095847    1.751348   -0.932905
     23          6           0        1.041522    3.164231   -1.514804
     24          1           0        2.677069    2.151231    0.476592
     25          1           0        3.235391    1.533142   -1.074978
     26          1           0        0.316176    1.635874   -0.169102
     27          1           0        0.874984    1.018727   -1.719737
     28          1           0        1.798437    3.288496   -2.295981
     29          1           0        1.236455    3.909148   -0.736538
     30          1           0        0.062442    3.380305   -1.953636
     31          6           0        2.522990    0.010538    0.274235
     32          6           0        3.880231   -0.321211    0.895383
     33          6           0        3.934556   -1.734093    1.477282
     34          1           0        1.740688   -0.103005    1.037456
     35          1           0        2.299008   -0.721095   -0.514113
     36          1           0        4.101095    0.411409    1.682214
     37          1           0        4.659902   -0.205736    0.131581
     38          1           0        3.739624   -2.479012    0.699015
     39          1           0        3.177641   -1.858359    2.258460
     40          1           0        4.913636   -1.950169    1.916114
 ---------------------------------------------------------------------

 SCF Done:  E(RHF) =  -470.732644068     A.U. after   11 cycles
 E2 =    -0.1584563494D+01 EUMP2 =    -0.47231720756195D+03

 The electronic state is 1-A.
 Alpha  occ. eigenvalues --  -11.21646 -11.21597 -11.21582 -11.21472 -11.21416
 Alpha  occ. eigenvalues --  -11.21348 -11.21338 -11.21289 -11.21131 -11.21074
 Alpha  occ. eigenvalues --  -11.21072 -11.21027  -1.08475  -1.08362  -1.03561
 Alpha  occ. eigenvalues --   -1.03487  -0.96007  -0.95942  -0.87022  -0.86960
 Alpha  occ. eigenvalues --   -0.79651  -0.79562  -0.78493  -0.77961  -0.65093
 Alpha  occ. eigenvalues --   -0.65021  -0.61009  -0.60845  -0.59379  -0.59315
 Alpha  occ. eigenvalues --   -0.57675  -0.57500  -0.55296  -0.55231  -0.52724
 Alpha  occ. eigenvalues --   -0.52626  -0.52441  -0.52364  -0.49988  -0.49861
 Alpha  occ. eigenvalues --   -0.48035  -0.47909  -0.46820  -0.46593  -0.46251
 Alpha  occ. eigenvalues --   -0.45708  -0.45602  -0.44985  -0.43802  -0.43728
 Alpha virt. eigenvalues --    0.21309   0.22956   0.23591   0.24033   0.25250
 Alpha virt. eigenvalues --    0.25981   0.26853   0.27721   0.28181   0.29917
 Alpha virt. eigenvalues --    0.30502   0.31496   0.31745   0.31842   0.32119

 Mulliken charges:
               1
     1  C   -0.306426
     2  C   -0.298886
     3  C   -0.475753
     4  H    0.148463
     5  H    0.157990
     6  H    0.151900
     7  H    0.151782
     8  H    0.154695
     9  H    0.154923
    10  H    0.160343
    11  C   -0.297432
    12  C   -0.307308
    13  C   -0.475767
    14  H    0.149087
    15  H    0.148949
    16  H    0.151803
    17  H    0.161546
    18  H    0.154558
    19  H    0.155041
    20  H    0.159454
    21  C   -0.297567
    22  C   -0.308986
    23  C   -0.475342
    24  H    0.149658
    25  H    0.149334
    26  H    0.159199
    27  H    0.152806
    28  H    0.155527
    29  H    0.155510
    30  H    0.159718
    31  C   -0.300243
    32  C   -0.299790
    33  C   -0.475504
    34  H    0.151331
    35  H    0.151412
    36  H    0.151852
    37  H    0.151742
    38  H    0.155099
    39  H    0.155063
    40  H    0.160219
 Sum of Mulliken charges =  -0.00000

 Dipole moment (field-independent basis, Debye):
    X=              0.0347    Y=              0.0280    Z=              0.0023  Tot=              0.0447
 Quadrupole moment (field-independent basis, Debye-Ang):
   XX=            -84.8483   YY=            -86.1305   ZZ=            -84.0139
   XY=              0.3070   XZ=             -0.3974   YZ=             -0.3150

 Normal termination of Gaussian 16 at Wed May  5 16:36:55 2021.
