 Gaussian 16, Revision A.03,
 Gaussian 16:  EM64L-G16RevA.03 25-Dec-2016

 -------------
 #p 6-31g* mp2
 -------------

 ------------------------------------------------------
 Input file generated by CHIRIPA (05-May-2021 14:53:15)
 ------------------------------------------------------
 Symbolic Z-matrix:
 Charge =  0 Multiplicity = 1

                         Standard orientation:
 ---------------------------------------------------------------------
 Center     Atomic      Atomic             Coordinates (Angstroms)
 Number     Number       Type             X           Y           Z
 ---------------------------------------------------------------------
      1          6           0        3.488970   -0.390313    0.319046
      2          6           0        4.804716    0.034214   -0.334079
      3          6           0        5.761566    0.709786    0.648690
      4          1           0        3.003399    0.492035    0.757940
      5          1           0        3.704811   -1.074643    1.151212
      6          1           0        4.586373    0.716452   -1.165639
      7          1           0        5.287118   -0.849216   -0.771636
      8          1           0        6.008467    0.032876    1.472967
      9          1           0        5.303741    1.607440    1.076725
     10          1           0        6.695700    1.005094    0.160789
     11          6           0        2.521947   -1.067168   -0.650728
     12          6           0        1.206200   -1.491695    0.002398
     13          6           0        0.249350   -2.167267   -0.980371
     14          1           0        2.306106   -0.382838   -1.482894
     15          1           0        3.007517   -1.949516   -1.089622
     16          1           0        0.723799   -0.608265    0.439955
     17          1           0        1.424543   -2.173934    0.833958
     18          1           0        0.707175   -3.064921   -1.408407
     19          1           0        0.002449   -1.490357   -1.804649
     20          1           0       -0.684783   -2.462575   -0.492471
     21          6           0       -0.721419    2.458414   -0.259629
     22          6           0       -1.629067    2.098659   -1.261264
     23          6           0       -2.534860    1.053573   -1.056614
     24          6           0       -2.505267    0.386699    0.167189
     25          6           0       -1.613083    0.721616    1.184601
     26          6           0       -0.716334    1.769958    0.957961
     27          1           0       -0.021290    3.271527   -0.427147
     28          1           0       -1.635285    2.631560   -2.207849
     29          1           0       -3.248231    0.754311   -1.814877
     30          1           0       -1.630787    0.171826    2.117787
     31          1           0       -0.012565    2.047174    1.737644
     32          7           0       -3.459403   -0.721410    0.395483
     33          8           0       -3.413152   -1.293252    1.482449
     34          8           0       -4.235441   -0.997123   -0.516869
 ---------------------------------------------------------------------

 SCF Done:  E(RHF) =  -669.534362319     A.U. after   15 cycles
 E2 =    -0.2094713526D+01 EUMP2 =    -0.67162907584448D+03

 The electronic state is 1-A.
 Alpha  occ. eigenvalues --  -20.60852 -20.60847 -15.85904 -11.31286 -11.27867
 Alpha  occ. eigenvalues --  -11.27854 -11.27622 -11.26890 -11.26867 -11.21959
 Alpha  occ. eigenvalues --  -11.21738 -11.21549 -11.21460 -11.21455 -11.20954
 Alpha  occ. eigenvalues --   -1.59927  -1.39479  -1.19486  -1.08868  -1.08648
 Alpha  occ. eigenvalues --   -1.04903  -1.03688  -0.96157  -0.95696  -0.87167
 Alpha  occ. eigenvalues --   -0.86279  -0.82532  -0.79779  -0.78473  -0.77566
 Alpha  occ. eigenvalues --   -0.72121  -0.71257  -0.70580  -0.65313  -0.65130
 Alpha  occ. eigenvalues --   -0.64880  -0.62229  -0.61143  -0.59540  -0.57777
 Alpha  occ. eigenvalues --   -0.55510  -0.55381  -0.53186  -0.52970  -0.52776
 Alpha  occ. eigenvalues --   -0.52572  -0.50115  -0.48884  -0.48875  -0.48080
 Alpha  occ. eigenvalues --   -0.46841  -0.46004  -0.45942  -0.44872  -0.43958
 Alpha  occ. eigenvalues --   -0.37447  -0.36340
 Alpha virt. eigenvalues --    0.04954   0.11059   0.16384   0.20964   0.22736
 Alpha virt. eigenvalues --    0.24036   0.25940   0.26759   0.27418   0.28225
 Alpha virt. eigenvalues --    0.28407   0.30795   0.31291   0.31689   0.31814

 Mulliken charges:
               1
     1  C   -0.296681
     2  C   -0.299481
     3  C   -0.475318
     4  H    0.141212
     5  H    0.151089
     6  H    0.149950
     7  H    0.154190
     8  H    0.156564
     9  H    0.151797
    10  H    0.161186
    11  C   -0.296797
    12  C   -0.308008
    13  C   -0.477934
    14  H    0.146733
    15  H    0.150769
    16  H    0.158209
    17  H    0.151452
    18  H    0.155902
    19  H    0.152963
    20  H    0.164546
    21  C   -0.170039
    22  C   -0.218980
    23  C   -0.170978
    24  C    0.164439
    25  C   -0.173224
    26  C   -0.220069
    27  H    0.226169
    28  H    0.224027
    29  H    0.276336
    30  H    0.277025
    31  H    0.225042
    32  N    0.488132
    33  O   -0.460583
    34  O   -0.459640
 Sum of Mulliken charges =  -0.00000

 Dipole moment (field-independent basis, Debye):
    X=              3.2438    Y=              3.9012    Z=             -0.8063  Tot=              5.1372
 Quadrupole moment (field-independent basis, Debye-Ang):
   XX=           -112.0508   YY=            -91.6823   ZZ=            -91.2628
   XY=             -9.7080   XZ=              4.2106   YZ=             -0.9356

 Normal termination of Gaussian 16 at Wed May  5 15:37:59 2021.
