 Gaussian 16, Revision A.03,
 Gaussian 16:  EM64L-G16RevA.03 25-Dec-2016

 -------------
 #p 6-31g* mp2
 -------------

 ------------------------------------------------------
 Input file generated by CHIRIPA (05-May-2021 14:51:11)
 ------------------------------------------------------
 Symbolic Z-matrix:
 Charge =  0 Multiplicity = 1

                         Standard orientation:
 ---------------------------------------------------------------------
 Center     Atomic      Atomic             Coordinates (Angstroms)
 Number     Number       Type             X           Y           Z
 ---------------------------------------------------------------------
      1          6           0       -2.402876    1.261415   -0.374409
      2          6           0       -1.684203    1.870058    0.830185
      3          6           0       -1.368808    3.354333    0.642437
      4          1           0       -1.781199    1.395172   -1.270273
      5          1           0       -3.334590    1.815220   -0.554972
      6          1           0       -0.754804    1.314395    1.009271
      7          1           0       -2.307578    1.734667    1.723320
      8          1           0       -2.288787    3.926899    0.486211
      9          1           0       -0.727191    3.504240   -0.231895
     10          1           0       -0.855134    3.769152    1.515320
     11          6           0       -2.724957   -0.221888   -0.201773
     12          6           0       -3.443630   -0.830531   -1.406368
     13          6           0       -3.759025   -2.314805   -1.218619
     14          1           0       -1.793242   -0.775693   -0.021210
     15          1           0       -3.346634   -0.355645    0.694091
     16          1           0       -2.820255   -0.695139   -2.299502
     17          1           0       -4.373029   -0.274867   -1.585453
     18          1           0       -4.400642   -2.464712   -0.344287
     19          1           0       -2.839046   -2.887372   -1.062394
     20          1           0       -4.272698   -2.729625   -2.091502
     21          6           0        3.284454   -0.457262    0.042425
     22          6           0        3.409271    0.286894   -1.287476
     23          6           0        4.856774    0.403832   -1.765862
     24          1           0        3.882825    0.062074    0.803469
     25          1           0        3.718344   -1.461057   -0.064943
     26          1           0        2.974026    1.288492   -1.178024
     27          1           0        2.810379   -0.234165   -2.045396
     28          1           0        5.298527   -0.588458   -1.903027
     29          1           0        5.463104    0.942851   -1.030726
     30          1           0        4.922863    0.939201   -2.718161
     31          6           0        1.843379   -0.582266    0.533757
     32          6           0        1.718563   -1.326421    1.863659
     33          6           0        0.271059   -1.443360    2.342044
     34          1           0        1.409488    0.421529    0.641126
     35          1           0        1.245008   -1.101602   -0.227287
     36          1           0        2.317453   -0.805362    2.621578
     37          1           0        2.153806   -2.328019    1.754207
     38          1           0       -0.335272   -1.982379    1.606908
     39          1           0       -0.170695   -0.451069    2.479209
     40          1           0        0.204970   -1.978728    3.294342
 ---------------------------------------------------------------------

 SCF Done:  E(RHF) =  -470.731883233     A.U. after   11 cycles
 E2 =    -0.1585053441D+01 EUMP2 =    -0.47231693667352D+03

 The electronic state is 1-A.
 Alpha  occ. eigenvalues --  -11.21659 -11.21636 -11.21557 -11.21525 -11.21479
 Alpha  occ. eigenvalues --  -11.21416 -11.21334 -11.21254 -11.21112 -11.21067
 Alpha  occ. eigenvalues --  -11.21060 -11.21013  -1.08513  -1.08365  -1.03582
 Alpha  occ. eigenvalues --   -1.03494  -0.96025  -0.95943  -0.87039  -0.86966
 Alpha  occ. eigenvalues --   -0.79707  -0.79546  -0.78461  -0.78036  -0.65184
 Alpha  occ. eigenvalues --   -0.64985  -0.61122  -0.60782  -0.59424  -0.59281
 Alpha  occ. eigenvalues --   -0.57680  -0.57527  -0.55324  -0.55231  -0.52704
 Alpha  occ. eigenvalues --   -0.52676  -0.52466  -0.52352  -0.49998  -0.49885
 Alpha  occ. eigenvalues --   -0.48179  -0.47895  -0.46915  -0.46462  -0.46216
 Alpha  occ. eigenvalues --   -0.45698  -0.45649  -0.44961  -0.43828  -0.43735
 Alpha virt. eigenvalues --    0.20834   0.22998   0.23468   0.23946   0.26156
 Alpha virt. eigenvalues --    0.26530   0.26685   0.27857   0.28199   0.29677
 Alpha virt. eigenvalues --    0.30594   0.31092   0.31793   0.32053   0.32330

 Mulliken charges:
               1
     1  C   -0.296972
     2  C   -0.311474
     3  C   -0.475138
     4  H    0.149352
     5  H    0.149111
     6  H    0.163469
     7  H    0.151483
     8  H    0.155442
     9  H    0.154759
    10  H    0.159381
    11  C   -0.304904
    12  C   -0.299414
    13  C   -0.475486
    14  H    0.157595
    15  H    0.149305
    16  H    0.151478
    17  H    0.151742
    18  H    0.155423
    19  H    0.153972
    20  H    0.160196
    21  C   -0.297562
    22  C   -0.299754
    23  C   -0.475747
    24  H    0.150036
    25  H    0.149865
    26  H    0.151815
    27  H    0.151729
    28  H    0.155328
    29  H    0.155386
    30  H    0.160413
    31  C   -0.305183
    32  C   -0.299873
    33  C   -0.482443
    34  H    0.154717
    35  H    0.149340
    36  H    0.151851
    37  H    0.151917
    38  H    0.157237
    39  H    0.161425
    40  H    0.160184
 Sum of Mulliken charges =  -0.00000

 Dipole moment (field-independent basis, Debye):
    X=              0.0320    Y=             -0.0093    Z=              0.0196  Tot=              0.0387
 Quadrupole moment (field-independent basis, Debye-Ang):
   XX=            -85.0688   YY=            -85.2456   ZZ=            -84.5991
   XY=             -0.5785   XZ=              0.0940   YZ=              0.6108

 Normal termination of Gaussian 16 at Thu May  6 07:03:09 2021.
