 Gaussian 16, Revision A.03,
 Gaussian 16:  EM64L-G16RevA.03 25-Dec-2016

 -------------
 #p 6-31g* mp2
 -------------

 ------------------------------------------------------
 Input file generated by CHIRIPA (05-May-2021 14:51:10)
 ------------------------------------------------------
 Symbolic Z-matrix:
 Charge =  0 Multiplicity = 1

                         Standard orientation:
 ---------------------------------------------------------------------
 Center     Atomic      Atomic             Coordinates (Angstroms)
 Number     Number       Type             X           Y           Z
 ---------------------------------------------------------------------
      1          6           0        4.507869   -0.014804   -0.373731
      2          6           0        5.754395   -0.460921    0.391212
      3          6           0        7.009717   -0.476002   -0.481561
      4          1           0        4.352259   -0.684222   -1.230824
      5          1           0        4.679752    0.988384   -0.787814
      6          1           0        5.579697   -1.462400    0.804898
      7          1           0        5.906946    0.209522    1.246695
      8          1           0        7.211659    0.522234   -0.883237
      9          1           0        6.882551   -1.159188   -1.327544
     10          1           0        7.888915   -0.797866    0.085250
     11          6           0        3.244810    0.005413    0.485339
     12          6           0        1.998284    0.451530   -0.279604
     13          6           0        0.742961    0.466612    0.593169
     14          1           0        3.072927   -0.997775    0.899423
     15          1           0        3.400419    0.674832    1.342432
     16          1           0        1.845732   -0.218913   -1.135086
     17          1           0        2.172981    1.453010   -0.693290
     18          1           0        0.870127    1.149797    1.439152
     19          1           0        0.541019   -0.531625    0.994846
     20          1           0       -0.136237    0.788476    0.026358
     21          6           0       -4.321286   -0.592674   -0.224929
     22          6           0       -3.726207   -1.933427    0.206633
     23          6           0       -4.627976   -3.118948   -0.138545
     24          1           0       -5.300852   -0.462033    0.254998
     25          1           0       -4.504109   -0.612277   -1.308251
     26          1           0       -3.543277   -1.910803    1.288595
     27          1           0       -2.747859   -2.060806   -0.274227
     28          1           0       -4.801012   -3.169761   -1.218396
     29          1           0       -5.600950   -3.018906    0.353305
     30          1           0       -4.183332   -4.067340    0.178792
     31          6           0       -3.431392    0.602065    0.113321
     32          6           0       -4.026471    1.942818   -0.318242
     33          6           0       -3.124702    3.128338    0.026936
     34          1           0       -3.248570    0.621667    1.196643
     35          1           0       -2.451827    0.471423   -0.366606
     36          1           0       -5.004819    2.070196    0.162618
     37          1           0       -4.209402    1.920194   -1.400203
     38          1           0       -2.151729    3.028296   -0.464914
     39          1           0       -2.951666    3.179151    1.106787
     40          1           0       -3.569346    4.076730   -0.290400
 ---------------------------------------------------------------------

 SCF Done:  E(RHF) =  -470.733155034     A.U. after   11 cycles
 E2 =    -0.1582688693D+01 EUMP2 =    -0.47231584372715D+03

 The electronic state is 1-A.
 Alpha  occ. eigenvalues --  -11.21596 -11.21587 -11.21583 -11.21578 -11.21396
 Alpha  occ. eigenvalues --  -11.21371 -11.21336 -11.21306 -11.21067 -11.21061
 Alpha  occ. eigenvalues --  -11.21058 -11.21008  -1.08426  -1.08402  -1.03526
 Alpha  occ. eigenvalues --   -1.03502  -0.95979  -0.95945  -0.87005  -0.86954
 Alpha  occ. eigenvalues --   -0.79618  -0.79540  -0.78254  -0.78197  -0.65059
 Alpha  occ. eigenvalues --   -0.65041  -0.60921  -0.60909  -0.59435  -0.59243
 Alpha  occ. eigenvalues --   -0.57615  -0.57536  -0.55274  -0.55224  -0.52756
 Alpha  occ. eigenvalues --   -0.52630  -0.52409  -0.52328  -0.49922  -0.49882
 Alpha  occ. eigenvalues --   -0.47969  -0.47829  -0.46616  -0.46600  -0.45780
 Alpha  occ. eigenvalues --   -0.45768  -0.45698  -0.45675  -0.43772  -0.43676
 Alpha virt. eigenvalues --    0.21527   0.23084   0.23611   0.24637   0.26171
 Alpha virt. eigenvalues --    0.26653   0.26941   0.27527   0.27941   0.29194
 Alpha virt. eigenvalues --    0.30408   0.31324   0.31816   0.31874   0.32123

 Mulliken charges:
               1
     1  C   -0.298203
     2  C   -0.299626
     3  C   -0.475693
     4  H    0.149521
     5  H    0.149498
     6  H    0.151912
     7  H    0.151959
     8  H    0.155176
     9  H    0.155136
    10  H    0.160239
    11  C   -0.298505
    12  C   -0.299332
    13  C   -0.481814
    14  H    0.149507
    15  H    0.149717
    16  H    0.151307
    17  H    0.151660
    18  H    0.155320
    19  H    0.155309
    20  H    0.166456
    21  C   -0.297766
    22  C   -0.299707
    23  C   -0.475687
    24  H    0.149548
    25  H    0.149158
    26  H    0.152081
    27  H    0.152059
    28  H    0.155072
    29  H    0.155168
    30  H    0.160089
    31  C   -0.303666
    32  C   -0.299566
    33  C   -0.476591
    34  H    0.150199
    35  H    0.155251
    36  H    0.151908
    37  H    0.151529
    38  H    0.155561
    39  H    0.155627
    40  H    0.160187
 Sum of Mulliken charges =  -0.00000

 Dipole moment (field-independent basis, Debye):
    X=             -0.0094    Y=              0.0048    Z=              0.0140  Tot=              0.0176
 Quadrupole moment (field-independent basis, Debye-Ang):
   XX=            -85.9206   YY=            -84.7712   ZZ=            -84.1702
   XY=             -0.3171   XZ=             -0.0045   YZ=              0.1449

 Normal termination of Gaussian 16 at Wed May  5 23:03:25 2021.
