 Gaussian 16, Revision A.03,
 Gaussian 16:  EM64L-G16RevA.03 25-Dec-2016

 -------------
 #p 6-31g* mp2
 -------------

 ------------------------------------------------------
 Input file generated by CHIRIPA (05-May-2021 14:57:23)
 ------------------------------------------------------
 Symbolic Z-matrix:
 Charge =  0 Multiplicity = 1

                         Standard orientation:
 ---------------------------------------------------------------------
 Center     Atomic      Atomic             Coordinates (Angstroms)
 Number     Number       Type             X           Y           Z
 ---------------------------------------------------------------------
      1          6           0       -1.567514   -1.089334    0.955357
      2          6           0       -2.617708   -1.956012    0.635228
      3          6           0       -3.828662   -1.454767    0.148512
      4          6           0       -3.955554   -0.075213   -0.006471
      5          6           0       -2.927694    0.813956    0.303644
      6          6           0       -1.725580    0.290451    0.788838
      7          1           0       -0.630249   -1.487359    1.332859
      8          1           0       -2.497782   -3.028018    0.763539
      9          1           0       -4.657989   -2.103063   -0.107121
     10          1           0       -3.077058    1.877869    0.165090
     11          1           0       -0.911694    0.965899    1.036637
     12          7           0       -5.232857    0.467215   -0.520930
     13          8           0       -5.319477    1.686585   -0.648481
     14          8           0       -6.123202   -0.337272   -0.786869
     15          6           0        4.510001   -2.207962   -0.467743
     16          6           0        5.394531   -1.144370   -0.674868
     17          6           0        4.981546    0.174254   -0.462217
     18          6           0        3.671085    0.393984   -0.040670
     19          6           0        2.766288   -0.644473    0.174363
     20          6           0        3.201010   -1.955064   -0.044534
     21          1           0        4.839261   -3.229179   -0.635362
     22          1           0        6.411692   -1.337792   -1.003529
     23          1           0        5.645568    1.016379   -0.614917
     24          1           0        1.758452   -0.420242    0.502091
     25          1           0        2.511897   -2.779099    0.117125
     26          7           0        3.222370    1.785699    0.187761
     27          8           0        2.062685    1.952757    0.559058
     28          8           0        4.038847    2.683117   -0.008816
 ---------------------------------------------------------------------

 SCF Done:  E(RHF) =  -868.338152472     A.U. after   16 cycles
 E2 =    -0.2599990200D+01 EUMP2 =    -0.87093814267201D+03

 The electronic state is 1-A.
 Alpha  occ. eigenvalues --  -20.61716 -20.61669 -20.60642 -20.60628 -15.86744
 Alpha  occ. eigenvalues --  -15.85687 -11.32035 -11.31094 -11.28695 -11.28532
 Alpha  occ. eigenvalues --  -11.28283 -11.27674 -11.27639 -11.27547 -11.27523
 Alpha  occ. eigenvalues --  -11.27514 -11.26793 -11.26536  -1.60750  -1.59711
 Alpha  occ. eigenvalues --   -1.40314  -1.39263  -1.20191  -1.19259  -1.09587
 Alpha  occ. eigenvalues --   -1.08684  -1.05599  -1.04635  -0.96444  -0.95514
 Alpha  occ. eigenvalues --   -0.86995  -0.86051  -0.83295  -0.82312  -0.78366
 Alpha  occ. eigenvalues --   -0.77323  -0.72973  -0.72059  -0.71907  -0.71321
 Alpha  occ. eigenvalues --   -0.71032  -0.70454  -0.65854  -0.65611  -0.64916
 Alpha  occ. eigenvalues --   -0.64613  -0.62965  -0.61943  -0.56079  -0.55265
 Alpha  occ. eigenvalues --   -0.53905  -0.53697  -0.52995  -0.52704  -0.49730
 Alpha  occ. eigenvalues --   -0.49687  -0.48667  -0.48658  -0.45732  -0.44658
 Alpha  occ. eigenvalues --   -0.38138  -0.37314  -0.37182  -0.36218
 Alpha virt. eigenvalues --    0.04201   0.05146   0.10469   0.11362   0.15717
 Alpha virt. eigenvalues --    0.16563   0.18380   0.22099   0.25034   0.26373
 Alpha virt. eigenvalues --    0.27769   0.29429   0.30537   0.31290   0.31903

 Mulliken charges:
               1
     1  C   -0.176179
     2  C   -0.217552
     3  C   -0.172122
     4  C    0.159433
     5  C   -0.171608
     6  C   -0.225821
     7  H    0.214353
     8  H    0.219991
     9  H    0.274827
    10  H    0.279736
    11  H    0.246165
    12  N    0.487846
    13  O   -0.458346
    14  O   -0.461424
    15  C   -0.169730
    16  C   -0.218215
    17  C   -0.169235
    18  C    0.159420
    19  C   -0.172002
    20  C   -0.218399
    21  H    0.228261
    22  H    0.226693
    23  H    0.278100
    24  H    0.269212
    25  H    0.220412
    26  N    0.492093
    27  O   -0.471672
    28  O   -0.454238
 Sum of Mulliken charges =  -0.00000

 Dipole moment (field-independent basis, Debye):
    X=              6.3602    Y=             -6.6128    Z=              0.9111  Tot=              9.2202
 Quadrupole moment (field-independent basis, Debye-Ang):
   XX=           -123.0214   YY=           -103.9873   ZZ=           -106.1418
   XY=             -7.0064   XZ=            -11.8220   YZ=             -0.2237

 Normal termination of Gaussian 16 at Thu May  6 14:35:48 2021.
