 Gaussian 16, Revision A.03,
 Gaussian 16:  EM64L-G16RevA.03 25-Dec-2016

 -------------
 #p 6-31g* mp2
 -------------

 ------------------------------------------------------
 Input file generated by CHIRIPA (05-May-2021 14:55:21)
 ------------------------------------------------------
 Symbolic Z-matrix:
 Charge =  0 Multiplicity = 1

                         Standard orientation:
 ---------------------------------------------------------------------
 Center     Atomic      Atomic             Coordinates (Angstroms)
 Number     Number       Type             X           Y           Z
 ---------------------------------------------------------------------
      1          6           0        3.464311    1.489365    0.046368
      2          6           0        2.438871    1.365536    0.989586
      3          6           0        1.663608    0.203553    1.047111
      4          6           0        1.942427   -0.819525    0.142201
      5          6           0        2.957163   -0.726125   -0.809049
      6          6           0        3.719734    0.444980   -0.848362
      7          1           0        4.061625    2.395565    0.008755
      8          1           0        2.238256    2.175004    1.685690
      9          1           0        0.863627    0.081241    1.767172
     10          1           0        3.133430   -1.550066   -1.489835
     11          1           0        4.515463    0.538375   -1.581941
     12          7           0        1.128409   -2.054493    0.193461
     13          8           0        1.394072   -2.941453   -0.614847
     14          8           0        0.240131   -2.112117    1.040975
     15          6           0       -2.728993    0.059008   -0.386356
     16          6           0       -3.950318   -0.635179    0.217348
     17          6           0       -4.078658   -2.093922   -0.222413
     18          1           0       -2.791052    0.008973   -1.482070
     19          1           0       -1.823116   -0.492585   -0.099080
     20          1           0       -4.853505   -0.081648   -0.069835
     21          1           0       -3.885441   -0.583317    1.311751
     22          1           0       -3.194886   -2.666026    0.078000
     23          1           0       -4.168451   -2.161506   -1.311435
     24          1           0       -4.958371   -2.570931    0.220787
     25          6           0       -2.587069    1.517920    0.043948
     26          6           0       -1.365745    2.212106   -0.559756
     27          6           0       -1.237406    3.670850   -0.119996
     28          1           0       -3.492947    2.069512   -0.243328
     29          1           0       -2.525011    1.567954    1.139662
     30          1           0       -1.430622    2.160246   -1.654160
     31          1           0       -0.462558    1.658576   -0.272573
     32          1           0       -1.147612    3.738433    0.969027
     33          1           0       -2.121177    4.242953   -0.420409
     34          1           0       -0.357691    4.147859   -0.563196
 ---------------------------------------------------------------------

 SCF Done:  E(RHF) =  -669.535992534     A.U. after   15 cycles
 E2 =    -0.2094000078D+01 EUMP2 =    -0.67162999261210D+03

 The electronic state is 1-A.
 Alpha  occ. eigenvalues --  -20.61061 -20.61056 -15.86064 -11.31358 -11.27920
 Alpha  occ. eigenvalues --  -11.27909 -11.27639 -11.26915 -11.26903 -11.21478
 Alpha  occ. eigenvalues --  -11.21263 -11.21099 -11.20876 -11.20677 -11.20091
 Alpha  occ. eigenvalues --   -1.60104  -1.39663  -1.19532  -1.08931  -1.08013
 Alpha  occ. eigenvalues --   -1.04927  -1.03109  -0.95782  -0.95566  -0.86584
 Alpha  occ. eigenvalues --   -0.86317  -0.82618  -0.79228  -0.77811  -0.77628
 Alpha  occ. eigenvalues --   -0.72294  -0.71409  -0.70634  -0.65184  -0.64925
 Alpha  occ. eigenvalues --   -0.64649  -0.62265  -0.60521  -0.59009  -0.57158
 Alpha  occ. eigenvalues --   -0.55417  -0.54859  -0.53281  -0.53003  -0.52287
 Alpha  occ. eigenvalues --   -0.51976  -0.49517  -0.49048  -0.49040  -0.47517
 Alpha  occ. eigenvalues --   -0.46271  -0.45641  -0.45299  -0.44573  -0.43352
 Alpha  occ. eigenvalues --   -0.37492  -0.36443
 Alpha virt. eigenvalues --    0.04808   0.11067   0.16245   0.20790   0.23201
 Alpha virt. eigenvalues --    0.24694   0.26539   0.27391   0.27848   0.28283
 Alpha virt. eigenvalues --    0.28678   0.31021   0.31824   0.31920   0.32530

 Mulliken charges:
               1
     1  C   -0.170437
     2  C   -0.216317
     3  C   -0.174100
     4  C    0.160577
     5  C   -0.170524
     6  C   -0.218190
     7  H    0.226572
     8  H    0.225382
     9  H    0.276581
    10  H    0.276102
    11  H    0.224202
    12  N    0.488269
    13  O   -0.457195
    14  O   -0.459647
    15  C   -0.307380
    16  C   -0.297137
    17  C   -0.480249
    18  H    0.146996
    19  H    0.163013
    20  H    0.147156
    21  H    0.151315
    22  H    0.171945
    23  H    0.151840
    24  H    0.156458
    25  C   -0.297188
    26  C   -0.306471
    27  C   -0.474526
    28  H    0.148379
    29  H    0.145394
    30  H    0.152305
    31  H    0.154356
    32  H    0.149419
    33  H    0.157329
    34  H    0.155771
 Sum of Mulliken charges =  -0.00000

 Dipole moment (field-independent basis, Debye):
    X=              3.1125    Y=              4.1159    Z=             -0.1737  Tot=              5.1632
 Quadrupole moment (field-independent basis, Debye-Ang):
   XX=            -82.7840   YY=           -102.9796   ZZ=            -91.7297
   XY=              4.9859   XZ=             -1.9922   YZ=              1.9335

 Normal termination of Gaussian 16 at Thu May  6 06:11:31 2021.
