 Gaussian 16, Revision A.03,
 Gaussian 16:  EM64L-G16RevA.03 25-Dec-2016

 -------------
 #p 6-31g* mp2
 -------------

 ------------------------------------------------------
 Input file generated by CHIRIPA (05-May-2021 14:53:15)
 ------------------------------------------------------
 Symbolic Z-matrix:
 Charge =  0 Multiplicity = 1

                         Standard orientation:
 ---------------------------------------------------------------------
 Center     Atomic      Atomic             Coordinates (Angstroms)
 Number     Number       Type             X           Y           Z
 ---------------------------------------------------------------------
      1          6           0        2.382767    0.762503   -0.185426
      2          6           0        2.930833    2.044884    0.441557
      3          6           0        2.002320    3.243400    0.243517
      4          1           0        2.219004    0.927803   -1.259113
      5          1           0        1.398685    0.541079    0.250405
      6          1           0        3.914204    2.263069    0.005676
      7          1           0        3.093490    1.876454    1.513840
      8          1           0        1.023327    3.050883    0.694196
      9          1           0        1.848704    3.439695   -0.822537
     10          1           0        2.413463    4.149429    0.699512
     11          6           0        3.299809   -0.444477    0.004202
     12          6           0        2.751743   -1.726858   -0.622781
     13          6           0        3.680256   -2.925373   -0.424741
     14          1           0        4.283891   -0.223053   -0.431629
     15          1           0        3.463572   -0.609777    1.077889
     16          1           0        2.589085   -1.558427   -1.695063
     17          1           0        1.768372   -1.945043   -0.186900
     18          1           0        3.833872   -3.121669    0.641313
     19          1           0        4.659248   -2.732857   -0.875419
     20          1           0        3.269113   -3.831403   -0.880736
     21          6           0       -2.260790   -2.582741    0.636438
     22          6           0       -2.743126   -2.140760   -0.599898
     23          6           0       -2.725282   -0.780914   -0.924010
     24          6           0       -2.215789    0.113451    0.016106
     25          6           0       -1.728056   -0.295945    1.256187
     26          6           0       -1.755685   -1.660549    1.558908
     27          1           0       -2.278452   -3.640951    0.879908
     28          1           0       -3.135974   -2.854686   -1.318245
     29          1           0       -3.092365   -0.411428   -1.873826
     30          1           0       -1.342532    0.439549    1.951771
     31          1           0       -1.380434   -2.000934    2.519829
     32          7           0       -2.191719    1.555578   -0.315694
     33          8           0       -1.737718    2.323407    0.529857
     34          8           0       -2.627311    1.890781   -1.415029
 ---------------------------------------------------------------------

 SCF Done:  E(RHF) =  -669.536420647     A.U. after   15 cycles
 E2 =    -0.2092588645D+01 EUMP2 =    -0.67162900929233D+03

 The electronic state is 1-A.
 Alpha  occ. eigenvalues --  -20.60947 -20.60940 -15.85972 -11.31320 -11.27898
 Alpha  occ. eigenvalues --  -11.27864 -11.27620 -11.26909 -11.26879 -11.21620
 Alpha  occ. eigenvalues --  -11.21270 -11.21200 -11.21089 -11.21029 -11.20015
 Alpha  occ. eigenvalues --   -1.59997  -1.39555  -1.19486  -1.08883  -1.08193
 Alpha  occ. eigenvalues --   -1.04887  -1.03208  -0.95726  -0.95630  -0.86643
 Alpha  occ. eigenvalues --   -0.86283  -0.82558  -0.79299  -0.77980  -0.77602
 Alpha  occ. eigenvalues --   -0.72199  -0.71305  -0.70591  -0.65145  -0.64895
 Alpha  occ. eigenvalues --   -0.64828  -0.62234  -0.60607  -0.59075  -0.57236
 Alpha  occ. eigenvalues --   -0.55386  -0.54917  -0.53215  -0.52977  -0.52324
 Alpha  occ. eigenvalues --   -0.52034  -0.49574  -0.48960  -0.48945  -0.47593
 Alpha  occ. eigenvalues --   -0.46366  -0.45593  -0.45470  -0.44752  -0.43480
 Alpha  occ. eigenvalues --   -0.37448  -0.36471
 Alpha virt. eigenvalues --    0.04883   0.11085   0.16353   0.21163   0.22958
 Alpha virt. eigenvalues --    0.24510   0.26401   0.27303   0.27553   0.28114
 Alpha virt. eigenvalues --    0.28668   0.30650   0.31645   0.31894   0.32239

 Mulliken charges:
               1
     1  C   -0.299240
     2  C   -0.299480
     3  C   -0.484534
     4  H    0.151118
     5  H    0.146067
     6  H    0.149377
     7  H    0.147301
     8  H    0.176376
     9  H    0.155826
    10  H    0.156338
    11  C   -0.297448
    12  C   -0.300121
    13  C   -0.475218
    14  H    0.150066
    15  H    0.146610
    16  H    0.152547
    17  H    0.149672
    18  H    0.153217
    19  H    0.156510
    20  H    0.157568
    21  C   -0.170661
    22  C   -0.217988
    23  C   -0.170449
    24  C    0.159931
    25  C   -0.171280
    26  C   -0.219002
    27  H    0.226369
    28  H    0.224108
    29  H    0.276043
    30  H    0.275579
    31  H    0.224194
    32  N    0.489591
    33  O   -0.460649
    34  O   -0.458339
 Sum of Mulliken charges =  -0.00000

 Dipole moment (field-independent basis, Debye):
    X=             -0.3261    Y=             -5.0141    Z=              1.1249  Tot=              5.1491
 Quadrupole moment (field-independent basis, Debye-Ang):
   XX=            -94.7559   YY=            -97.1473   ZZ=            -90.0931
   XY=             12.5046   XZ=             -1.0261   YZ=              0.8527

 Normal termination of Gaussian 16 at Thu May  6 05:51:51 2021.
