 Gaussian 16, Revision A.03,
 Gaussian 16:  EM64L-G16RevA.03 25-Dec-2016

 -------------
 #p 6-31g* mp2
 -------------

 ------------------------------------------------------
 Input file generated by CHIRIPA (05-May-2021 14:55:19)
 ------------------------------------------------------
 Symbolic Z-matrix:
 Charge =  0 Multiplicity = 1

                         Standard orientation:
 ---------------------------------------------------------------------
 Center     Atomic      Atomic             Coordinates (Angstroms)
 Number     Number       Type             X           Y           Z
 ---------------------------------------------------------------------
      1          6           0       -1.232948    1.386803    0.518170
      2          6           0       -1.679847    0.479485    1.484387
      3          6           0       -2.810882   -0.308032    1.249600
      4          6           0       -3.473910   -0.161783    0.032105
      5          6           0       -3.053308    0.733295   -0.950351
      6          6           0       -1.919894    1.510595   -0.693978
      7          1           0       -0.353409    1.994597    0.708942
      8          1           0       -1.148335    0.381228    2.426663
      9          1           0       -3.178610   -1.018307    1.980151
     10          1           0       -3.603994    0.808912   -1.880106
     11          1           0       -1.575107    2.214407   -1.446185
     12          7           0       -4.672546   -0.990083   -0.227879
     13          8           0       -5.239073   -0.842384   -1.308559
     14          8           0       -5.022813   -1.771320    0.653948
     15          6           0        4.618951   -0.507583    0.237388
     16          6           0        4.899479   -1.705210   -0.670896
     17          6           0        5.751258   -2.776900    0.010095
     18          1           0        5.573037   -0.069111    0.560505
     19          1           0        4.111570   -0.857164    1.147198
     20          1           0        5.404940   -1.353291   -1.579344
     21          1           0        3.944611   -2.140767   -0.992042
     22          1           0        5.249438   -3.155897    0.906276
     23          1           0        6.718064   -2.363948    0.315637
     24          1           0        5.939667   -3.623839   -0.657030
     25          6           0        3.768534    0.572272   -0.429269
     26          6           0        3.488005    1.769898    0.479015
     27          6           0        2.636227    2.841588   -0.201976
     28          1           0        4.275912    0.921853   -1.339079
     29          1           0        2.814446    0.133798   -0.752386
     30          1           0        4.442872    2.205454    0.800161
     31          1           0        2.982544    1.417979    1.387463
     32          1           0        1.669419    2.428636   -0.507517
     33          1           0        3.138045    3.220585   -1.098156
     34          1           0        2.447817    3.688528    0.465149
 ---------------------------------------------------------------------

 SCF Done:  E(RHF) =  -669.535533147     A.U. after   15 cycles
 E2 =    -0.2091067639D+01 EUMP2 =    -0.67162660078535D+03

 The electronic state is 1-A.
 Alpha  occ. eigenvalues --  -20.60760 -20.60755 -15.85814 -11.31182 -11.27752
 Alpha  occ. eigenvalues --  -11.27748 -11.27450 -11.26764 -11.26753 -11.22580
 Alpha  occ. eigenvalues --  -11.22285 -11.22132 -11.22066 -11.21964 -11.21447
 Alpha  occ. eigenvalues --   -1.59836  -1.39389  -1.19353  -1.09146  -1.08744
 Alpha  occ. eigenvalues --   -1.04757  -1.04276  -0.96737  -0.95579  -0.87756
 Alpha  occ. eigenvalues --   -0.86152  -0.82414  -0.80348  -0.78910  -0.77462
 Alpha  occ. eigenvalues --   -0.72031  -0.71159  -0.70480  -0.65780  -0.65003
 Alpha  occ. eigenvalues --   -0.64761  -0.62105  -0.61687  -0.60122  -0.58318
 Alpha  occ. eigenvalues --   -0.56167  -0.55129  -0.53432  -0.53159  -0.53069
 Alpha  occ. eigenvalues --   -0.52846  -0.50670  -0.48791  -0.48786  -0.48651
 Alpha  occ. eigenvalues --   -0.47378  -0.46460  -0.46359  -0.44794  -0.44504
 Alpha  occ. eigenvalues --   -0.37326  -0.36364
 Alpha virt. eigenvalues --    0.05055   0.11270   0.16476   0.19702   0.22596
 Alpha virt. eigenvalues --    0.23804   0.25781   0.26147   0.26943   0.27474
 Alpha virt. eigenvalues --    0.29104   0.30709   0.30909   0.31102   0.31670

 Mulliken charges:
               1
     1  C   -0.176100
     2  C   -0.219637
     3  C   -0.170864
     4  C    0.158362
     5  C   -0.170844
     6  C   -0.220553
     7  H    0.233919
     8  H    0.223363
     9  H    0.275484
    10  H    0.275637
    11  H    0.223874
    12  N    0.488067
    13  O   -0.460414
    14  O   -0.460474
    15  C   -0.298533
    16  C   -0.300397
    17  C   -0.476074
    18  H    0.150862
    19  H    0.148981
    20  H    0.152834
    21  H    0.153291
    22  H    0.155514
    23  H    0.155628
    24  H    0.162205
    25  C   -0.299350
    26  C   -0.299691
    27  C   -0.481246
    28  H    0.151667
    29  H    0.150473
    30  H    0.156569
    31  H    0.147986
    32  H    0.146961
    33  H    0.161740
    34  H    0.160760
 Sum of Mulliken charges =  -0.00000

 Dipole moment (field-independent basis, Debye):
    X=              4.4219    Y=              2.8881    Z=              0.8811  Tot=              5.3545
 Quadrupole moment (field-independent basis, Debye-Ang):
   XX=           -123.6810   YY=            -95.8632   ZZ=            -90.8023
   XY=            -10.1824   XZ=             -3.1578   YZ=             -2.1865

 Normal termination of Gaussian 16 at Wed May  5 22:06:46 2021.
