 Gaussian 16, Revision A.03,
 Gaussian 16:  EM64L-G16RevA.03 25-Dec-2016

 -------------
 #p 6-31g* mp2
 -------------

 ------------------------------------------------------
 Input file generated by CHIRIPA (05-May-2021 14:53:17)
 ------------------------------------------------------
 Symbolic Z-matrix:
 Charge =  0 Multiplicity = 1

                         Standard orientation:
 ---------------------------------------------------------------------
 Center     Atomic      Atomic             Coordinates (Angstroms)
 Number     Number       Type             X           Y           Z
 ---------------------------------------------------------------------
      1          6           0        3.559271   -0.684516   -0.034197
      2          6           0        4.794447   -1.217688    0.692474
      3          6           0        4.686050   -2.705188    1.029207
      4          1           0        2.671674   -0.856928    0.589816
      5          1           0        3.408709   -1.260463   -0.957783
      6          1           0        4.943435   -0.639997    1.613718
      7          1           0        5.679231   -1.043814    0.066742
      8          1           0        4.560788   -3.298403    0.117612
      9          1           0        3.820811   -2.892292    1.673378
     10          1           0        5.579696   -3.065461    1.548302
     11          6           0        3.652631    0.801112   -0.377594
     12          6           0        2.417455    1.334285   -1.104265
     13          6           0        2.525852    2.821785   -1.440999
     14          1           0        3.803193    1.377060    0.545992
     15          1           0        4.540228    0.973525   -1.001607
     16          1           0        1.532671    1.160410   -0.478533
     17          1           0        2.268467    0.756594   -2.025510
     18          1           0        3.391091    3.008888   -2.085169
     19          1           0        2.651114    3.415000   -0.529403
     20          1           0        1.632206    3.182058   -1.960093
     21          6           0       -3.932195   -1.649298   -1.436196
     22          6           0       -4.613575   -1.208988   -0.296735
     23          6           0       -4.005562   -0.320418    0.595067
     24          6           0       -2.709351    0.109499    0.315253
     25          6           0       -2.004453   -0.311060   -0.811486
     26          6           0       -2.632101   -1.199722   -1.689487
     27          1           0       -4.412141   -2.339596   -2.123609
     28          1           0       -5.623328   -1.556470   -0.097487
     29          1           0       -4.510104    0.036455    1.484729
     30          1           0       -0.998754    0.052875   -0.983350
     31          1           0       -2.100525   -1.539995   -2.573617
     32          7           0       -2.055282    1.050236    1.252060
     33          8           0       -0.912581    1.414179    0.982954
     34          8           0       -2.697707    1.405831    2.237696
 ---------------------------------------------------------------------

 SCF Done:  E(RHF) =  -669.536234656     A.U. after   15 cycles
 E2 =    -0.2091394735D+01 EUMP2 =    -0.67162762939071D+03

 The electronic state is 1-A.
 Alpha  occ. eigenvalues --  -20.60912 -20.60900 -15.85952 -11.31248 -11.27816
 Alpha  occ. eigenvalues --  -11.27795 -11.27553 -11.26821 -11.26806 -11.21303
 Alpha  occ. eigenvalues --  -11.21041 -11.21019 -11.20890 -11.20857 -11.20488
 Alpha  occ. eigenvalues --   -1.59976  -1.39533  -1.19419  -1.08828  -1.08012
 Alpha  occ. eigenvalues --   -1.04812  -1.03107  -0.95675  -0.95564  -0.86585
 Alpha  occ. eigenvalues --   -0.86214  -0.82510  -0.79197  -0.77873  -0.77528
 Alpha  occ. eigenvalues --   -0.72181  -0.71291  -0.70529  -0.65082  -0.64821
 Alpha  occ. eigenvalues --   -0.64613  -0.62162  -0.60478  -0.58948  -0.57184
 Alpha  occ. eigenvalues --   -0.55320  -0.54842  -0.53147  -0.52906  -0.52265
 Alpha  occ. eigenvalues --   -0.52000  -0.49508  -0.48949  -0.48921  -0.47501
 Alpha  occ. eigenvalues --   -0.46187  -0.45383  -0.45256  -0.44937  -0.43369
 Alpha  occ. eigenvalues --   -0.37401  -0.36413
 Alpha virt. eigenvalues --    0.04966   0.11239   0.16469   0.20919   0.23260
 Alpha virt. eigenvalues --    0.24332   0.26014   0.27136   0.27644   0.28401
 Alpha virt. eigenvalues --    0.29121   0.30588   0.31604   0.31865   0.32408

 Mulliken charges:
               1
     1  C   -0.299250
     2  C   -0.299373
     3  C   -0.475604
     4  H    0.153024
     5  H    0.144038
     6  H    0.154058
     7  H    0.150800
     8  H    0.152709
     9  H    0.155640
    10  H    0.159717
    11  C   -0.296592
    12  C   -0.316853
    13  C   -0.472900
    14  H    0.153879
    15  H    0.146794
    16  H    0.177950
    17  H    0.140509
    18  H    0.150712
    19  H    0.160698
    20  H    0.158277
    21  C   -0.170315
    22  C   -0.218846
    23  C   -0.170575
    24  C    0.156557
    25  C   -0.172117
    26  C   -0.220248
    27  H    0.225860
    28  H    0.223625
    29  H    0.275600
    30  H    0.281508
    31  H    0.224302
    32  N    0.493736
    33  O   -0.467973
    34  O   -0.459346
 Sum of Mulliken charges =  -0.00000

 Dipole moment (field-independent basis, Debye):
    X=             -2.4449    Y=             -3.2429    Z=             -3.1516  Tot=              5.1406
 Quadrupole moment (field-independent basis, Debye-Ang):
   XX=            -79.2701   YY=            -97.3784   ZZ=            -95.2213
   XY=              9.1669   XZ=              5.6818   YZ=             -0.5656

 Normal termination of Gaussian 16 at Thu May  6 05:58:40 2021.
