 Gaussian 16, Revision A.03,
 Gaussian 16:  EM64L-G16RevA.03 25-Dec-2016

 -------------
 #p 6-31g* mp2
 -------------

 ------------------------------------------------------
 Input file generated by CHIRIPA (05-May-2021 14:55:19)
 ------------------------------------------------------
 Symbolic Z-matrix:
 Charge =  0 Multiplicity = 1

                         Standard orientation:
 ---------------------------------------------------------------------
 Center     Atomic      Atomic             Coordinates (Angstroms)
 Number     Number       Type             X           Y           Z
 ---------------------------------------------------------------------
      1          6           0       -1.011604    2.224871    0.458768
      2          6           0       -0.946395    1.017623    1.162205
      3          6           0       -1.928416    0.038505    0.984692
      4          6           0       -2.966252    0.301078    0.091809
      5          6           0       -3.058906    1.493912   -0.623630
      6          6           0       -2.065793    2.458749   -0.430336
      7          1           0       -0.244438    2.979926    0.602794
      8          1           0       -0.128852    0.833257    1.853347
      9          1           0       -1.902361   -0.904908    1.516398
     10          1           0       -3.886035    1.648896   -1.305727
     11          1           0       -2.118996    3.395391   -0.977983
     12          7           0       -4.011745   -0.727912   -0.104469
     13          8           0       -4.915813   -0.472270   -0.896899
     14          8           0       -3.907338   -1.770592    0.537835
     15          6           0        3.974319    0.033304   -0.303080
     16          6           0        5.434099   -0.050816    0.144077
     17          6           0        6.217443    1.228658   -0.151079
     18          1           0        3.939129    0.246225   -1.380285
     19          1           0        3.492575    0.883453    0.199478
     20          1           0        5.912575   -0.901391   -0.358120
     21          1           0        5.465819   -0.263751    1.220305
     22          1           0        5.766261    2.083746    0.362594
     23          1           0        6.215554    1.442483   -1.224799
     24          1           0        7.258455    1.146675    0.176687
     25          6           0        3.178173   -1.238213   -0.014764
     26          6           0        1.718393   -1.154093   -0.461919
     27          6           0        0.935050   -2.433566   -0.166764
     28          1           0        3.659917   -2.088361   -0.517321
     29          1           0        3.213363   -1.451133    1.062442
     30          1           0        1.686673   -0.941158   -1.538148
     31          1           0        1.239918   -0.303518    0.040277
     32          1           0        0.936938   -2.647392    0.906956
     33          1           0        1.386232   -3.288654   -0.680437
     34          1           0       -0.105963   -2.351583   -0.494530
 ---------------------------------------------------------------------

 SCF Done:  E(RHF) =  -669.534740391     A.U. after   15 cycles
 E2 =    -0.2093145947D+01 EUMP2 =    -0.67162788633734D+03

 The electronic state is 1-A.
 Alpha  occ. eigenvalues --  -20.60806 -20.60801 -15.85859 -11.31242 -11.27804
 Alpha  occ. eigenvalues --  -11.27800 -11.27556 -11.26831 -11.26820 -11.22043
 Alpha  occ. eigenvalues --  -11.21902 -11.21883 -11.21775 -11.21507 -11.21325
 Alpha  occ. eigenvalues --   -1.59881  -1.39434  -1.19422  -1.08875  -1.08804
 Alpha  occ. eigenvalues --   -1.04838  -1.03912  -0.96371  -0.95640  -0.87384
 Alpha  occ. eigenvalues --   -0.86227  -0.82477  -0.79980  -0.78686  -0.77518
 Alpha  occ. eigenvalues --   -0.72076  -0.71206  -0.70518  -0.65551  -0.65072
 Alpha  occ. eigenvalues --   -0.64821  -0.62222  -0.61298  -0.59734  -0.57986
 Alpha  occ. eigenvalues --   -0.55692  -0.55314  -0.53224  -0.52991  -0.52909
 Alpha  occ. eigenvalues --   -0.52754  -0.50319  -0.48839  -0.48830  -0.48289
 Alpha  occ. eigenvalues --   -0.47030  -0.46216  -0.46166  -0.44835  -0.44174
 Alpha  occ. eigenvalues --   -0.37371  -0.36350
 Alpha virt. eigenvalues --    0.05006   0.11095   0.16450   0.20302   0.22792
 Alpha virt. eigenvalues --    0.23880   0.25884   0.26646   0.27097   0.28412
 Alpha virt. eigenvalues --    0.28817   0.30352   0.31224   0.31555   0.31834

 Mulliken charges:
               1
     1  C   -0.170773
     2  C   -0.217798
     3  C   -0.169122
     4  C    0.157492
     5  C   -0.170707
     6  C   -0.218181
     7  H    0.226038
     8  H    0.224080
     9  H    0.277204
    10  H    0.275821
    11  H    0.223791
    12  N    0.488127
    13  O   -0.460159
    14  O   -0.460250
    15  C   -0.296454
    16  C   -0.299788
    17  C   -0.475626
    18  H    0.151178
    19  H    0.142003
    20  H    0.154135
    21  H    0.151665
    22  H    0.152912
    23  H    0.155918
    24  H    0.161844
    25  C   -0.298166
    26  C   -0.304835
    27  C   -0.478625
    28  H    0.152103
    29  H    0.146962
    30  H    0.153749
    31  H    0.150376
    32  H    0.150177
    33  H    0.158749
    34  H    0.166162
 Sum of Mulliken charges =  -0.00000

 Dipole moment (field-independent basis, Debye):
    X=              3.6521    Y=              3.6063    Z=              0.6299  Tot=              5.1711
 Quadrupole moment (field-independent basis, Debye-Ang):
   XX=           -116.4417   YY=            -91.6825   ZZ=            -92.1035
   XY=            -12.0963   XZ=             -0.2578   YZ=             -1.1592

 Normal termination of Gaussian 16 at Thu May  6 09:13:40 2021.
