 Gaussian 16, Revision A.03,
 Gaussian 16:  EM64L-G16RevA.03 25-Dec-2016

 -------------
 #p 6-31g* mp2
 -------------

 ------------------------------------------------------
 Input file generated by CHIRIPA (05-May-2021 14:55:23)
 ------------------------------------------------------
 Symbolic Z-matrix:
 Charge =  0 Multiplicity = 1

                         Standard orientation:
 ---------------------------------------------------------------------
 Center     Atomic      Atomic             Coordinates (Angstroms)
 Number     Number       Type             X           Y           Z
 ---------------------------------------------------------------------
      1          6           0        3.177007    2.649943    0.511708
      2          6           0        4.266773    1.818750    0.232336
      3          6           0        4.068772    0.473319   -0.091943
      4          6           0        2.761677   -0.009906   -0.127817
      5          6           0        1.655418    0.793056    0.145555
      6          6           0        1.877099    2.135350    0.467504
      7          1           0        3.340017    3.693888    0.762710
      8          1           0        5.277406    2.215664    0.265910
      9          1           0        4.894345   -0.192378   -0.312612
     10          1           0        0.659629    0.368666    0.104127
     11          1           0        1.028876    2.778537    0.684008
     12          7           0        2.539527   -1.432594   -0.469883
     13          8           0        1.378131   -1.834062   -0.494768
     14          8           0        3.531009   -2.119289   -0.706633
     15          6           0       -3.478821   -0.975519    0.406698
     16          6           0       -2.053751   -1.507130    0.250016
     17          6           0       -1.863400   -2.884560    0.885822
     18          1           0       -3.729308   -0.925514    1.475202
     19          1           0       -4.180878   -1.689463   -0.045847
     20          1           0       -1.354479   -0.791730    0.701498
     21          1           0       -1.806559   -1.555694   -0.818232
     22          1           0       -2.537959   -3.616117    0.429320
     23          1           0       -2.083310   -2.847811    1.957685
     24          1           0       -0.837604   -3.245532    0.762135
     25          6           0       -3.684801    0.400620   -0.223810
     26          6           0       -5.109871    0.932231   -0.067128
     27          6           0       -5.300221    2.309660   -0.702934
     28          1           0       -2.982745    1.114563    0.228734
     29          1           0       -3.434314    0.350615   -1.292315
     30          1           0       -5.357063    0.980795    1.001120
     31          1           0       -5.809144    0.216830   -0.518611
     32          1           0       -5.080312    2.272912   -1.774797
     33          1           0       -4.625662    3.041218   -0.246431
     34          1           0       -6.326018    2.670633   -0.579246
 ---------------------------------------------------------------------

 SCF Done:  E(RHF) =  -669.535693513     A.U. after   15 cycles
 E2 =    -0.2092404232D+01 EUMP2 =    -0.67162809774566D+03

 The electronic state is 1-A.
 Alpha  occ. eigenvalues --  -20.60881 -20.60870 -15.85915 -11.31219 -11.27793
 Alpha  occ. eigenvalues --  -11.27748 -11.27531 -11.26798 -11.26782 -11.21605
 Alpha  occ. eigenvalues --  -11.21367 -11.21160 -11.21077 -11.21015 -11.20087
 Alpha  occ. eigenvalues --   -1.59945  -1.39500  -1.19392  -1.08802  -1.08215
 Alpha  occ. eigenvalues --   -1.04787  -1.03191  -0.95699  -0.95579  -0.86660
 Alpha  occ. eigenvalues --   -0.86188  -0.82480  -0.79319  -0.78070  -0.77467
 Alpha  occ. eigenvalues --   -0.72147  -0.71259  -0.70508  -0.65050  -0.64907
 Alpha  occ. eigenvalues --   -0.64755  -0.62153  -0.60597  -0.59024  -0.57177
 Alpha  occ. eigenvalues --   -0.55300  -0.54957  -0.53122  -0.52894  -0.52266
 Alpha  occ. eigenvalues --   -0.52048  -0.49619  -0.48926  -0.48883  -0.47570
 Alpha  occ. eigenvalues --   -0.46382  -0.45535  -0.45463  -0.44891  -0.43436
 Alpha  occ. eigenvalues --   -0.37376  -0.36387
 Alpha virt. eigenvalues --    0.04970   0.11252   0.16464   0.20644   0.23071
 Alpha virt. eigenvalues --    0.24377   0.25531   0.27127   0.27682   0.28445
 Alpha virt. eigenvalues --    0.29521   0.30419   0.31502   0.31850   0.32655

 Mulliken charges:
               1
     1  C   -0.170209
     2  C   -0.219141
     3  C   -0.169792
     4  C    0.154484
     5  C   -0.176993
     6  C   -0.222324
     7  H    0.225759
     8  H    0.223519
     9  H    0.275597
    10  H    0.290418
    11  H    0.223992
    12  N    0.491890
    13  O   -0.465583
    14  O   -0.459431
    15  C   -0.298368
    16  C   -0.296570
    17  C   -0.482468
    18  H    0.147421
    19  H    0.150603
    20  H    0.141306
    21  H    0.159691
    22  H    0.151749
    23  H    0.147646
    24  H    0.184664
    25  C   -0.296554
    26  C   -0.299135
    27  C   -0.475275
    28  H    0.139566
    29  H    0.150505
    30  H    0.151620
    31  H    0.153662
    32  H    0.155499
    33  H    0.151704
    34  H    0.160548
 Sum of Mulliken charges =  -0.00000

 Dipole moment (field-independent basis, Debye):
    X=              0.9296    Y=              4.8397    Z=              1.1194  Tot=              5.0537
 Quadrupole moment (field-independent basis, Debye-Ang):
   XX=            -85.8963   YY=            -95.8555   ZZ=            -95.4206
   XY=             13.8375   XZ=              3.0829   YZ=              0.3986

 Normal termination of Gaussian 16 at Thu May  6 04:42:13 2021.
