 Gaussian 16, Revision A.03,
 Gaussian 16:  EM64L-G16RevA.03 25-Dec-2016

 -------------
 #p 6-31g* mp2
 -------------

 ------------------------------------------------------
 Input file generated by CHIRIPA (05-May-2021 14:51:10)
 ------------------------------------------------------
 Symbolic Z-matrix:
 Charge =  0 Multiplicity = 1

                         Standard orientation:
 ---------------------------------------------------------------------
 Center     Atomic      Atomic             Coordinates (Angstroms)
 Number     Number       Type             X           Y           Z
 ---------------------------------------------------------------------
      1          6           0       -2.361614    1.234840   -0.363023
      2          6           0       -1.941902    2.448736    0.466605
      3          6           0       -0.980713    3.372623   -0.281956
      4          1           0       -1.465086    0.672445   -0.657801
      5          1           0       -2.833570    1.580587   -1.293137
      6          1           0       -1.472125    2.100799    1.395510
      7          1           0       -2.839547    3.008200    0.759603
      8          1           0       -1.443747    3.747784   -1.200354
      9          1           0       -0.068554    2.835227   -0.560834
     10          1           0       -0.693623    4.233764    0.329498
     11          6           0       -3.322473    0.301791    0.371755
     12          6           0       -3.742186   -0.912105   -0.457873
     13          6           0       -4.703374   -1.835992    0.290688
     14          1           0       -2.850518   -0.043956    1.301869
     15          1           0       -4.219002    0.864186    0.666533
     16          1           0       -2.844540   -1.471569   -0.750871
     17          1           0       -4.211963   -0.564168   -1.386778
     18          1           0       -5.615533   -1.298595    0.569566
     19          1           0       -4.240341   -2.211152    1.209086
     20          1           0       -4.990464   -2.697133   -0.320766
     21          6           0        2.079806   -0.753046   -0.051190
     22          6           0        1.443187   -2.143138   -0.032620
     23          6           0       -0.082155   -2.096083   -0.127000
     24          1           0        1.677510   -0.161323    0.782457
     25          1           0        1.784421   -0.234413   -0.973775
     26          1           0        1.740807   -2.659516    0.889005
     27          1           0        1.847188   -2.731684   -0.866294
     28          1           0       -0.395815   -1.604505   -1.053590
     29          1           0       -0.502801   -1.531928    0.711682
     30          1           0       -0.516493   -3.100567   -0.112024
     31          6           0        3.604281   -0.783586    0.042458
     32          6           0        4.240900    0.606506    0.023888
     33          6           0        5.766244    0.559452    0.118268
     34          1           0        3.899666   -1.302219    0.965043
     35          1           0        4.006576   -1.375309   -0.791189
     36          1           0        3.836899    1.195053    0.857562
     37          1           0        3.943281    1.122885   -0.897737
     38          1           0        6.186888   -0.004704   -0.720414
     39          1           0        6.079902    0.067874    1.044858
     40          1           0        6.200580    1.563936    0.103292
 ---------------------------------------------------------------------

 SCF Done:  E(RHF) =  -470.732389626     A.U. after   11 cycles
 E2 =    -0.1584480512D+01 EUMP2 =    -0.47231687013782D+03

 The electronic state is 1-A.
 Alpha  occ. eigenvalues --  -11.21703 -11.21651 -11.21527 -11.21505 -11.21433
 Alpha  occ. eigenvalues --  -11.21402 -11.21281 -11.21211 -11.21202 -11.21107
 Alpha  occ. eigenvalues --  -11.21007 -11.20962  -1.08527  -1.08313  -1.03625
 Alpha  occ. eigenvalues --   -1.03418  -0.96086  -0.95875  -0.87118  -0.86888
 Alpha  occ. eigenvalues --   -0.79731  -0.79474  -0.78373  -0.78086  -0.65149
 Alpha  occ. eigenvalues --   -0.64973  -0.61017  -0.60842  -0.59445  -0.59246
 Alpha  occ. eigenvalues --   -0.57711  -0.57469  -0.55383  -0.55160  -0.52792
 Alpha  occ. eigenvalues --   -0.52626  -0.52447  -0.52299  -0.50043  -0.49812
 Alpha  occ. eigenvalues --   -0.48086  -0.47799  -0.46766  -0.46502  -0.46086
 Alpha  occ. eigenvalues --   -0.45814  -0.45629  -0.45187  -0.43857  -0.43671
 Alpha virt. eigenvalues --    0.20638   0.22745   0.23812   0.24356   0.25491
 Alpha virt. eigenvalues --    0.26219   0.27069   0.27548   0.28230   0.30176
 Alpha virt. eigenvalues --    0.30889   0.31100   0.31649   0.31903   0.31916

 Mulliken charges:
               1
     1  C   -0.304401
     2  C   -0.298829
     3  C   -0.476390
     4  H    0.156455
     5  H    0.148577
     6  H    0.150691
     7  H    0.151614
     8  H    0.154825
     9  H    0.156046
    10  H    0.159814
    11  C   -0.297870
    12  C   -0.308156
    13  C   -0.475197
    14  H    0.148356
    15  H    0.149274
    16  H    0.164266
    17  H    0.150569
    18  H    0.154524
    19  H    0.154647
    20  H    0.159507
    21  C   -0.299763
    22  C   -0.300675
    23  C   -0.480927
    24  H    0.149764
    25  H    0.149783
    26  H    0.152280
    27  H    0.152486
    28  H    0.157793
    29  H    0.158374
    30  H    0.161228
    31  C   -0.298277
    32  C   -0.299836
    33  C   -0.475776
    34  H    0.149848
    35  H    0.149987
    36  H    0.152185
    37  H    0.152108
    38  H    0.155274
    39  H    0.155246
    40  H    0.160576
 Sum of Mulliken charges =  -0.00000

 Dipole moment (field-independent basis, Debye):
    X=              0.0865    Y=             -0.0565    Z=             -0.0188  Tot=              0.1051
 Quadrupole moment (field-independent basis, Debye-Ang):
   XX=            -86.1159   YY=            -85.1501   ZZ=            -83.7809
   XY=             -1.0671   XZ=              0.4751   YZ=              0.1749

 Normal termination of Gaussian 16 at Wed May  5 23:00:57 2021.
