 Gaussian 16, Revision A.03,
 Gaussian 16:  EM64L-G16RevA.03 25-Dec-2016

 -------------
 #p 6-31g* mp2
 -------------

 ------------------------------------------------------
 Input file generated by CHIRIPA (05-May-2021 14:51:08)
 ------------------------------------------------------
 Symbolic Z-matrix:
 Charge =  0 Multiplicity = 1

                         Standard orientation:
 ---------------------------------------------------------------------
 Center     Atomic      Atomic             Coordinates (Angstroms)
 Number     Number       Type             X           Y           Z
 ---------------------------------------------------------------------
      1          6           0        2.704397    1.087843    0.369575
      2          6           0        2.225712    2.284038   -0.453811
      3          6           0        1.109246    3.068088    0.236526
      4          1           0        1.853258    0.421353    0.565273
      5          1           0        3.055333    1.442378    1.348627
      6          1           0        1.877071    1.927509   -1.431539
      7          1           0        3.078128    2.947662   -0.647734
      8          1           0        1.449112    3.451387    1.204087
      9          1           0        0.241230    2.425438    0.415829
     10          1           0        0.782155    3.918770   -0.369454
     11          6           0        3.820376    0.294077   -0.307369
     12          6           0        4.299061   -0.902118    0.516016
     13          6           0        5.415527   -1.686168   -0.174321
     14          1           0        3.469440   -0.060458   -1.286422
     15          1           0        4.671515    0.960567   -0.503068
     16          1           0        3.446645   -1.565742    0.709939
     17          1           0        4.647702   -0.545589    1.493744
     18          1           0        6.283543   -1.043518   -0.353624
     19          1           0        5.075661   -2.069467   -1.141882
     20          1           0        5.742618   -2.536850    0.431659
     21          6           0       -4.010604   -0.687763    0.122499
     22          6           0       -4.689796    0.644054   -0.198356
     23          6           0       -6.186443    0.634821    0.114302
     24          1           0       -4.500801   -1.488788   -0.447600
     25          1           0       -4.162693   -0.922309    1.185161
     26          1           0       -4.535290    0.876695   -1.259779
     27          1           0       -4.197801    1.442028    0.372427
     28          1           0       -6.356998    0.427467    1.175677
     29          1           0       -6.696404   -0.141078   -0.465803
     30          1           0       -6.651998    1.596599   -0.122558
     31          6           0       -2.514169   -0.694157   -0.184703
     32          6           0       -1.834977   -2.025974    0.136150
     33          6           0       -0.338329   -2.016741   -0.176508
     34          1           0       -2.362080   -0.459611   -1.247366
     35          1           0       -2.023972    0.106867    0.385395
     36          1           0       -2.326973   -2.823948   -0.434633
     37          1           0       -1.989483   -2.258615    1.197575
     38          1           0        0.171631   -1.240842    0.403598
     39          1           0       -0.167776   -1.809387   -1.237883
     40          1           0        0.127224   -2.978519    0.060353
 ---------------------------------------------------------------------

 SCF Done:  E(RHF) =  -470.733383725     A.U. after   11 cycles
 E2 =    -0.1583111846D+01 EUMP2 =    -0.47231649557141D+03

 The electronic state is 1-A.
 Alpha  occ. eigenvalues --  -11.21675 -11.21623 -11.21564 -11.21539 -11.21464
 Alpha  occ. eigenvalues --  -11.21398 -11.21346 -11.21286 -11.21164 -11.21086
 Alpha  occ. eigenvalues --  -11.21057 -11.21023  -1.08484  -1.08379  -1.03583
 Alpha  occ. eigenvalues --   -1.03484  -0.96042  -0.95933  -0.87059  -0.86950
 Alpha  occ. eigenvalues --   -0.79655  -0.79543  -0.78312  -0.78180  -0.65154
 Alpha  occ. eigenvalues --   -0.64982  -0.60995  -0.60867  -0.59404  -0.59301
 Alpha  occ. eigenvalues --   -0.57677  -0.57527  -0.55413  -0.55152  -0.52729
 Alpha  occ. eigenvalues --   -0.52634  -0.52510  -0.52319  -0.50060  -0.49808
 Alpha  occ. eigenvalues --   -0.48023  -0.47846  -0.46769  -0.46555  -0.45959
 Alpha  occ. eigenvalues --   -0.45776  -0.45700  -0.45392  -0.43837  -0.43737
 Alpha virt. eigenvalues --    0.20422   0.22868   0.23791   0.24611   0.25431
 Alpha virt. eigenvalues --    0.26170   0.26933   0.27343   0.28514   0.29410
 Alpha virt. eigenvalues --    0.30668   0.31573   0.31675   0.31825   0.31976

 Mulliken charges:
               1
     1  C   -0.306277
     2  C   -0.298993
     3  C   -0.476890
     4  H    0.157174
     5  H    0.149067
     6  H    0.152200
     7  H    0.151810
     8  H    0.154944
     9  H    0.155482
    10  H    0.160357
    11  C   -0.297515
    12  C   -0.300854
    13  C   -0.475674
    14  H    0.149850
    15  H    0.149318
    16  H    0.153591
    17  H    0.151456
    18  H    0.154941
    19  H    0.155289
    20  H    0.160005
    21  C   -0.298349
    22  C   -0.299785
    23  C   -0.475756
    24  H    0.149863
    25  H    0.149742
    26  H    0.152007
    27  H    0.152293
    28  H    0.155260
    29  H    0.155163
    30  H    0.160438
    31  C   -0.299713
    32  C   -0.299337
    33  C   -0.482979
    34  H    0.149737
    35  H    0.150206
    36  H    0.152396
    37  H    0.152338
    38  H    0.161196
    39  H    0.155171
    40  H    0.160829
 Sum of Mulliken charges =  -0.00000

 Dipole moment (field-independent basis, Debye):
    X=             -0.0362    Y=             -0.0204    Z=             -0.0060  Tot=              0.0420
 Quadrupole moment (field-independent basis, Debye-Ang):
   XX=            -86.1351   YY=            -84.8110   ZZ=            -83.8346
   XY=              1.1838   XZ=              0.9776   YZ=              0.3034

 Normal termination of Gaussian 16 at Wed May  5 15:05:14 2021.
