 Gaussian 16, Revision A.03,
 Gaussian 16:  EM64L-G16RevA.03 25-Dec-2016

 -------------
 #p 6-31g* mp2
 -------------

 ------------------------------------------------------
 Input file generated by CHIRIPA (05-May-2021 14:51:13)
 ------------------------------------------------------
 Symbolic Z-matrix:
 Charge =  0 Multiplicity = 1

                         Standard orientation:
 ---------------------------------------------------------------------
 Center     Atomic      Atomic             Coordinates (Angstroms)
 Number     Number       Type             X           Y           Z
 ---------------------------------------------------------------------
      1          6           0        3.192690   -0.318039   -0.096449
      2          6           0        4.370093   -1.194262   -0.525330
      3          6           0        4.052331   -2.688123   -0.453230
      4          1           0        2.900912   -0.583226    0.928971
      5          1           0        2.326927   -0.540948   -0.735323
      6          1           0        5.233787   -0.968775    0.113266
      7          1           0        4.659225   -0.926825   -1.549779
      8          1           0        3.206925   -2.933995   -1.103949
      9          1           0        3.784751   -2.976184    0.568545
     10          1           0        4.907739   -3.295987   -0.764096
     11          6           0        3.494950    1.177929   -0.163140
     12          6           0        2.317547    2.054152    0.265741
     13          6           0        2.635309    3.548014    0.193641
     14          1           0        4.360714    1.400839    0.475734
     15          1           0        3.786728    1.443117   -1.188560
     16          1           0        2.028415    1.786715    1.290190
     17          1           0        1.453853    1.828666   -0.372855
     18          1           0        2.902889    3.836074   -0.828134
     19          1           0        3.480716    3.793886    0.844360
     20          1           0        1.779901    4.155877    0.504507
     21          6           0       -4.088606   -0.533480   -0.004393
     22          6           0       -4.825564    0.757692   -0.361820
     23          6           0       -6.314633    0.534306   -0.627462
     24          1           0       -4.212198   -1.257014   -0.821808
     25          1           0       -4.557163   -0.981283    0.882918
     26          1           0       -4.354887    1.203650   -1.247371
     27          1           0       -4.700044    1.478305    0.456457
     28          1           0       -6.804301    0.111384    0.255694
     29          1           0       -6.457182   -0.164832   -1.457815
     30          1           0       -6.822021    1.470292   -0.881128
     31          6           0       -2.599034   -0.326411    0.263982
     32          6           0       -1.862076   -1.617582    0.621409
     33          6           0       -0.373007   -1.394196    0.887051
     34          1           0       -2.130477    0.121392   -0.623329
     35          1           0       -2.475443    0.397124    1.081397
     36          1           0       -1.987596   -2.338196   -0.196868
     37          1           0       -2.332754   -2.063540    1.506960
     38          1           0       -0.230458   -0.695058    1.717404
     39          1           0        0.116661   -0.971275    0.003895
     40          1           0        0.134382   -2.330183    1.140716
 ---------------------------------------------------------------------

 SCF Done:  E(RHF) =  -470.732784061     A.U. after   11 cycles
 E2 =    -0.1583286334D+01 EUMP2 =    -0.47231607039467D+03

 The electronic state is 1-A.
 Alpha  occ. eigenvalues --  -11.21592 -11.21561 -11.21552 -11.21540 -11.21384
 Alpha  occ. eigenvalues --  -11.21343 -11.21324 -11.21265 -11.21064 -11.21044
 Alpha  occ. eigenvalues --  -11.21037 -11.20945  -1.08415  -1.08371  -1.03498
 Alpha  occ. eigenvalues --   -1.03482  -0.95980  -0.95901  -0.87001  -0.86916
 Alpha  occ. eigenvalues --   -0.79611  -0.79526  -0.78298  -0.78085  -0.65084
 Alpha  occ. eigenvalues --   -0.64975  -0.60910  -0.60874  -0.59362  -0.59252
 Alpha  occ. eigenvalues --   -0.57653  -0.57461  -0.55322  -0.55147  -0.52706
 Alpha  occ. eigenvalues --   -0.52617  -0.52455  -0.52237  -0.49975  -0.49816
 Alpha  occ. eigenvalues --   -0.47921  -0.47864  -0.46675  -0.46578  -0.45931
 Alpha  occ. eigenvalues --   -0.45747  -0.45612  -0.45313  -0.43749  -0.43725
 Alpha virt. eigenvalues --    0.21655   0.23101   0.24134   0.24201   0.25280
 Alpha virt. eigenvalues --    0.25967   0.27104   0.27642   0.27890   0.29872
 Alpha virt. eigenvalues --    0.30643   0.31431   0.31677   0.31795   0.32405

 Mulliken charges:
               1
     1  C   -0.301062
     2  C   -0.299338
     3  C   -0.475610
     4  H    0.152839
     5  H    0.152043
     6  H    0.151593
     7  H    0.151370
     8  H    0.155055
     9  H    0.155181
    10  H    0.159985
    11  C   -0.298339
    12  C   -0.299872
    13  C   -0.475728
    14  H    0.149187
    15  H    0.149013
    16  H    0.152393
    17  H    0.152009
    18  H    0.154962
    19  H    0.155076
    20  H    0.160176
    21  C   -0.298188
    22  C   -0.299595
    23  C   -0.475684
    24  H    0.149513
    25  H    0.149548
    26  H    0.151760
    27  H    0.151931
    28  H    0.155185
    29  H    0.155132
    30  H    0.160196
    31  C   -0.297998
    32  C   -0.300672
    33  C   -0.477605
    34  H    0.148754
    35  H    0.149747
    36  H    0.151365
    37  H    0.151384
    38  H    0.154563
    39  H    0.160015
    40  H    0.159715
 Sum of Mulliken charges =  -0.00000

 Dipole moment (field-independent basis, Debye):
    X=              0.0173    Y=             -0.0012    Z=              0.0101  Tot=              0.0201
 Quadrupole moment (field-independent basis, Debye-Ang):
   XX=            -86.0142   YY=            -86.0980   ZZ=            -82.8908
   XY=             -0.1691   XZ=             -0.0640   YZ=              0.1496

 Normal termination of Gaussian 16 at Wed May  5 16:50:36 2021.
