 Gaussian 16, Revision A.03,
 Gaussian 16:  EM64L-G16RevA.03 25-Dec-2016

 -------------
 #p 6-31g* mp2
 -------------

 ------------------------------------------------------
 Input file generated by CHIRIPA (05-May-2021 14:51:08)
 ------------------------------------------------------
 Symbolic Z-matrix:
 Charge =  0 Multiplicity = 1

                         Standard orientation:
 ---------------------------------------------------------------------
 Center     Atomic      Atomic             Coordinates (Angstroms)
 Number     Number       Type             X           Y           Z
 ---------------------------------------------------------------------
      1          6           0       -2.735780   -0.412441   -0.336563
      2          6           0       -1.855285   -1.329764   -1.185816
      3          6           0       -2.488903   -2.700268   -1.426735
      4          1           0       -2.938479   -0.898841    0.627426
      5          1           0       -3.707706   -0.285875   -0.833288
      6          1           0       -0.884813   -1.453450   -0.688322
      7          1           0       -1.654501   -0.841041   -2.147820
      8          1           0       -3.447965   -2.595674   -1.944287
      9          1           0       -2.673904   -3.211563   -0.476497
     10          1           0       -1.842629   -3.339856   -2.035930
     11          6           0       -2.115914    0.961321   -0.087024
     12          6           0       -2.996409    1.878644    0.762229
     13          6           0       -2.362792    3.249148    1.003149
     14          1           0       -1.143988    0.834755    0.409701
     15          1           0       -1.913215    1.447721   -1.051013
     16          1           0       -3.197193    1.389921    1.724233
     17          1           0       -3.966882    2.002331    0.264735
     18          1           0       -2.177791    3.760443    0.052910
     19          1           0       -1.403729    3.144554    1.520700
     20          1           0       -3.009065    3.888736    1.612343
     21          6           0        1.938163   -0.611586    0.693382
     22          6           0        2.082754   -2.133176    0.736313
     23          6           0        1.100339   -2.793270    1.704266
     24          1           0        2.088520   -0.206703    1.703535
     25          1           0        0.909366   -0.356024    0.404143
     26          1           0        3.111352   -2.385792    1.024041
     27          1           0        1.932224   -2.534467   -0.274093
     28          1           0        0.067741   -2.570334    1.416792
     29          1           0        1.253568   -2.420814    2.722302
     30          1           0        1.221052   -3.880958    1.719191
     31          6           0        2.913532    0.062706   -0.269795
     32          6           0        2.768940    1.584295   -0.312726
     33          6           0        3.751355    2.244390   -1.280678
     34          1           0        3.942329   -0.192856    0.019444
     35          1           0        2.763174   -0.342177   -1.279948
     36          1           0        2.919471    1.985587    0.697680
     37          1           0        1.740343    1.836912   -0.600454
     38          1           0        3.598125    1.871934   -2.298716
     39          1           0        4.783953    2.021453   -0.993206
     40          1           0        3.630642    3.332078   -1.295605
 ---------------------------------------------------------------------

 SCF Done:  E(RHF) =  -470.732445377     A.U. after   11 cycles
 E2 =    -0.1585065471D+01 EUMP2 =    -0.47231751084856D+03

 The electronic state is 1-A.
 Alpha  occ. eigenvalues --  -11.21645 -11.21634 -11.21621 -11.21581 -11.21448
 Alpha  occ. eigenvalues --  -11.21395 -11.21385 -11.21335 -11.21118 -11.21116
 Alpha  occ. eigenvalues --  -11.21076 -11.21056  -1.08520  -1.08407  -1.03596
 Alpha  occ. eigenvalues --   -1.03517  -0.96031  -0.95978  -0.87031  -0.87012
 Alpha  occ. eigenvalues --   -0.79658  -0.79589  -0.78489  -0.78093  -0.65443
 Alpha  occ. eigenvalues --   -0.64800  -0.61201  -0.60721  -0.59403  -0.59328
 Alpha  occ. eigenvalues --   -0.57675  -0.57565  -0.55428  -0.55166  -0.52715
 Alpha  occ. eigenvalues --   -0.52683  -0.52454  -0.52404  -0.49977  -0.49930
 Alpha  occ. eigenvalues --   -0.48051  -0.47858  -0.46860  -0.46587  -0.46458
 Alpha  occ. eigenvalues --   -0.45797  -0.45764  -0.44838  -0.43819  -0.43786
 Alpha virt. eigenvalues --    0.19990   0.22726   0.23257   0.24745   0.25386
 Alpha virt. eigenvalues --    0.26572   0.26967   0.27734   0.28303   0.30503
 Alpha virt. eigenvalues --    0.30874   0.31240   0.31715   0.31752   0.32163

 Mulliken charges:
               1
     1  C   -0.298290
     2  C   -0.309888
     3  C   -0.475467
     4  H    0.149626
     5  H    0.150069
     6  H    0.161086
     7  H    0.151823
     8  H    0.155521
     9  H    0.155647
    10  H    0.160287
    11  C   -0.307198
    12  C   -0.298994
    13  C   -0.476094
    14  H    0.157755
    15  H    0.149182
    16  H    0.152176
    17  H    0.151998
    18  H    0.155031
    19  H    0.155954
    20  H    0.160345
    21  C   -0.311722
    22  C   -0.299584
    23  C   -0.478968
    24  H    0.149125
    25  H    0.161549
    26  H    0.152633
    27  H    0.152314
    28  H    0.156904
    29  H    0.155284
    30  H    0.160875
    31  C   -0.297174
    32  C   -0.301354
    33  C   -0.475705
    34  H    0.149473
    35  H    0.149751
    36  H    0.151473
    37  H    0.153967
    38  H    0.155164
    39  H    0.155097
    40  H    0.160327
 Sum of Mulliken charges =  -0.00000

 Dipole moment (field-independent basis, Debye):
    X=             -0.0094    Y=              0.0025    Z=              0.0003  Tot=              0.0097
 Quadrupole moment (field-independent basis, Debye-Ang):
   XX=            -84.6746   YY=            -86.0933   ZZ=            -83.9945
   XY=             -0.8477   XZ=              1.2122   YZ=             -0.0834

 Normal termination of Gaussian 16 at Wed May  5 22:54:49 2021.
