 Gaussian 16, Revision A.03,
 Gaussian 16:  EM64L-G16RevA.03 25-Dec-2016

 -------------
 #p 6-31g* mp2
 -------------

 ------------------------------------------------------
 Input file generated by CHIRIPA (05-May-2021 14:55:20)
 ------------------------------------------------------
 Symbolic Z-matrix:
 Charge =  0 Multiplicity = 1

                         Standard orientation:
 ---------------------------------------------------------------------
 Center     Atomic      Atomic             Coordinates (Angstroms)
 Number     Number       Type             X           Y           Z
 ---------------------------------------------------------------------
      1          6           0        5.861326    1.513068    0.055260
      2          6           0        5.904390    0.277578   -0.599134
      3          6           0        4.766608   -0.532349   -0.662508
      4          6           0        3.597286   -0.073628   -0.057900
      5          6           0        3.522755    1.152351    0.601427
      6          6           0        4.672742    1.945748    0.652399
      7          1           0        6.749924    2.135819    0.099673
      8          1           0        6.826083   -0.061002   -1.063774
      9          1           0        4.772040   -1.493210   -1.162643
     10          1           0        2.589450    1.462936    1.055185
     11          1           0        4.636373    2.904786    1.161289
     12          7           0        2.386306   -0.922312   -0.118427
     13          8           0        1.368387   -0.495442    0.422184
     14          8           0        2.477989   -1.998310   -0.705333
     15          6           0       -4.149024   -0.304616   -0.110802
     16          6           0       -3.557366   -1.288703    0.898900
     17          6           0       -2.134594   -1.719183    0.540848
     18          1           0       -4.143781   -0.765026   -1.108269
     19          1           0       -3.501421    0.580975   -0.171904
     20          1           0       -4.206628   -2.171567    0.959101
     21          1           0       -3.564195   -0.825970    1.894113
     22          1           0       -1.468301   -0.851430    0.500105
     23          1           0       -2.114385   -2.204673   -0.440219
     24          1           0       -1.731017   -2.422585    1.275838
     25          6           0       -5.570961    0.135026    0.233490
     26          6           0       -6.162621    1.119113   -0.776212
     27          6           0       -7.585393    1.549594   -0.418160
     28          1           0       -6.218564   -0.750565    0.294592
     29          1           0       -5.576206    0.595436    1.230957
     30          1           0       -6.155791    0.656380   -1.771424
     31          1           0       -5.513358    2.001978   -0.836413
     32          1           0       -7.605601    2.035084    0.562907
     33          1           0       -8.251685    0.681841   -0.377416
     34          1           0       -7.988969    2.252996   -1.153150
 ---------------------------------------------------------------------

 SCF Done:  E(RHF) =  -669.535778610     A.U. after   15 cycles
 E2 =    -0.2090746080D+01 EUMP2 =    -0.67162652469013D+03

 The electronic state is 1-A.
 Alpha  occ. eigenvalues --  -20.60886 -20.60880 -15.85928 -11.31271 -11.27839
 Alpha  occ. eigenvalues --  -11.27833 -11.27578 -11.26850 -11.26840 -11.21029
 Alpha  occ. eigenvalues --  -11.20659 -11.20611 -11.20437 -11.20356 -11.19241
 Alpha  occ. eigenvalues --   -1.59947  -1.39504  -1.19441  -1.08840  -1.07563
 Alpha  occ. eigenvalues --   -1.04842  -1.02557  -0.95681  -0.94966  -0.86242
 Alpha  occ. eigenvalues --   -0.85969  -0.82514  -0.78653  -0.77563  -0.77327
 Alpha  occ. eigenvalues --   -0.72149  -0.71266  -0.70550  -0.65098  -0.64845
 Alpha  occ. eigenvalues --   -0.64206  -0.62189  -0.59959  -0.58430  -0.56578
 Alpha  occ. eigenvalues --   -0.55345  -0.54253  -0.53172  -0.52934  -0.51643
 Alpha  occ. eigenvalues --   -0.51392  -0.49113  -0.48896  -0.48686  -0.46921
 Alpha  occ. eigenvalues --   -0.45703  -0.44929  -0.44849  -0.44751  -0.42814
 Alpha  occ. eigenvalues --   -0.37422  -0.36444
 Alpha virt. eigenvalues --    0.04970   0.11210   0.16463   0.21341   0.23658
 Alpha virt. eigenvalues --    0.25333   0.27258   0.27474   0.28174   0.28322
 Alpha virt. eigenvalues --    0.29133   0.30904   0.32310   0.32480   0.32616

 Mulliken charges:
               1
     1  C   -0.170685
     2  C   -0.218573
     3  C   -0.170562
     4  C    0.157695
     5  C   -0.170847
     6  C   -0.218511
     7  H    0.225884
     8  H    0.223739
     9  H    0.275881
    10  H    0.275372
    11  H    0.223676
    12  N    0.491523
    13  O   -0.462368
    14  O   -0.458887
    15  C   -0.297057
    16  C   -0.300820
    17  C   -0.476028
    18  H    0.148731
    19  H    0.148735
    20  H    0.146692
    21  H    0.147338
    22  H    0.175083
    23  H    0.152212
    24  H    0.158230
    25  C   -0.297309
    26  C   -0.298866
    27  C   -0.475157
    28  H    0.148204
    29  H    0.147739
    30  H    0.151404
    31  H    0.150608
    32  H    0.154063
    33  H    0.154594
    34  H    0.158270
 Sum of Mulliken charges =  -0.00000

 Dipole moment (field-independent basis, Debye):
    X=              4.6318    Y=              2.9828    Z=              0.1918  Tot=              5.5125
 Quadrupole moment (field-independent basis, Debye-Ang):
   XX=            -65.5983   YY=            -92.8901   ZZ=            -93.9689
   XY=              9.3274   XZ=             -0.6058   YZ=              2.4162

 Normal termination of Gaussian 16 at Thu May  6 01:20:57 2021.
