 Gaussian 16, Revision A.03,
 Gaussian 16:  EM64L-G16RevA.03 25-Dec-2016

 -------------
 #p 6-31g* mp2
 -------------

 ------------------------------------------------------
 Input file generated by CHIRIPA (05-May-2021 14:51:11)
 ------------------------------------------------------
 Symbolic Z-matrix:
 Charge =  0 Multiplicity = 1

                         Standard orientation:
 ---------------------------------------------------------------------
 Center     Atomic      Atomic             Coordinates (Angstroms)
 Number     Number       Type             X           Y           Z
 ---------------------------------------------------------------------
      1          6           0       -2.998225    0.344007   -0.311940
      2          6           0       -2.806268    1.499320   -1.294990
      3          6           0       -1.407631    2.112576   -1.220648
      4          1           0       -2.807807    0.703752    0.708486
      5          1           0       -2.245935   -0.430526   -0.515782
      6          1           0       -3.559576    2.270828   -1.090249
      7          1           0       -2.997352    1.136830   -2.313177
      8          1           0       -0.644716    1.360430   -1.446122
      9          1           0       -1.210134    2.500871   -0.216246
     10          1           0       -1.292253    2.936575   -1.931684
     11          6           0       -4.391484   -0.279418   -0.374380
     12          6           0       -4.583442   -1.434731    0.608671
     13          6           0       -5.982079   -2.047986    0.534328
     14          1           0       -5.143775    0.495116   -0.170537
     15          1           0       -4.581903   -0.639163   -1.394806
     16          1           0       -4.392358   -1.072240    1.626857
     17          1           0       -3.830134   -2.206238    0.403929
     18          1           0       -6.179576   -2.436282   -0.470074
     19          1           0       -6.744994   -1.295840    0.759802
     20          1           0       -6.097457   -2.871986    1.245364
     21          6           0        3.307222    0.624209    0.389806
     22          6           0        2.259759    0.632081    1.503693
     23          6           0        1.492561    1.952190    1.584397
     24          1           0        4.012628    1.450538    0.552678
     25          1           0        2.811930    0.820862   -0.571136
     26          1           0        2.756681    0.434098    2.462070
     27          1           0        1.556876   -0.194480    1.338256
     28          1           0        0.971061    2.152861    0.642924
     29          1           0        2.177683    2.785010    1.773124
     30          1           0        0.748990    1.935954    2.387328
     31          6           0        4.082489   -0.688798    0.296514
     32          6           0        5.129951   -0.696670   -0.817373
     33          6           0        5.897149   -2.016779   -0.898078
     34          1           0        4.577780   -0.885452    1.257456
     35          1           0        3.377082   -1.515127    0.133642
     36          1           0        5.832833    0.129891   -0.651937
     37          1           0        4.633029   -0.498687   -1.775751
     38          1           0        5.212027   -2.849599   -1.086804
     39          1           0        6.418648   -2.217450    0.043395
     40          1           0        6.640720   -2.000544   -1.701008
 ---------------------------------------------------------------------

 SCF Done:  E(RHF) =  -470.732949684     A.U. after   11 cycles
 E2 =    -0.1582683567D+01 EUMP2 =    -0.47231563325186D+03

 The electronic state is 1-A.
 Alpha  occ. eigenvalues --  -11.21633 -11.21618 -11.21582 -11.21531 -11.21428
 Alpha  occ. eigenvalues --  -11.21370 -11.21368 -11.21308 -11.21100 -11.21084
 Alpha  occ. eigenvalues --  -11.21058 -11.20914  -1.08455  -1.08386  -1.03567
 Alpha  occ. eigenvalues --   -1.03469  -0.96038  -0.95903  -0.87080  -0.86901
 Alpha  occ. eigenvalues --   -0.79677  -0.79497  -0.78272  -0.78194  -0.65085
 Alpha  occ. eigenvalues --   -0.65021  -0.60979  -0.60874  -0.59374  -0.59296
 Alpha  occ. eigenvalues --   -0.57692  -0.57493  -0.55381  -0.55156  -0.52717
 Alpha  occ. eigenvalues --   -0.52645  -0.52551  -0.52219  -0.50049  -0.49769
 Alpha  occ. eigenvalues --   -0.48049  -0.47733  -0.46690  -0.46504  -0.45844
 Alpha  occ. eigenvalues --   -0.45732  -0.45714  -0.45594  -0.43811  -0.43738
 Alpha virt. eigenvalues --    0.21792   0.23033   0.23692   0.24952   0.26117
 Alpha virt. eigenvalues --    0.26346   0.27192   0.27509   0.27861   0.29193
 Alpha virt. eigenvalues --    0.30717   0.31000   0.31674   0.31894   0.32240

 Mulliken charges:
               1
     1  C   -0.298231
     2  C   -0.299803
     3  C   -0.480018
     4  H    0.150095
     5  H    0.149031
     6  H    0.152193
     7  H    0.151863
     8  H    0.154389
     9  H    0.160546
    10  H    0.160592
    11  C   -0.298304
    12  C   -0.299650
    13  C   -0.475724
    14  H    0.149641
    15  H    0.149648
    16  H    0.152041
    17  H    0.151834
    18  H    0.155179
    19  H    0.155239
    20  H    0.160315
    21  C   -0.298662
    22  C   -0.299065
    23  C   -0.483318
    24  H    0.149652
    25  H    0.149534
    26  H    0.151430
    27  H    0.151666
    28  H    0.165737
    29  H    0.154206
    30  H    0.158408
    31  C   -0.298226
    32  C   -0.299606
    33  C   -0.475666
    34  H    0.149527
    35  H    0.149340
    36  H    0.151971
    37  H    0.151794
    38  H    0.155042
    39  H    0.155182
    40  H    0.160179
 Sum of Mulliken charges =  -0.00000

 Dipole moment (field-independent basis, Debye):
    X=             -0.0381    Y=              0.0218    Z=             -0.0172  Tot=              0.0471
 Quadrupole moment (field-independent basis, Debye-Ang):
   XX=            -85.5825   YY=            -85.2808   ZZ=            -83.9802
   XY=              0.0459   XZ=              0.3535   YZ=              0.5538

 Normal termination of Gaussian 16 at Thu May  6 03:51:30 2021.
