 Gaussian 16, Revision A.03,
 Gaussian 16:  EM64L-G16RevA.03 25-Dec-2016

 -------------
 #p 6-31g* mp2
 -------------

 ------------------------------------------------------
 Input file generated by CHIRIPA (05-May-2021 14:53:15)
 ------------------------------------------------------
 Symbolic Z-matrix:
 Charge =  0 Multiplicity = 1

                         Standard orientation:
 ---------------------------------------------------------------------
 Center     Atomic      Atomic             Coordinates (Angstroms)
 Number     Number       Type             X           Y           Z
 ---------------------------------------------------------------------
      1          6           0        4.445112    0.126954   -0.205801
      2          6           0        5.945609    0.240038    0.065688
      3          6           0        6.558867    1.510659   -0.523574
      4          1           0        4.272435    0.150189   -1.290508
      5          1           0        3.936837    1.007693    0.210553
      6          1           0        6.450733   -0.641325   -0.349842
      7          1           0        6.114750    0.216338    1.149867
      8          1           0        6.081517    2.400643   -0.100884
      9          1           0        6.419409    1.538107   -1.609115
     10          1           0        7.632103    1.571212   -0.317764
     11          6           0        3.817648   -1.138065    0.377073
     12          6           0        2.317151   -1.251148    0.105584
     13          6           0        1.703894   -2.521770    0.694846
     14          1           0        4.325923   -2.018803   -0.039281
     15          1           0        3.990325   -1.161300    1.461780
     16          1           0        2.148011   -1.227448   -0.978595
     17          1           0        1.812027   -0.369785    0.521114
     18          1           0        1.843351   -2.549218    1.780387
     19          1           0        2.181243   -3.411754    0.272156
     20          1           0        0.630658   -2.582323    0.489036
     21          6           0       -1.399082    2.116915    0.172228
     22          6           0       -2.712734    2.436391    0.531079
     23          6           0       -3.733901    1.490185    0.402794
     24          6           0       -3.404419    0.228493   -0.090022
     25          6           0       -2.105244   -0.120040   -0.456024
     26          6           0       -1.100056    0.841967   -0.319312
     27          1           0       -0.612021    2.858088    0.275156
     28          1           0       -2.947879    3.425741    0.913100
     29          1           0       -4.759400    1.710838    0.673130
     30          1           0       -1.901593   -1.114626   -0.833838
     31          1           0       -0.080750    0.591061   -0.598784
     32          7           0       -4.477025   -0.781576   -0.230292
     33          8           0       -4.160787   -1.886076   -0.666998
     34          8           0       -5.613661   -0.449645    0.099126
 ---------------------------------------------------------------------

 SCF Done:  E(RHF) =  -669.535515028     A.U. after   15 cycles
 E2 =    -0.2091516066D+01 EUMP2 =    -0.67162703109457D+03

 The electronic state is 1-A.
 Alpha  occ. eigenvalues --  -20.60733 -20.60728 -15.85785 -11.31145 -11.27713
 Alpha  occ. eigenvalues --  -11.27700 -11.27443 -11.26732 -11.26649 -11.22558
 Alpha  occ. eigenvalues --  -11.22185 -11.22131 -11.22073 -11.21758 -11.21595
 Alpha  occ. eigenvalues --   -1.59808  -1.39362  -1.19311  -1.09166  -1.08707
 Alpha  occ. eigenvalues --   -1.04714  -1.04232  -0.96644  -0.95546  -0.87658
 Alpha  occ. eigenvalues --   -0.86112  -0.82380  -0.80336  -0.79000  -0.77417
 Alpha  occ. eigenvalues --   -0.72003  -0.71131  -0.70425  -0.65799  -0.64961
 Alpha  occ. eigenvalues --   -0.64716  -0.62113  -0.61601  -0.60008  -0.58270
 Alpha  occ. eigenvalues --   -0.55910  -0.55212  -0.53341  -0.53102  -0.53025
 Alpha  occ. eigenvalues --   -0.52797  -0.50572  -0.48795  -0.48759  -0.48573
 Alpha  occ. eigenvalues --   -0.47354  -0.46505  -0.46437  -0.44769  -0.44482
 Alpha  occ. eigenvalues --   -0.37293  -0.36305
 Alpha virt. eigenvalues --    0.05092   0.11275   0.16536   0.20076   0.22435
 Alpha virt. eigenvalues --    0.23698   0.25650   0.25759   0.26326   0.28426
 Alpha virt. eigenvalues --    0.28736   0.30175   0.30702   0.31381   0.32486

 Mulliken charges:
               1
     1  C   -0.298672
     2  C   -0.300131
     3  C   -0.476035
     4  H    0.149642
     5  H    0.145427
     6  H    0.154049
     7  H    0.153260
     8  H    0.154158
     9  H    0.155702
    10  H    0.162451
    11  C   -0.297458
    12  C   -0.307407
    13  C   -0.475535
    14  H    0.153211
    15  H    0.152422
    16  H    0.149728
    17  H    0.147296
    18  H    0.159253
    19  H    0.159711
    20  H    0.159664
    21  C   -0.172659
    22  C   -0.218289
    23  C   -0.171180
    24  C    0.158981
    25  C   -0.174205
    26  C   -0.223703
    27  H    0.225363
    28  H    0.223130
    29  H    0.275411
    30  H    0.275634
    31  H    0.233829
    32  N    0.488093
    33  O   -0.460566
    34  O   -0.460577
 Sum of Mulliken charges =  -0.00000

 Dipole moment (field-independent basis, Debye):
    X=              3.9773    Y=              3.4696    Z=              0.5385  Tot=              5.3053
 Quadrupole moment (field-independent basis, Debye-Ang):
   XX=           -118.2365   YY=            -91.5546   ZZ=            -94.3544
   XY=            -14.7377   XZ=             -3.2574   YZ=              1.8190

 Normal termination of Gaussian 16 at Thu May  6 09:03:15 2021.
