 Gaussian 16, Revision A.03,
 Gaussian 16:  EM64L-G16RevA.03 25-Dec-2016

 -------------
 #p 6-31g* mp2
 -------------

 ------------------------------------------------------
 Input file generated by CHIRIPA (05-May-2021 14:51:08)
 ------------------------------------------------------
 Symbolic Z-matrix:
 Charge =  0 Multiplicity = 1

                         Standard orientation:
 ---------------------------------------------------------------------
 Center     Atomic      Atomic             Coordinates (Angstroms)
 Number     Number       Type             X           Y           Z
 ---------------------------------------------------------------------
      1          6           0       -1.976939   -0.402708    0.629990
      2          6           0       -2.177925   -1.511377    1.663645
      3          6           0       -0.862732   -2.155957    2.102484
      4          1           0       -1.459455   -0.816561   -0.246298
      5          1           0       -1.313512    0.365507    1.050829
      6          1           0       -2.841886   -2.276594    1.241491
      7          1           0       -2.695161   -1.094880    2.537494
      8          1           0       -0.197614   -1.409238    2.548164
      9          1           0       -0.345173   -2.597666    1.244797
     10          1           0       -1.029690   -2.945758    2.841537
     11          6           0       -3.282613    0.251325    0.181453
     12          6           0       -3.081627    1.359994   -0.852201
     13          6           0       -4.396820    2.004574   -1.291040
     14          1           0       -3.946040   -0.516890   -0.239386
     15          1           0       -3.800097    0.665178    1.057742
     16          1           0       -2.564391    0.943497   -1.726051
     17          1           0       -2.417665    2.125211   -0.430048
     18          1           0       -4.914379    2.446283   -0.433354
     19          1           0       -5.061937    1.257855   -1.736720
     20          1           0       -4.229862    2.794375   -2.030094
     21          6           0        2.339052   -0.249166   -1.032921
     22          6           0        2.185719   -1.765906   -0.914706
     23          6           0        1.602887   -2.401346   -2.177369
     24          1           0        1.358589    0.196267   -1.250243
     25          1           0        2.984378   -0.018712   -1.891896
     26          1           0        1.541996   -1.993479   -0.055376
     27          1           0        3.166626   -2.207762   -0.697450
     28          1           0        2.246583   -2.203473   -3.040563
     29          1           0        0.612721   -1.987972   -2.394841
     30          1           0        1.501852   -3.485942   -2.071047
     31          6           0        2.920500    0.400549    0.221478
     32          6           0        3.073833    1.917289    0.103263
     33          6           0        3.656665    2.552729    1.365925
     34          1           0        2.275174    0.170095    1.080453
     35          1           0        3.900962   -0.044884    0.438800
     36          1           0        2.092925    2.359145   -0.113994
     37          1           0        3.717556    2.144862   -0.756067
     38          1           0        4.646831    2.139355    1.583398
     39          1           0        3.012969    2.354856    2.229119
     40          1           0        3.757700    3.637325    1.259604
 ---------------------------------------------------------------------

 SCF Done:  E(RHF) =  -470.733334657     A.U. after   11 cycles
 E2 =    -0.1583773364D+01 EUMP2 =    -0.47231710802148D+03

 The electronic state is 1-A.
 Alpha  occ. eigenvalues --  -11.21686 -11.21669 -11.21572 -11.21512 -11.21498
 Alpha  occ. eigenvalues --  -11.21431 -11.21349 -11.21286 -11.21152 -11.21117
 Alpha  occ. eigenvalues --  -11.21076 -11.21059  -1.08517  -1.08377  -1.03611
 Alpha  occ. eigenvalues --   -1.03493  -0.96058  -0.95951  -0.87077  -0.86966
 Alpha  occ. eigenvalues --   -0.79696  -0.79538  -0.78332  -0.78188  -0.65177
 Alpha  occ. eigenvalues --   -0.64988  -0.61104  -0.60816  -0.59422  -0.59317
 Alpha  occ. eigenvalues --   -0.57679  -0.57554  -0.55366  -0.55223  -0.52744
 Alpha  occ. eigenvalues --   -0.52658  -0.52501  -0.52368  -0.50062  -0.49849
 Alpha  occ. eigenvalues --   -0.48113  -0.47811  -0.46788  -0.46461  -0.46019
 Alpha  occ. eigenvalues --   -0.45792  -0.45637  -0.45491  -0.43861  -0.43744
 Alpha virt. eigenvalues --    0.19710   0.22984   0.23265   0.24158   0.25754
 Alpha virt. eigenvalues --    0.26077   0.26578   0.28096   0.29043   0.29840
 Alpha virt. eigenvalues --    0.30237   0.31224   0.31707   0.31815   0.32012

 Mulliken charges:
               1
     1  C   -0.301280
     2  C   -0.299624
     3  C   -0.481690
     4  H    0.151715
     5  H    0.149428
     6  H    0.152416
     7  H    0.152359
     8  H    0.155371
     9  H    0.160879
    10  H    0.161142
    11  C   -0.298343
    12  C   -0.299786
    13  C   -0.475745
    14  H    0.149937
    15  H    0.150068
    16  H    0.151760
    17  H    0.151782
    18  H    0.155339
    19  H    0.155393
    20  H    0.160546
    21  C   -0.298784
    22  C   -0.307891
    23  C   -0.476572
    24  H    0.151318
    25  H    0.148981
    26  H    0.160414
    27  H    0.151739
    28  H    0.155557
    29  H    0.154486
    30  H    0.159865
    31  C   -0.299279
    32  C   -0.299756
    33  C   -0.475584
    34  H    0.150502
    35  H    0.149474
    36  H    0.151920
    37  H    0.151900
    38  H    0.155244
    39  H    0.154685
    40  H    0.160116
 Sum of Mulliken charges =  -0.00000

 Dipole moment (field-independent basis, Debye):
    X=             -0.0450    Y=             -0.0125    Z=              0.0228  Tot=              0.0520
 Quadrupole moment (field-independent basis, Debye-Ang):
   XX=            -84.7516   YY=            -84.9670   ZZ=            -84.9753
   XY=              0.1829   XZ=             -0.9971   YZ=              0.2200

 Normal termination of Gaussian 16 at Thu May  6 08:27:10 2021.
