 Gaussian 16, Revision A.03,
 Gaussian 16:  EM64L-G16RevA.03 25-Dec-2016

 -------------
 #p 6-31g* mp2
 -------------

 ------------------------------------------------------
 Input file generated by CHIRIPA (05-May-2021 14:51:09)
 ------------------------------------------------------
 Symbolic Z-matrix:
 Charge =  0 Multiplicity = 1

                         Standard orientation:
 ---------------------------------------------------------------------
 Center     Atomic      Atomic             Coordinates (Angstroms)
 Number     Number       Type             X           Y           Z
 ---------------------------------------------------------------------
      1          6           0        3.200900    0.489460   -0.093005
      2          6           0        3.430829    1.957272   -0.454454
      3          6           0        2.157185    2.797266   -0.354281
      4          1           0        2.431146    0.071400   -0.756067
      5          1           0        2.800078    0.429016    0.928309
      6          1           0        3.832399    2.014848   -1.474278
      7          1           0        4.200262    2.371834    0.209419
      8          1           0        1.756573    2.769595    0.664221
      9          1           0        1.386619    2.410582   -1.029043
     10          1           0        2.344351    3.843138   -0.616924
     11          6           0        4.464913   -0.363123   -0.188405
     12          6           0        4.234984   -1.830935    0.173043
     13          6           0        5.508628   -2.670930    0.072870
     14          1           0        4.865735   -0.302680   -1.209720
     15          1           0        5.234666    0.054937    0.474656
     16          1           0        3.465551   -2.245497   -0.490830
     17          1           0        3.833414   -1.888512    1.192868
     18          1           0        6.279193   -2.284245    0.747633
     19          1           0        5.909240   -2.643259   -0.945632
     20          1           0        5.321462   -3.716802    0.335513
     21          6           0       -4.570218   -0.143631    0.323270
     22          6           0       -5.377961   -0.897070   -0.734021
     23          6           0       -6.851166   -1.050018   -0.354458
     24          1           0       -4.650115   -0.672967    1.282626
     25          1           0       -5.015434    0.849256    0.476090
     26          1           0       -4.930529   -1.887717   -0.885802
     27          1           0       -5.295975   -0.365983   -1.691017
     28          1           0       -7.318854   -0.068964   -0.222544
     29          1           0       -6.951332   -1.599344    0.587247
     30          1           0       -7.409928   -1.591490   -1.124168
     31          6           0       -3.095595    0.017295   -0.041859
     32          6           0       -2.287852    0.770733    1.015432
     33          6           0       -0.814646    0.923681    0.635869
     34          1           0       -2.650378   -0.975592   -0.194679
     35          1           0       -3.015698    0.546631   -1.001216
     36          1           0       -2.369838    0.239647    1.972427
     37          1           0       -2.735284    1.761381    1.167212
     38          1           0       -0.714481    1.473009   -0.305836
     39          1           0       -0.346959   -0.057372    0.503954
     40          1           0       -0.255885    1.465154    1.405578
 ---------------------------------------------------------------------

 SCF Done:  E(RHF) =  -470.732015461     A.U. after   11 cycles
 E2 =    -0.1583425806D+01 EUMP2 =    -0.47231544126700D+03

 The electronic state is 1-A.
 Alpha  occ. eigenvalues --  -11.21585 -11.21576 -11.21521 -11.21518 -11.21376
 Alpha  occ. eigenvalues --  -11.21344 -11.21316 -11.21274 -11.21059 -11.21052
 Alpha  occ. eigenvalues --  -11.20938 -11.20912  -1.08403  -1.08362  -1.03530
 Alpha  occ. eigenvalues --   -1.03427  -0.96005  -0.95852  -0.87063  -0.86838
 Alpha  occ. eigenvalues --   -0.79716  -0.79394  -0.78257  -0.78111  -0.65034
 Alpha  occ. eigenvalues --   -0.65000  -0.60943  -0.60843  -0.59412  -0.59202
 Alpha  occ. eigenvalues --   -0.57572  -0.57536  -0.55313  -0.55132  -0.52809
 Alpha  occ. eigenvalues --   -0.52610  -0.52386  -0.52186  -0.49959  -0.49746
 Alpha  occ. eigenvalues --   -0.47989  -0.47732  -0.46626  -0.46477  -0.45874
 Alpha  occ. eigenvalues --   -0.45683  -0.45649  -0.45534  -0.43736  -0.43669
 Alpha virt. eigenvalues --    0.22071   0.23027   0.23621   0.24785   0.25785
 Alpha virt. eigenvalues --    0.26373   0.26611   0.27601   0.27804   0.29050
 Alpha virt. eigenvalues --    0.29620   0.31015   0.31622   0.32038   0.32494

 Mulliken charges:
               1
     1  C   -0.299088
     2  C   -0.300034
     3  C   -0.476415
     4  H    0.150951
     5  H    0.150376
     6  H    0.151187
     7  H    0.151193
     8  H    0.157077
     9  H    0.157545
    10  H    0.158470
    11  C   -0.298286
    12  C   -0.299556
    13  C   -0.475626
    14  H    0.149302
    15  H    0.149410
    16  H    0.151618
    17  H    0.151745
    18  H    0.155153
    19  H    0.155158
    20  H    0.160051
    21  C   -0.298135
    22  C   -0.299592
    23  C   -0.475675
    24  H    0.149596
    25  H    0.149499
    26  H    0.151823
    27  H    0.151827
    28  H    0.155170
    29  H    0.155152
    30  H    0.160163
    31  C   -0.298487
    32  C   -0.300935
    33  C   -0.475483
    34  H    0.149248
    35  H    0.149269
    36  H    0.151186
    37  H    0.151594
    38  H    0.156869
    39  H    0.155980
    40  H    0.160702
 Sum of Mulliken charges =  -0.00000

 Dipole moment (field-independent basis, Debye):
    X=             -0.0014    Y=              0.0092    Z=              0.0002  Tot=              0.0093
 Quadrupole moment (field-independent basis, Debye-Ang):
   XX=            -86.8837   YY=            -84.6249   ZZ=            -83.6300
   XY=              0.2126   XZ=              0.5273   YZ=             -0.1904

 Normal termination of Gaussian 16 at Thu May  6 02:08:29 2021.
