 Gaussian 16, Revision A.03,
 Gaussian 16:  EM64L-G16RevA.03 25-Dec-2016

 -------------
 #p 6-31g* mp2
 -------------

 ------------------------------------------------------
 Input file generated by CHIRIPA (05-May-2021 14:55:19)
 ------------------------------------------------------
 Symbolic Z-matrix:
 Charge =  0 Multiplicity = 1

                         Standard orientation:
 ---------------------------------------------------------------------
 Center     Atomic      Atomic             Coordinates (Angstroms)
 Number     Number       Type             X           Y           Z
 ---------------------------------------------------------------------
      1          6           0       -2.043772    2.417962    1.141071
      2          6           0       -0.983665    1.972454    0.344694
      3          6           0       -1.118306    0.821826   -0.437914
      4          6           0       -2.332484    0.137999   -0.399936
      5          6           0       -3.407054    0.556663    0.383205
      6          6           0       -3.249957    1.709893    1.157756
      7          1           0       -1.930458    3.312808    1.745890
      8          1           0       -0.045778    2.520349    0.329761
      9          1           0       -0.313806    0.454686   -1.063539
     10          1           0       -4.329876   -0.010596    0.377279
     11          1           0       -4.074948    2.053549    1.775279
     12          7           0       -2.486908   -1.081497   -1.224183
     13          8           0       -3.566826   -1.666144   -1.173154
     14          8           0       -1.525105   -1.429600   -1.905649
     15          6           0        2.832784   -0.931573    0.904873
     16          6           0        1.374462   -1.375906    1.022561
     17          6           0        1.149857   -2.371475    2.161064
     18          1           0        3.467447   -1.815149    0.751769
     19          1           0        3.149197   -0.480382    1.855507
     20          1           0        1.060476   -1.824872    0.071531
     21          1           0        0.743175   -0.491151    1.175211
     22          1           0        1.436240   -1.929900    3.121062
     23          1           0        1.755342   -3.271198    2.011111
     24          1           0        0.100620   -2.675770    2.227136
     25          6           0        3.073220    0.063767   -0.228802
     26          6           0        4.531541    0.508100   -0.346490
     27          6           0        4.756147    1.503669   -1.484993
     28          1           0        2.756807   -0.387424   -1.179436
     29          1           0        2.438556    0.947343   -0.075698
     30          1           0        5.162829   -0.376655   -0.499140
     31          1           0        4.845528    0.957066    0.604541
     32          1           0        4.150661    2.403393   -1.335040
     33          1           0        4.469764    1.062094   -2.444991
     34          1           0        5.805384    1.807965   -1.551064
 ---------------------------------------------------------------------

 SCF Done:  E(RHF) =  -669.534862956     A.U. after   15 cycles
 E2 =    -0.2093906971D+01 EUMP2 =    -0.67162876992625D+03

 The electronic state is 1-A.
 Alpha  occ. eigenvalues --  -20.60811 -20.60804 -15.85850 -11.31161 -11.27778
 Alpha  occ. eigenvalues --  -11.27724 -11.27526 -11.26758 -11.26746 -11.21935
 Alpha  occ. eigenvalues --  -11.21823 -11.21540 -11.21447 -11.21401 -11.20974
 Alpha  occ. eigenvalues --   -1.59874  -1.39429  -1.19371  -1.08766  -1.08666
 Alpha  occ. eigenvalues --   -1.04779  -1.03672  -0.96152  -0.95607  -0.87165
 Alpha  occ. eigenvalues --   -0.86166  -0.82445  -0.79776  -0.78552  -0.77442
 Alpha  occ. eigenvalues --   -0.72071  -0.71189  -0.70478  -0.65322  -0.65002
 Alpha  occ. eigenvalues --   -0.64767  -0.62118  -0.61072  -0.59525  -0.57767
 Alpha  occ. eigenvalues --   -0.55453  -0.55277  -0.53176  -0.52893  -0.52761
 Alpha  occ. eigenvalues --   -0.52554  -0.50091  -0.48835  -0.48827  -0.48075
 Alpha  occ. eigenvalues --   -0.46799  -0.46037  -0.45913  -0.44801  -0.43959
 Alpha  occ. eigenvalues --   -0.37354  -0.36260
 Alpha virt. eigenvalues --    0.05020   0.11260   0.16390   0.19990   0.22932
 Alpha virt. eigenvalues --    0.24159   0.25033   0.25523   0.27641   0.28204
 Alpha virt. eigenvalues --    0.30326   0.30512   0.31350   0.31726   0.31972

 Mulliken charges:
               1
     1  C   -0.170131
     2  C   -0.222438
     3  C   -0.169879
     4  C    0.158005
     5  C   -0.170459
     6  C   -0.219314
     7  H    0.225696
     8  H    0.224641
     9  H    0.281621
    10  H    0.275571
    11  H    0.223356
    12  N    0.488569
    13  O   -0.460134
    14  O   -0.461056
    15  C   -0.296541
    16  C   -0.314975
    17  C   -0.474490
    18  H    0.152673
    19  H    0.147561
    20  H    0.165488
    21  H    0.152272
    22  H    0.151982
    23  H    0.156824
    24  H    0.162316
    25  C   -0.301889
    26  C   -0.299527
    27  C   -0.475825
    28  H    0.155398
    29  H    0.136992
    30  H    0.155607
    31  H    0.151552
    32  H    0.150658
    33  H    0.157892
    34  H    0.161986
 Sum of Mulliken charges =  -0.00000

 Dipole moment (field-independent basis, Debye):
    X=              0.5549    Y=              4.1733    Z=              2.8343  Tot=              5.0752
 Quadrupole moment (field-independent basis, Debye-Ang):
   XX=            -92.7524   YY=            -94.0216   ZZ=            -97.5191
   XY=            -10.0949   XZ=             -8.9750   YZ=             -0.3301

 Normal termination of Gaussian 16 at Wed May  5 20:30:08 2021.
