 Gaussian 16, Revision A.03,
 Gaussian 16:  EM64L-G16RevA.03 25-Dec-2016

 -------------
 #p 6-31g* mp2
 -------------

 ------------------------------------------------------
 Input file generated by CHIRIPA (05-May-2021 14:57:23)
 ------------------------------------------------------
 Symbolic Z-matrix:
 Charge =  0 Multiplicity = 1

                         Standard orientation:
 ---------------------------------------------------------------------
 Center     Atomic      Atomic             Coordinates (Angstroms)
 Number     Number       Type             X           Y           Z
 ---------------------------------------------------------------------
      1          6           0        1.342523   -2.451383   -0.277047
      2          6           0        0.839983   -1.275893   -0.844674
      3          6           0        1.581974   -0.091862   -0.799215
      4          6           0        2.828342   -0.119365   -0.175436
      5          6           0        3.356233   -1.274530    0.399209
      6          6           0        2.596833   -2.446957    0.341991
      7          1           0        0.759364   -3.366659   -0.316928
      8          1           0       -0.133823   -1.276379   -1.326076
      9          1           0        1.216923    0.832284   -1.230619
     10          1           0        4.330218   -1.242945    0.872256
     11          1           0        2.989627   -3.358377    0.783659
     12          7           0        3.623070    1.127974   -0.121086
     13          8           0        4.718380    1.077486    0.434237
     14          8           0        3.135619    2.132507   -0.634839
     15          6           0       -2.082670    2.765099    0.367996
     16          6           0       -2.827886    2.311296   -0.725274
     17          6           0       -3.174172    0.961453   -0.837334
     18          6           0       -2.756787    0.089036    0.166643
     19          6           0       -2.013429    0.510646    1.267985
     20          6           0       -1.678532    1.864912    1.359387
     21          1           0       -1.818091    3.815408    0.447023
     22          1           0       -3.143108    3.008130   -1.496702
     23          1           0       -3.750317    0.583200   -1.673037
     24          1           0       -1.713558   -0.207832    2.021168
     25          1           0       -1.099706    2.214518    2.209553
     26          7           0       -3.117356   -1.342324    0.058945
     27          8           0       -2.737517   -2.090797    0.956801
     28          8           0       -3.772980   -1.688647   -0.921286
 ---------------------------------------------------------------------

 SCF Done:  E(RHF) =  -868.339556745     A.U. after   16 cycles
 E2 =    -0.2600549792D+01 EUMP2 =    -0.87094010653652D+03

 The electronic state is 1-A.
 Alpha  occ. eigenvalues --  -20.61572 -20.61565 -20.60889 -20.60869 -15.86605
 Alpha  occ. eigenvalues --  -15.85931 -11.31758 -11.31117 -11.28320 -11.28271
 Alpha  occ. eigenvalues --  -11.27932 -11.27683 -11.27678 -11.27268 -11.27235
 Alpha  occ. eigenvalues --  -11.27178 -11.26600 -11.26588  -1.60663  -1.59963
 Alpha  occ. eigenvalues --   -1.40212  -1.39521  -1.19916  -1.19271  -1.09332
 Alpha  occ. eigenvalues --   -1.08669  -1.05260  -1.04650  -0.96196  -0.95535
 Alpha  occ. eigenvalues --   -0.86656  -0.86041  -0.83021  -0.82382  -0.78112
 Alpha  occ. eigenvalues --   -0.77481  -0.72814  -0.72155  -0.72018  -0.71290
 Alpha  occ. eigenvalues --   -0.70954  -0.70297  -0.65537  -0.65220  -0.64905
 Alpha  occ. eigenvalues --   -0.64630  -0.62594  -0.62009  -0.55711  -0.55061
 Alpha  occ. eigenvalues --   -0.53686  -0.53318  -0.52933  -0.52721  -0.49588
 Alpha  occ. eigenvalues --   -0.49561  -0.48916  -0.48889  -0.45655  -0.44967
 Alpha  occ. eigenvalues --   -0.37901  -0.37183  -0.36995  -0.36099
 Alpha virt. eigenvalues --    0.04363   0.05058   0.10623   0.11526   0.15933
 Alpha virt. eigenvalues --    0.16605   0.21090   0.21547   0.26999   0.27094
 Alpha virt. eigenvalues --    0.27985   0.28586   0.30594   0.31168   0.32122

 Mulliken charges:
               1
     1  C   -0.168341
     2  C   -0.221533
     3  C   -0.171937
     4  C    0.155849
     5  C   -0.171935
     6  C   -0.219997
     7  H    0.235797
     8  H    0.224857
     9  H    0.273141
    10  H    0.274552
    11  H    0.224432
    12  N    0.488074
    13  O   -0.460615
    14  O   -0.464366
    15  C   -0.169609
    16  C   -0.219941
    17  C   -0.175654
    18  C    0.150320
    19  C   -0.168740
    20  C   -0.218876
    21  H    0.232071
    22  H    0.226522
    23  H    0.275884
    24  H    0.276724
    25  H    0.229029
    26  N    0.486264
    27  O   -0.461398
    28  O   -0.460573
 Sum of Mulliken charges =  -0.00000

 Dipole moment (field-independent basis, Debye):
    X=             -1.6433    Y=              0.6828    Z=              0.2930  Tot=              1.8034
 Quadrupole moment (field-independent basis, Debye-Ang):
   XX=           -125.4227   YY=           -101.6634   ZZ=           -100.4643
   XY=            -29.2105   XZ=              3.4502   YZ=             -0.4319

 Normal termination of Gaussian 16 at Wed May  5 21:04:14 2021.
