 Gaussian 16, Revision A.03,
 Gaussian 16:  EM64L-G16RevA.03 25-Dec-2016

 -------------
 #p 6-31g* mp2
 -------------

 ------------------------------------------------------
 Input file generated by CHIRIPA (05-May-2021 14:55:22)
 ------------------------------------------------------
 Symbolic Z-matrix:
 Charge =  0 Multiplicity = 1

                         Standard orientation:
 ---------------------------------------------------------------------
 Center     Atomic      Atomic             Coordinates (Angstroms)
 Number     Number       Type             X           Y           Z
 ---------------------------------------------------------------------
      1          6           0       -3.634912    1.802918    0.988908
      2          6           0       -4.418703    0.772737    0.458889
      3          6           0       -3.819204   -0.359743   -0.100252
      4          6           0       -2.426984   -0.429421   -0.112846
      5          6           0       -1.618865    0.580362    0.407319
      6          6           0       -2.239953    1.703617    0.961480
      7          1           0       -4.109003    2.679073    1.421327
      8          1           0       -5.502266    0.847149    0.478827
      9          1           0       -4.401981   -1.171932   -0.517550
     10          1           0       -0.541043    0.477671    0.373086
     11          1           0       -1.628735    2.502133    1.372368
     12          7           0       -1.780893   -1.623444   -0.702148
     13          8           0       -0.552380   -1.660758   -0.701121
     14          8           0       -2.515234   -2.499396   -1.153910
     15          6           0        2.804600    0.810419   -0.338441
     16          6           0        3.406404    2.215945   -0.356145
     17          6           0        2.518048    3.230336   -1.076998
     18          1           0        2.631575    0.479493   -1.371638
     19          1           0        1.819592    0.846950    0.147171
     20          1           0        4.390586    2.176530   -0.840342
     21          1           0        3.578194    2.543486    0.677209
     22          1           0        1.539356    3.299149   -0.591171
     23          1           0        2.356365    2.930107   -2.117345
     24          1           0        2.967326    4.228339   -1.077812
     25          6           0        3.681076   -0.214882    0.378691
     26          6           0        3.079272   -1.620408    0.396395
     27          6           0        3.967628   -2.634799    1.117247
     28          1           0        4.666085   -0.251414   -0.106921
     29          1           0        3.854101    0.116044    1.411888
     30          1           0        2.907482   -1.947950   -0.636960
     31          1           0        2.095090   -1.580993    0.880591
     32          1           0        4.129311   -2.334570    2.157595
     33          1           0        4.946320   -2.703612    0.631421
     34          1           0        3.518350   -3.632801    1.118061
 ---------------------------------------------------------------------

 SCF Done:  E(RHF) =  -669.535492779     A.U. after   15 cycles
 E2 =    -0.2092338236D+01 EUMP2 =    -0.67162783101454D+03

 The electronic state is 1-A.
 Alpha  occ. eigenvalues --  -20.60808 -20.60802 -15.85848 -11.31199 -11.27774
 Alpha  occ. eigenvalues --  -11.27753 -11.27519 -11.26789 -11.26779 -11.21635
 Alpha  occ. eigenvalues --  -11.21296 -11.21274 -11.20998 -11.20726 -11.20401
 Alpha  occ. eigenvalues --   -1.59877  -1.39430  -1.19376  -1.08775  -1.08157
 Alpha  occ. eigenvalues --   -1.04779  -1.03205  -0.95718  -0.95611  -0.86737
 Alpha  occ. eigenvalues --   -0.86178  -0.82445  -0.79297  -0.77946  -0.77422
 Alpha  occ. eigenvalues --   -0.72064  -0.71196  -0.70493  -0.65030  -0.64914
 Alpha  occ. eigenvalues --   -0.64696  -0.62131  -0.60609  -0.59104  -0.57277
 Alpha  occ. eigenvalues --   -0.55300  -0.55031  -0.53107  -0.52891  -0.52397
 Alpha  occ. eigenvalues --   -0.52113  -0.49693  -0.48836  -0.48831  -0.47591
 Alpha  occ. eigenvalues --   -0.46362  -0.45409  -0.45325  -0.44802  -0.43480
 Alpha  occ. eigenvalues --   -0.37358  -0.36380
 Alpha virt. eigenvalues --    0.05023   0.11269   0.16502   0.19801   0.23159
 Alpha virt. eigenvalues --    0.24451   0.24914   0.27239   0.27463   0.28281
 Alpha virt. eigenvalues --    0.29614   0.31165   0.31827   0.32101   0.32482

 Mulliken charges:
               1
     1  C   -0.170317
     2  C   -0.219220
     3  C   -0.169567
     4  C    0.155993
     5  C   -0.180305
     6  C   -0.223565
     7  H    0.225765
     8  H    0.223525
     9  H    0.275672
    10  H    0.292883
    11  H    0.223567
    12  N    0.488113
    13  O   -0.461977
    14  O   -0.460091
    15  C   -0.299738
    16  C   -0.299448
    17  C   -0.473686
    18  H    0.157663
    19  H    0.140790
    20  H    0.154258
    21  H    0.149474
    22  H    0.145459
    23  H    0.158604
    24  H    0.160321
    25  C   -0.299126
    26  C   -0.299707
    27  C   -0.476650
    28  H    0.148770
    29  H    0.145137
    30  H    0.161358
    31  H    0.159834
    32  H    0.150434
    33  H    0.152220
    34  H    0.163555
 Sum of Mulliken charges =  -0.00000

 Dipole moment (field-independent basis, Debye):
    X=             -2.3018    Y=              4.0573    Z=              1.9456  Tot=              5.0542
 Quadrupole moment (field-independent basis, Debye-Ang):
   XX=            -79.9468   YY=            -99.0294   ZZ=            -95.3041
   XY=             -7.2148   XZ=             -4.9528   YZ=             -0.1802

 Normal termination of Gaussian 16 at Thu May  6 04:38:50 2021.
