 Gaussian 16, Revision A.03,
 Gaussian 16:  EM64L-G16RevA.03 25-Dec-2016

 -------------
 #p 6-31g* mp2
 -------------

 ------------------------------------------------------
 Input file generated by CHIRIPA (05-May-2021 14:53:14)
 ------------------------------------------------------
 Symbolic Z-matrix:
 Charge =  0 Multiplicity = 1

                         Standard orientation:
 ---------------------------------------------------------------------
 Center     Atomic      Atomic             Coordinates (Angstroms)
 Number     Number       Type             X           Y           Z
 ---------------------------------------------------------------------
      1          6           0       -2.695301   -0.092158   -0.526043
      2          6           0       -3.394739   -1.258438    0.172930
      3          6           0       -3.717833   -2.410329   -0.779199
      4          1           0       -3.332872    0.273150   -1.342742
      5          1           0       -1.768545   -0.455294   -0.991500
      6          1           0       -4.319200   -0.892924    0.638106
      7          1           0       -2.755513   -1.620888    0.988182
      8          1           0       -2.802444   -2.802457   -1.234062
      9          1           0       -4.375015   -2.070357   -1.586127
     10          1           0       -4.217491   -3.233303   -0.258704
     11          6           0       -2.365788    1.067095    0.412723
     12          6           0       -1.666349    2.233375   -0.286250
     13          6           0       -1.343255    3.385266    0.665879
     14          1           0       -3.292544    1.430231    0.878180
     15          1           0       -1.728216    0.701787    1.229422
     16          1           0       -2.305575    2.595825   -1.101502
     17          1           0       -0.741889    1.867861   -0.751426
     18          1           0       -0.686073    3.045294    1.472807
     19          1           0       -2.258645    3.777394    1.120741
     20          1           0       -0.843598    4.208240    0.145384
     21          6           0        1.637798   -2.785785    0.727702
     22          6           0        2.070205   -2.480313   -0.566991
     23          6           0        2.261497   -1.151351   -0.956624
     24          6           0        2.009780   -0.148333   -0.021807
     25          6           0        1.578188   -0.420672    1.275440
     26          6           0        1.393600   -1.756804    1.643173
     27          1           0        1.491801   -3.820940    1.021872
     28          1           0        2.260631   -3.277382   -1.280058
     29          1           0        2.595569   -0.886619   -1.952481
     30          1           0        1.396565    0.395505    1.964126
     31          1           0        1.057715   -1.991077    2.649325
     32          7           0        2.208743    1.262375   -0.422700
     33          8           0        1.980054    2.127783    0.419563
     34          8           0        2.589613    1.475968   -1.571592
 ---------------------------------------------------------------------

 SCF Done:  E(RHF) =  -669.535885286     A.U. after   15 cycles
 E2 =    -0.2093841741D+01 EUMP2 =    -0.67162972702746D+03

 The electronic state is 1-A.
 Alpha  occ. eigenvalues --  -20.60965 -20.60953 -15.85982 -11.31348 -11.27916
 Alpha  occ. eigenvalues --  -11.27904 -11.27636 -11.26917 -11.26904 -11.21661
 Alpha  occ. eigenvalues --  -11.21253 -11.21220 -11.21100 -11.20953 -11.20094
 Alpha  occ. eigenvalues --   -1.60026  -1.39578  -1.19513  -1.08908  -1.08191
 Alpha  occ. eigenvalues --   -1.04909  -1.03197  -0.95753  -0.95627  -0.86661
 Alpha  occ. eigenvalues --   -0.86305  -0.82576  -0.79307  -0.77976  -0.77627
 Alpha  occ. eigenvalues --   -0.72212  -0.71379  -0.70611  -0.65169  -0.64914
 Alpha  occ. eigenvalues --   -0.64810  -0.62256  -0.60578  -0.59067  -0.57226
 Alpha  occ. eigenvalues --   -0.55404  -0.54940  -0.53217  -0.52997  -0.52304
 Alpha  occ. eigenvalues --   -0.52073  -0.49611  -0.48971  -0.48960  -0.47603
 Alpha  occ. eigenvalues --   -0.46358  -0.45528  -0.45434  -0.44909  -0.43459
 Alpha  occ. eigenvalues --   -0.37479  -0.36497
 Alpha virt. eigenvalues --    0.04861   0.11090   0.16327   0.20895   0.22820
 Alpha virt. eigenvalues --    0.24230   0.26218   0.26948   0.27700   0.28038
 Alpha virt. eigenvalues --    0.28883   0.30449   0.31506   0.31760   0.32270

 Mulliken charges:
               1
     1  C   -0.297783
     2  C   -0.298158
     3  C   -0.475346
     4  H    0.150508
     5  H    0.148634
     6  H    0.152266
     7  H    0.147157
     8  H    0.152731
     9  H    0.156700
    10  H    0.158174
    11  C   -0.297857
    12  C   -0.299560
    13  C   -0.471057
    14  H    0.148484
    15  H    0.142550
    16  H    0.150313
    17  H    0.152586
    18  H    0.159486
    19  H    0.146306
    20  H    0.167787
    21  C   -0.170450
    22  C   -0.218625
    23  C   -0.171245
    24  C    0.156360
    25  C   -0.170591
    26  C   -0.219099
    27  H    0.226530
    28  H    0.224260
    29  H    0.276305
    30  H    0.276154
    31  H    0.224402
    32  N    0.488789
    33  O   -0.458033
    34  O   -0.458678
 Sum of Mulliken charges =  -0.00000

 Dipole moment (field-independent basis, Debye):
    X=             -0.4946    Y=             -4.8858    Z=              1.3707  Tot=              5.0985
 Quadrupole moment (field-independent basis, Debye-Ang):
   XX=            -97.5680   YY=            -93.7348   ZZ=            -91.0772
   XY=            -11.1013   XZ=              1.5418   YZ=              0.7516

 Normal termination of Gaussian 16 at Wed May  5 21:52:05 2021.
