 Gaussian 16, Revision A.03,
 Gaussian 16:  EM64L-G16RevA.03 25-Dec-2016

 -------------
 #p 6-31g* mp2
 -------------

 ------------------------------------------------------
 Input file generated by CHIRIPA (05-May-2021 14:57:21)
 ------------------------------------------------------
 Symbolic Z-matrix:
 Charge =  0 Multiplicity = 1

                         Standard orientation:
 ---------------------------------------------------------------------
 Center     Atomic      Atomic             Coordinates (Angstroms)
 Number     Number       Type             X           Y           Z
 ---------------------------------------------------------------------
      1          6           0       -4.810905   -0.456018    0.840580
      2          6           0       -4.606253    0.568657   -0.089301
      3          6           0       -3.389873    0.677336   -0.769857
      4          6           0       -2.395407   -0.260038   -0.494803
      5          6           0       -2.568969   -1.292180    0.425984
      6          6           0       -3.793404   -1.381535    1.094807
      7          1           0       -5.758947   -0.532937    1.364695
      8          1           0       -5.394673    1.288837   -0.288750
      9          1           0       -3.204670    1.460694   -1.494749
     10          1           0       -1.764229   -1.995220    0.603596
     11          1           0       -3.949533   -2.178350    1.816440
     12          7           0       -1.103416   -0.155214   -1.209067
     13          8           0       -0.243166   -0.993597   -0.948838
     14          8           0       -0.975468    0.763346   -2.015611
     15          6           0        1.133430    2.122583    1.263391
     16          6           0        1.416206    1.008570    2.060595
     17          6           0        2.232181   -0.019831    1.579842
     18          6           0        2.750932    0.098921    0.291399
     19          6           0        2.487529    1.196228   -0.527031
     20          6           0        1.669049    2.212697   -0.025606
     21          1           0        0.498588    2.916836    1.644881
     22          1           0        1.001615    0.935908    3.062034
     23          1           0        2.467275   -0.893390    2.175696
     24          1           0        2.915336    1.240429   -1.521237
     25          1           0        1.451137    3.076687   -0.646959
     26          7           0        3.616093   -0.983486   -0.228496
     27          8           0        4.060853   -0.855029   -1.367058
     28          8           0        3.833065   -1.939837    0.512418
 ---------------------------------------------------------------------

 SCF Done:  E(RHF) =  -868.338108983     A.U. after   16 cycles
 E2 =    -0.2602523224D+01 EUMP2 =    -0.87094063220658D+03

 The electronic state is 1-A.
 Alpha  occ. eigenvalues --  -20.61181 -20.61119 -20.59619 -20.59587 -15.86175
 Alpha  occ. eigenvalues --  -15.84655 -11.31558 -11.29952 -11.28140 -11.28097
 Alpha  occ. eigenvalues --  -11.27861 -11.27148 -11.27121 -11.26637 -11.26485
 Alpha  occ. eigenvalues --  -11.26448 -11.25761 -11.25582  -1.60197  -1.58664
 Alpha  occ. eigenvalues --   -1.39760  -1.38228  -1.19728  -1.18170  -1.09119
 Alpha  occ. eigenvalues --   -1.07613  -1.05131  -1.03600  -0.95956  -0.94449
 Alpha  occ. eigenvalues --   -0.86526  -0.85021  -0.82794  -0.81297  -0.77836
 Alpha  occ. eigenvalues --   -0.76315  -0.72432  -0.71529  -0.70909  -0.70830
 Alpha  occ. eigenvalues --   -0.69926  -0.69389  -0.65381  -0.65130  -0.63873
 Alpha  occ. eigenvalues --   -0.63667  -0.62475  -0.60972  -0.55630  -0.54209
 Alpha  occ. eigenvalues --   -0.53476  -0.53219  -0.51940  -0.51741  -0.49168
 Alpha  occ. eigenvalues --   -0.49111  -0.47660  -0.47641  -0.45177  -0.43655
 Alpha  occ. eigenvalues --   -0.37726  -0.36746  -0.36133  -0.35115
 Alpha virt. eigenvalues --    0.04664   0.06277   0.10910   0.12478   0.16183
 Alpha virt. eigenvalues --    0.17715   0.21077   0.22351   0.26981   0.27974
 Alpha virt. eigenvalues --    0.28278   0.29242   0.30631   0.31811   0.32197

 Mulliken charges:
               1
     1  C   -0.171140
     2  C   -0.218938
     3  C   -0.172532
     4  C    0.159487
     5  C   -0.171335
     6  C   -0.219235
     7  H    0.226398
     8  H    0.223647
     9  H    0.274180
    10  H    0.277692
    11  H    0.224634
    12  N    0.491030
    13  O   -0.457138
    14  O   -0.464819
    15  C   -0.179105
    16  C   -0.221621
    17  C   -0.170353
    18  C    0.174286
    19  C   -0.157269
    20  C   -0.213132
    21  H    0.218609
    22  H    0.215367
    23  H    0.269832
    24  H    0.276427
    25  H    0.222527
    26  N    0.489124
    27  O   -0.459880
    28  O   -0.466743
 Sum of Mulliken charges =  -0.00000

 Dipole moment (field-independent basis, Debye):
    X=             -7.6433    Y=              3.3085    Z=              4.0310  Tot=              9.2529
 Quadrupole moment (field-independent basis, Debye-Ang):
   XX=           -100.5770   YY=           -100.4995   ZZ=           -102.6499
   XY=             11.2242   XZ=             -0.0219   YZ=             -4.2780

 Normal termination of Gaussian 16 at Thu May  6 17:48:42 2021.
