 Gaussian 16, Revision A.03,
 Gaussian 16:  EM64L-G16RevA.03 25-Dec-2016

 -------------
 #p 6-31g* mp2
 -------------

 ------------------------------------------------------
 Input file generated by CHIRIPA (05-May-2021 14:53:14)
 ------------------------------------------------------
 Symbolic Z-matrix:
 Charge =  0 Multiplicity = 1

                         Standard orientation:
 ---------------------------------------------------------------------
 Center     Atomic      Atomic             Coordinates (Angstroms)
 Number     Number       Type             X           Y           Z
 ---------------------------------------------------------------------
      1          6           0       -3.198299    0.659999    0.440619
      2          6           0       -2.995268    2.086491   -0.071126
      3          6           0       -2.605578    3.062945    1.039043
      4          1           0       -3.975033    0.663035    1.217549
      5          1           0       -2.273539    0.316385    0.924503
      6          1           0       -3.919684    2.426809   -0.555124
      7          1           0       -2.219062    2.080029   -0.847063
      8          1           0       -1.671436    2.750246    1.516745
      9          1           0       -3.381721    3.098995    1.810343
     10          1           0       -2.465452    4.076716    0.651109
     11          6           0       -3.588240   -0.327815   -0.657514
     12          6           0       -3.791271   -1.754308   -0.145770
     13          6           0       -4.180961   -2.730761   -1.255938
     14          1           0       -4.512999    0.015798   -1.141399
     15          1           0       -2.811506   -0.330852   -1.434444
     16          1           0       -4.567476   -1.747846    0.630168
     17          1           0       -2.866854   -2.094625    0.338229
     18          1           0       -3.404818   -2.766812   -2.027238
     19          1           0       -5.115103   -2.418062   -1.733640
     20          1           0       -4.321087   -3.744532   -0.868005
     21          6           0        1.790478   -0.932335    2.316610
     22          6           0        3.093803   -1.244010    1.915708
     23          6           0        3.581150   -0.804610    0.681217
     24          6           0        2.734183   -0.052169   -0.131046
     25          6           0        1.430881    0.274661    0.240271
     26          6           0        0.964632   -0.175329    1.479088
     27          1           0        1.420089   -1.277785    3.277273
     28          1           0        3.737400   -1.831745    2.564087
     29          1           0        4.585936   -1.031513    0.346046
     30          1           0        0.812855    0.862284   -0.427682
     31          1           0       -0.047988    0.068230    1.787835
     32          7           0        3.238947    0.418610   -1.440236
     33          8           0        2.472892    1.080043   -2.137590
     34          8           0        4.391080    0.117260   -1.744236
 ---------------------------------------------------------------------

 SCF Done:  E(RHF) =  -669.535507327     A.U. after   15 cycles
 E2 =    -0.2091763645D+01 EUMP2 =    -0.67162727097227D+03

 The electronic state is 1-A.
 Alpha  occ. eigenvalues --  -20.60780 -20.60775 -15.85834 -11.31201 -11.27776
 Alpha  occ. eigenvalues --  -11.27772 -11.27512 -11.26786 -11.26764 -11.22237
 Alpha  occ. eigenvalues --  -11.22169 -11.22081 -11.21896 -11.21707 -11.21394
 Alpha  occ. eigenvalues --   -1.59856  -1.39409  -1.19375  -1.09045  -1.08768
 Alpha  occ. eigenvalues --   -1.04781  -1.04071  -0.96523  -0.95603  -0.87534
 Alpha  occ. eigenvalues --   -0.86179  -0.82440  -0.80136  -0.78867  -0.77483
 Alpha  occ. eigenvalues --   -0.72052  -0.71179  -0.70483  -0.65740  -0.65023
 Alpha  occ. eigenvalues --   -0.64767  -0.62157  -0.61433  -0.59885  -0.58128
 Alpha  occ. eigenvalues --   -0.55830  -0.55277  -0.53185  -0.53109  -0.52990
 Alpha  occ. eigenvalues --   -0.52834  -0.50467  -0.48815  -0.48807  -0.48442
 Alpha  occ. eigenvalues --   -0.47177  -0.46383  -0.46308  -0.44814  -0.44344
 Alpha  occ. eigenvalues --   -0.37354  -0.36381
 Alpha virt. eigenvalues --    0.05044   0.11250   0.16488   0.18270   0.22934
 Alpha virt. eigenvalues --    0.23672   0.24784   0.25723   0.27462   0.28441
 Alpha virt. eigenvalues --    0.29463   0.30147   0.31305   0.31452   0.31973

 Mulliken charges:
               1
     1  C   -0.302987
     2  C   -0.302654
     3  C   -0.475909
     4  H    0.152305
     5  H    0.140126
     6  H    0.156963
     7  H    0.154425
     8  H    0.148177
     9  H    0.156715
    10  H    0.165970
    11  C   -0.298838
    12  C   -0.299797
    13  C   -0.476300
    14  H    0.153018
    15  H    0.152869
    16  H    0.151934
    17  H    0.149079
    18  H    0.157991
    19  H    0.156608
    20  H    0.160902
    21  C   -0.171474
    22  C   -0.218536
    23  C   -0.170725
    24  C    0.158625
    25  C   -0.174086
    26  C   -0.225946
    27  H    0.226388
    28  H    0.223513
    29  H    0.275696
    30  H    0.276233
    31  H    0.232581
    32  N    0.488079
    33  O   -0.460561
    34  O   -0.460383
 Sum of Mulliken charges =  -0.00000

 Dipole moment (field-independent basis, Debye):
    X=             -1.9299    Y=             -1.6360    Z=              4.5233  Tot=              5.1828
 Quadrupole moment (field-independent basis, Debye-Ang):
   XX=            -99.1189   YY=            -94.5644   ZZ=            -96.8742
   XY=             -7.3995   XZ=             13.8123   YZ=             -1.1033

 Normal termination of Gaussian 16 at Thu May  6 15:26:02 2021.
