 Gaussian 16, Revision A.03,
 Gaussian 16:  EM64L-G16RevA.03 25-Dec-2016

 -------------
 #p 6-31g* mp2
 -------------

 ------------------------------------------------------
 Input file generated by CHIRIPA (05-May-2021 14:53:16)
 ------------------------------------------------------
 Symbolic Z-matrix:
 Charge =  0 Multiplicity = 1

                         Standard orientation:
 ---------------------------------------------------------------------
 Center     Atomic      Atomic             Coordinates (Angstroms)
 Number     Number       Type             X           Y           Z
 ---------------------------------------------------------------------
      1          6           0        4.037874    0.194918    0.550824
      2          6           0        5.001723   -0.813480   -0.075366
      3          6           0        5.860310   -1.534678    0.964103
      4          1           0        4.612487    0.931626    1.128773
      5          1           0        3.387617   -0.326011    1.267199
      6          1           0        5.649045   -0.291051   -0.791367
      7          1           0        4.424762   -1.547762   -0.652048
      8          1           0        5.229489   -2.080998    1.672763
      9          1           0        6.460728   -0.817148    1.532653
     10          1           0        6.541992   -2.250807    0.494709
     11          6           0        3.172693    0.923979   -0.475656
     12          6           0        2.208844    1.932377    0.150534
     13          6           0        1.350256    2.653575   -0.888935
     14          1           0        3.822950    1.444908   -1.192031
     15          1           0        2.598079    0.187270   -1.053605
     16          1           0        2.785804    2.666658    0.727216
     17          1           0        1.561521    1.409948    0.866535
     18          1           0        0.749838    1.936044   -1.457485
     19          1           0        1.981077    3.199895   -1.597595
     20          1           0        0.668575    3.369703   -0.419541
     21          6           0       -4.359385    1.405669    0.738841
     22          6           0       -4.765245    0.070091    0.828432
     23          6           0       -3.918690   -0.959112    0.405781
     24          6           0       -2.667479   -0.615218   -0.103629
     25          6           0       -2.234400    0.705888   -0.205658
     26          6           0       -3.097483    1.718754    0.222992
     27          1           0       -5.023429    2.198834    1.069498
     28          1           0       -5.744696   -0.176011    1.228627
     29          1           0       -4.207561   -2.001512    0.463873
     30          1           0       -1.252136    0.920067   -0.609020
     31          1           0       -2.779630    2.755098    0.152234
     32          7           0       -1.762521   -1.696141   -0.554247
     33          8           0       -0.665184   -1.366874   -0.999301
     34          8           0       -2.167687   -2.852168   -0.453855
 ---------------------------------------------------------------------

 SCF Done:  E(RHF) =  -669.535967663     A.U. after   15 cycles
 E2 =    -0.2091545746D+01 EUMP2 =    -0.67162751340906D+03

 The electronic state is 1-A.
 Alpha  occ. eigenvalues --  -20.60848 -20.60839 -15.85893 -11.31194 -11.27769
 Alpha  occ. eigenvalues --  -11.27721 -11.27506 -11.26777 -11.26755 -11.21566
 Alpha  occ. eigenvalues --  -11.21394 -11.21101 -11.20979 -11.20918 -11.20629
 Alpha  occ. eigenvalues --   -1.59915  -1.39472  -1.19368  -1.08777  -1.08100
 Alpha  occ. eigenvalues --   -1.04762  -1.03321  -0.95793  -0.95615  -0.86818
 Alpha  occ. eigenvalues --   -0.86163  -0.82452  -0.79383  -0.77868  -0.77506
 Alpha  occ. eigenvalues --   -0.72115  -0.71234  -0.70489  -0.65023  -0.64859
 Alpha  occ. eigenvalues --   -0.64640  -0.62161  -0.60671  -0.59190  -0.57377
 Alpha  occ. eigenvalues --   -0.55347  -0.55002  -0.53098  -0.52852  -0.52531
 Alpha  occ. eigenvalues --   -0.52201  -0.49715  -0.48873  -0.48861  -0.47696
 Alpha  occ. eigenvalues --   -0.46380  -0.45430  -0.45290  -0.44887  -0.43534
 Alpha  occ. eigenvalues --   -0.37354  -0.36362
 Alpha virt. eigenvalues --    0.05012   0.11271   0.16520   0.20065   0.23152
 Alpha virt. eigenvalues --    0.24148   0.26567   0.26879   0.27531   0.28242
 Alpha virt. eigenvalues --    0.29317   0.30230   0.31535   0.32062   0.32313

 Mulliken charges:
               1
     1  C   -0.298238
     2  C   -0.300791
     3  C   -0.475729
     4  H    0.146173
     5  H    0.152229
     6  H    0.149908
     7  H    0.158381
     8  H    0.156282
     9  H    0.152839
    10  H    0.159885
    11  C   -0.302504
    12  C   -0.299020
    13  C   -0.484814
    14  H    0.147024
    15  H    0.165323
    16  H    0.151074
    17  H    0.152454
    18  H    0.158397
    19  H    0.160528
    20  H    0.151131
    21  C   -0.170360
    22  C   -0.219146
    23  C   -0.169859
    24  C    0.156958
    25  C   -0.179150
    26  C   -0.223184
    27  H    0.225686
    28  H    0.223441
    29  H    0.275503
    30  H    0.290620
    31  H    0.224454
    32  N    0.487539
    33  O   -0.463354
    34  O   -0.459682
 Sum of Mulliken charges =  -0.00000

 Dipole moment (field-independent basis, Debye):
    X=             -3.1645    Y=              3.6905    Z=              1.5386  Tot=              5.0991
 Quadrupole moment (field-independent basis, Debye-Ang):
   XX=            -75.7519   YY=            -97.6033   ZZ=            -95.9998
   XY=             -4.9173   XZ=             -5.7686   YZ=             -2.0286

 Normal termination of Gaussian 16 at Wed May  5 20:21:29 2021.
