 Gaussian 16, Revision A.03,
 Gaussian 16:  EM64L-G16RevA.03 25-Dec-2016

 -------------
 #p 6-31g* mp2
 -------------

 ------------------------------------------------------
 Input file generated by CHIRIPA (05-May-2021 14:53:16)
 ------------------------------------------------------
 Symbolic Z-matrix:
 Charge =  0 Multiplicity = 1

                         Standard orientation:
 ---------------------------------------------------------------------
 Center     Atomic      Atomic             Coordinates (Angstroms)
 Number     Number       Type             X           Y           Z
 ---------------------------------------------------------------------
      1          6           0        2.523299    1.393565   -0.111959
      2          6           0        1.245297    2.136510    0.278848
      3          6           0        1.474694    3.632118    0.498685
      4          1           0        3.278659    1.538712    0.672458
      5          1           0        2.933752    1.841017   -1.027770
      6          1           0        0.836625    1.686899    1.192879
      7          1           0        0.492828    1.989419   -0.506499
      8          1           0        1.860389    4.100726   -0.412494
      9          1           0        2.206139    3.796487    1.296540
     10          1           0        0.548117    4.143720    0.777213
     11          6           0        2.310100   -0.102580   -0.335168
     12          6           0        3.588101   -0.845525   -0.725975
     13          6           0        3.358705   -2.341133   -0.945812
     14          1           0        1.899646   -0.550032    0.580643
     15          1           0        1.554740   -0.247727   -1.119584
     16          1           0        4.340571   -0.698434    0.059372
     17          1           0        3.996774   -0.395914   -1.640006
     18          1           0        2.627260   -2.505502   -1.743666
     19          1           0        2.973010   -2.809741   -0.034633
     20          1           0        4.285282   -2.852735   -1.224340
     21          6           0       -3.200472    0.984776   -1.382949
     22          6           0       -2.767623    1.473992   -0.146086
     23          6           0       -2.039746    0.657864    0.724936
     24          6           0       -1.761166   -0.648248    0.325243
     25          6           0       -2.178571   -1.164701   -0.900457
     26          6           0       -2.905084   -0.330690   -1.755530
     27          1           0       -3.765375    1.625710   -2.053385
     28          1           0       -2.995570    2.495182    0.145899
     29          1           0       -1.692426    1.010978    1.688313
     30          1           0       -1.936021   -2.187078   -1.163766
     31          1           0       -3.239959   -0.713307   -2.715483
     32          7           0       -0.991317   -1.521713    1.238912
     33          8           0       -0.758822   -2.668681    0.863349
     34          8           0       -0.634981   -1.042828    2.313310
 ---------------------------------------------------------------------

 SCF Done:  E(RHF) =  -669.535551880     A.U. after   15 cycles
 E2 =    -0.2094623679D+01 EUMP2 =    -0.67163017555924D+03

 The electronic state is 1-A.
 Alpha  occ. eigenvalues --  -20.60888 -20.60882 -15.85903 -11.31194 -11.27799
 Alpha  occ. eigenvalues --  -11.27778 -11.27544 -11.26786 -11.26771 -11.21443
 Alpha  occ. eigenvalues --  -11.21143 -11.21113 -11.21105 -11.20912 -11.20398
 Alpha  occ. eigenvalues --   -1.59940  -1.39498  -1.19394  -1.08798  -1.08104
 Alpha  occ. eigenvalues --   -1.04795  -1.03219  -0.95678  -0.95633  -0.86685
 Alpha  occ. eigenvalues --   -0.86190  -0.82480  -0.79319  -0.77956  -0.77509
 Alpha  occ. eigenvalues --   -0.72135  -0.71237  -0.70514  -0.65054  -0.64824
 Alpha  occ. eigenvalues --   -0.64692  -0.62153  -0.60604  -0.59093  -0.57283
 Alpha  occ. eigenvalues --   -0.55305  -0.54934  -0.53176  -0.52890  -0.52369
 Alpha  occ. eigenvalues --   -0.52080  -0.49591  -0.48899  -0.48893  -0.47609
 Alpha  occ. eigenvalues --   -0.46323  -0.45459  -0.45407  -0.44773  -0.43469
 Alpha  occ. eigenvalues --   -0.37357  -0.36318
 Alpha virt. eigenvalues --    0.04971   0.11211   0.16425   0.21046   0.23245
 Alpha virt. eigenvalues --    0.24448   0.26289   0.27146   0.27392   0.28108
 Alpha virt. eigenvalues --    0.29055   0.30531   0.31540   0.31904   0.32208

 Mulliken charges:
               1
     1  C   -0.295966
     2  C   -0.309052
     3  C   -0.474229
     4  H    0.151287
     5  H    0.146829
     6  H    0.156870
     7  H    0.152290
     8  H    0.154644
     9  H    0.157771
    10  H    0.152050
    11  C   -0.307911
    12  C   -0.298989
    13  C   -0.476887
    14  H    0.163704
    15  H    0.144531
    16  H    0.152559
    17  H    0.148022
    18  H    0.151660
    19  H    0.167281
    20  H    0.157167
    21  C   -0.170784
    22  C   -0.219897
    23  C   -0.165184
    24  C    0.160110
    25  C   -0.171320
    26  C   -0.219370
    27  H    0.225818
    28  H    0.223698
    29  H    0.275781
    30  H    0.275770
    31  H    0.223409
    32  N    0.489329
    33  O   -0.458910
    34  O   -0.462083
 Sum of Mulliken charges =  -0.00000

 Dipole moment (field-independent basis, Debye):
    X=             -2.7639    Y=              2.9232    Z=             -3.1085  Tot=              5.0840
 Quadrupole moment (field-independent basis, Debye-Ang):
   XX=            -85.9253   YY=            -97.7168   ZZ=            -94.2456
   XY=             -3.7431   XZ=              5.6849   YZ=              5.4590

 Normal termination of Gaussian 16 at Wed May  5 17:12:52 2021.
