 Gaussian 16, Revision A.03,
 Gaussian 16:  EM64L-G16RevA.03 25-Dec-2016

 -------------
 #p 6-31g* mp2
 -------------

 ------------------------------------------------------
 Input file generated by CHIRIPA (05-May-2021 14:55:24)
 ------------------------------------------------------
 Symbolic Z-matrix:
 Charge =  0 Multiplicity = 1

                         Standard orientation:
 ---------------------------------------------------------------------
 Center     Atomic      Atomic             Coordinates (Angstroms)
 Number     Number       Type             X           Y           Z
 ---------------------------------------------------------------------
      1          6           0       -0.473058   -0.730994    1.726945
      2          6           0       -1.266340    0.415209    1.842885
      3          6           0       -2.385112    0.590301    1.022983
      4          6           0       -2.682800   -0.405308    0.093770
      5          6           0       -1.911954   -1.558404   -0.045711
      6          6           0       -0.797824   -1.712412    0.784678
      7          1           0        0.394227   -0.858821    2.367938
      8          1           0       -1.016517    1.179038    2.573775
      9          1           0       -3.016469    1.467854    1.091593
     10          1           0       -2.186216   -2.302481   -0.783645
     11          1           0       -0.183556   -2.603596    0.692420
     12          7           0       -3.864736   -0.231106   -0.779774
     13          8           0       -4.105702   -1.122882   -1.590520
     14          8           0       -4.527792    0.793910   -0.637172
     15          6           0        2.632177    0.942021    0.054645
     16          6           0        2.064388    2.096385   -0.771819
     17          6           0        0.960075    2.860001   -0.040257
     18          1           0        1.818490    0.251762    0.316184
     19          1           0        3.023964    1.336734    1.002326
     20          1           0        1.675038    1.699799   -1.718255
     21          1           0        2.879553    2.783876   -1.031582
     22          1           0        1.339113    3.282727    0.895816
     23          1           0        0.127753    2.192490    0.205241
     24          1           0        0.568445    3.680819   -0.649145
     25          6           0        3.737110    0.169066   -0.663263
     26          6           0        4.304900   -0.985299    0.163201
     27          6           0        5.409211   -1.748914   -0.568359
     28          1           0        3.345324   -0.225647   -1.610943
     29          1           0        4.550797    0.859325   -0.924801
     30          1           0        3.489733   -1.672790    0.422965
     31          1           0        4.694249   -0.588712    1.109639
     32          1           0        6.241534   -1.081404   -0.813859
     33          1           0        5.030175   -2.171640   -1.504433
     34          1           0        5.800842   -2.569733    0.040528
 ---------------------------------------------------------------------

 SCF Done:  E(RHF) =  -669.534232139     A.U. after   15 cycles
 E2 =    -0.2094444413D+01 EUMP2 =    -0.67162867655207D+03

 The electronic state is 1-A.
 Alpha  occ. eigenvalues --  -20.60849 -20.60844 -15.85905 -11.31316 -11.27885
 Alpha  occ. eigenvalues --  -11.27874 -11.27600 -11.26913 -11.26865 -11.22264
 Alpha  occ. eigenvalues --  -11.21935 -11.21885 -11.21804 -11.21602 -11.21289
 Alpha  occ. eigenvalues --   -1.59924  -1.39476  -1.19507  -1.08964  -1.08843
 Alpha  occ. eigenvalues --   -1.04915  -1.03984  -0.96430  -0.95708  -0.87455
 Alpha  occ. eigenvalues --   -0.86292  -0.82535  -0.80075  -0.78765  -0.77572
 Alpha  occ. eigenvalues --   -0.72121  -0.71248  -0.70588  -0.65568  -0.65143
 Alpha  occ. eigenvalues --   -0.64886  -0.62244  -0.61403  -0.59804  -0.58061
 Alpha  occ. eigenvalues --   -0.55757  -0.55371  -0.53357  -0.53103  -0.53005
 Alpha  occ. eigenvalues --   -0.52804  -0.50384  -0.48883  -0.48873  -0.48373
 Alpha  occ. eigenvalues --   -0.47103  -0.46280  -0.46197  -0.44871  -0.44240
 Alpha  occ. eigenvalues --   -0.37368  -0.36435
 Alpha virt. eigenvalues --    0.04914   0.11068   0.16314   0.20569   0.22726
 Alpha virt. eigenvalues --    0.23797   0.25829   0.26467   0.27060   0.28015
 Alpha virt. eigenvalues --    0.29138   0.30691   0.31256   0.31534   0.31630

 Mulliken charges:
               1
     1  C   -0.169963
     2  C   -0.219770
     3  C   -0.171367
     4  C    0.159469
     5  C   -0.170734
     6  C   -0.219535
     7  H    0.228999
     8  H    0.226790
     9  H    0.276997
    10  H    0.276182
    11  H    0.224421
    12  N    0.488100
    13  O   -0.460130
    14  O   -0.459802
    15  C   -0.306303
    16  C   -0.297572
    17  C   -0.485816
    18  H    0.152730
    19  H    0.144984
    20  H    0.154626
    21  H    0.152469
    22  H    0.149092
    23  H    0.163389
    24  H    0.162744
    25  C   -0.297802
    26  C   -0.298402
    27  C   -0.475833
    28  H    0.151291
    29  H    0.151732
    30  H    0.143382
    31  H    0.151403
    32  H    0.157569
    33  H    0.156410
    34  H    0.160252
 Sum of Mulliken charges =  -0.00000

 Dipole moment (field-independent basis, Debye):
    X=              4.0774    Y=             -0.6553    Z=              3.0558  Tot=              5.1373
 Quadrupole moment (field-independent basis, Debye-Ang):
   XX=           -117.7037   YY=            -90.8199   ZZ=            -93.6611
   XY=             -0.1734   XZ=             -8.0848   YZ=              0.8370

 Normal termination of Gaussian 16 at Thu May  6 04:45:45 2021.
