 Gaussian 16, Revision A.03,
 Gaussian 16:  EM64L-G16RevA.03 25-Dec-2016

 -------------
 #p 6-31g* mp2
 -------------

 ------------------------------------------------------
 Input file generated by CHIRIPA (05-May-2021 14:53:14)
 ------------------------------------------------------
 Symbolic Z-matrix:
 Charge =  0 Multiplicity = 1

                         Standard orientation:
 ---------------------------------------------------------------------
 Center     Atomic      Atomic             Coordinates (Angstroms)
 Number     Number       Type             X           Y           Z
 ---------------------------------------------------------------------
      1          6           0       -3.115625   -0.165819    0.211259
      2          6           0       -4.000438   -1.297447   -0.312678
      3          6           0       -4.409188   -2.283471    0.782070
      4          1           0       -2.216639   -0.595927    0.673619
      5          1           0       -3.650742    0.370002    1.007463
      6          1           0       -3.464356   -1.830107   -1.108609
      7          1           0       -4.897331   -0.864587   -0.774015
      8          1           0       -4.966437   -1.771453    1.573216
      9          1           0       -3.525320   -2.742458    1.236721
     10          1           0       -5.041271   -3.084179    0.385589
     11          6           0       -2.698755    0.828065   -0.871395
     12          6           0       -1.813942    1.959693   -0.347457
     13          6           0       -1.405192    2.945717   -1.442206
     14          1           0       -2.163638    0.292244   -1.667599
     15          1           0       -3.597741    1.258173   -1.333754
     16          1           0       -0.917049    1.526833    0.113879
     17          1           0       -2.350025    2.492353    0.448473
     18          1           0       -2.289061    3.404704   -1.896857
     19          1           0       -0.847943    2.433699   -2.233352
     20          1           0       -0.773109    3.746425   -1.045724
     21          6           0        2.901274   -2.190807   -1.237429
     22          6           0        2.110713   -2.411104   -0.104732
     23          6           0        1.755520   -1.348041    0.730902
     24          6           0        2.210333   -0.071900    0.402425
     25          6           0        2.999255    0.179631   -0.719014
     26          6           0        3.342243   -0.898421   -1.540422
     27          1           0        3.172456   -3.022441   -1.881044
     28          1           0        1.766819   -3.413726    0.133035
     29          1           0        1.144613   -1.490314    1.614060
     30          1           0        3.326995    1.190296   -0.930110
     31          1           0        3.956320   -0.724371   -2.419433
     32          7           0        1.840767    1.061451    1.279543
     33          8           0        2.254180    2.176276    0.968269
     34          8           0        1.144684    0.813487    2.261694
 ---------------------------------------------------------------------

 SCF Done:  E(RHF) =  -669.535795344     A.U. after   15 cycles
 E2 =    -0.2092038188D+01 EUMP2 =    -0.67162783353181D+03

 The electronic state is 1-A.
 Alpha  occ. eigenvalues --  -20.60881 -20.60876 -15.85915 -11.31282 -11.27850
 Alpha  occ. eigenvalues --  -11.27840 -11.27585 -11.26861 -11.26850 -11.21474
 Alpha  occ. eigenvalues --  -11.21097 -11.21028 -11.21022 -11.20971 -11.20502
 Alpha  occ. eigenvalues --   -1.59953  -1.39504  -1.19452  -1.08850  -1.08101
 Alpha  occ. eigenvalues --   -1.04851  -1.03191  -0.95685  -0.95654  -0.86675
 Alpha  occ. eigenvalues --   -0.86249  -0.82514  -0.79257  -0.77884  -0.77563
 Alpha  occ. eigenvalues --   -0.72137  -0.71293  -0.70556  -0.65103  -0.64853
 Alpha  occ. eigenvalues --   -0.64740  -0.62197  -0.60601  -0.59019  -0.57232
 Alpha  occ. eigenvalues --   -0.55351  -0.54965  -0.53181  -0.52941  -0.52336
 Alpha  occ. eigenvalues --   -0.52075  -0.49627  -0.48901  -0.48897  -0.47567
 Alpha  occ. eigenvalues --   -0.46311  -0.45475  -0.45374  -0.44819  -0.43439
 Alpha  occ. eigenvalues --   -0.37431  -0.36453
 Alpha virt. eigenvalues --    0.04951   0.11164   0.16429   0.21230   0.22997
 Alpha virt. eigenvalues --    0.24531   0.26288   0.27293   0.27602   0.28269
 Alpha virt. eigenvalues --    0.28564   0.30975   0.31517   0.32005   0.32306

 Mulliken charges:
               1
     1  C   -0.296987
     2  C   -0.299405
     3  C   -0.474614
     4  H    0.148302
     5  H    0.152417
     6  H    0.148569
     7  H    0.152127
     8  H    0.157167
     9  H    0.151727
    10  H    0.158729
    11  C   -0.298547
    12  C   -0.298894
    13  C   -0.476747
    14  H    0.145399
    15  H    0.148358
    16  H    0.153905
    17  H    0.156002
    18  H    0.152161
    19  H    0.149244
    20  H    0.168658
    21  C   -0.170700
    22  C   -0.218510
    23  C   -0.172122
    24  C    0.156121
    25  C   -0.170873
    26  C   -0.218578
    27  H    0.226015
    28  H    0.223876
    29  H    0.276067
    30  H    0.276158
    31  H    0.223898
    32  N    0.488665
    33  O   -0.458793
    34  O   -0.458792
 Sum of Mulliken charges =  -0.00000

 Dipole moment (field-independent basis, Debye):
    X=              1.3947    Y=             -3.8946    Z=             -3.0034  Tot=              5.1121
 Quadrupole moment (field-independent basis, Debye-Ang):
   XX=            -87.7997   YY=            -92.7768   ZZ=            -96.5636
   XY=             -8.2134   XZ=             -8.4031   YZ=             -2.6342

 Normal termination of Gaussian 16 at Thu May  6 10:31:51 2021.
