 Gaussian 16, Revision A.03,
 Gaussian 16:  EM64L-G16RevA.03 25-Dec-2016

 -------------
 #p 6-31g* mp2
 -------------

 ------------------------------------------------------
 Input file generated by CHIRIPA (05-May-2021 14:53:15)
 ------------------------------------------------------
 Symbolic Z-matrix:
 Charge =  0 Multiplicity = 1

                         Standard orientation:
 ---------------------------------------------------------------------
 Center     Atomic      Atomic             Coordinates (Angstroms)
 Number     Number       Type             X           Y           Z
 ---------------------------------------------------------------------
      1          6           0        4.819425   -0.050867    0.274844
      2          6           0        5.398720    1.121106   -0.518177
      3          6           0        6.736390    1.608470    0.039418
      4          1           0        4.692995    0.251118    1.323541
      5          1           0        5.542006   -0.878676    0.272890
      6          1           0        4.674680    1.945955   -0.515895
      7          1           0        5.523607    0.816357   -1.565147
      8          1           0        7.477547    0.802878    0.021866
      9          1           0        6.623797    1.938894    1.077080
     10          1           0        7.132453    2.446589   -0.542433
     11          6           0        3.482271   -0.549281   -0.270437
     12          6           0        2.902976   -1.721254    0.522583
     13          6           0        1.565307   -2.208618   -0.035011
     14          1           0        2.759691    0.278528   -0.268484
     15          1           0        3.608701   -0.851266   -1.319134
     16          1           0        2.778089   -1.416505    1.569554
     17          1           0        3.627016   -2.546103    0.520301
     18          1           0        1.677900   -2.539042   -1.072674
     19          1           0        0.824149   -1.403026   -0.017460
     20          1           0        1.169243   -3.046737    0.546839
     21          6           0       -3.438192    2.747190    0.115826
     22          6           0       -2.179045    2.139946    0.164036
     23          6           0       -2.058869    0.748555    0.099707
     24          6           0       -3.223965   -0.008491   -0.013085
     25          6           0       -4.492652    0.566989   -0.063542
     26          6           0       -4.588948    1.960161    0.002390
     27          1           0       -3.522273    3.828747    0.166421
     28          1           0       -1.283636    2.748657    0.252112
     29          1           0       -1.096581    0.252389    0.134893
     30          1           0       -5.367144   -0.066206   -0.151559
     31          1           0       -5.568129    2.429023   -0.035275
     32          7           0       -3.109380   -1.482437   -0.082036
     33          8           0       -4.151110   -2.127106   -0.181220
     34          8           0       -1.980008   -1.965137   -0.035591
 ---------------------------------------------------------------------

 SCF Done:  E(RHF) =  -669.535168286     A.U. after   15 cycles
 E2 =    -0.2091563801D+01 EUMP2 =    -0.67162673208698D+03

 The electronic state is 1-A.
 Alpha  occ. eigenvalues --  -20.60792 -20.60786 -15.85837 -11.31221 -11.27798
 Alpha  occ. eigenvalues --  -11.27787 -11.27536 -11.26812 -11.26802 -11.21638
 Alpha  occ. eigenvalues --  -11.21341 -11.21270 -11.21181 -11.21116 -11.20281
 Alpha  occ. eigenvalues --   -1.59867  -1.39420  -1.19396  -1.08788  -1.08299
 Alpha  occ. eigenvalues --   -1.04803  -1.03302  -0.95741  -0.95600  -0.86724
 Alpha  occ. eigenvalues --   -0.86200  -0.82454  -0.79372  -0.78118  -0.77486
 Alpha  occ. eigenvalues --   -0.72061  -0.71187  -0.70509  -0.65055  -0.64952
 Alpha  occ. eigenvalues --   -0.64801  -0.62171  -0.60700  -0.59116  -0.57331
 Alpha  occ. eigenvalues --   -0.55312  -0.55015  -0.53128  -0.52908  -0.52348
 Alpha  occ. eigenvalues --   -0.52135  -0.49712  -0.48820  -0.48792  -0.47654
 Alpha  occ. eigenvalues --   -0.46419  -0.45630  -0.45582  -0.44818  -0.43546
 Alpha  occ. eigenvalues --   -0.37376  -0.36405
 Alpha virt. eigenvalues --    0.05038   0.11248   0.16528   0.20450   0.22895
 Alpha virt. eigenvalues --    0.23925   0.25863   0.27129   0.27640   0.27785
 Alpha virt. eigenvalues --    0.29239   0.30334   0.31518   0.31927   0.32325

 Mulliken charges:
               1
     1  C   -0.297819
     2  C   -0.298924
     3  C   -0.475544
     4  H    0.148446
     5  H    0.150833
     6  H    0.148516
     7  H    0.152482
     8  H    0.156097
     9  H    0.154562
    10  H    0.159548
    11  C   -0.295678
    12  C   -0.302395
    13  C   -0.474426
    14  H    0.140237
    15  H    0.150691
    16  H    0.148956
    17  H    0.151493
    18  H    0.154490
    19  H    0.157518
    20  H    0.169593
    21  C   -0.170230
    22  C   -0.222320
    23  C   -0.172461
    24  C    0.154424
    25  C   -0.169778
    26  C   -0.219039
    27  H    0.225757
    28  H    0.224018
    29  H    0.285503
    30  H    0.275814
    31  H    0.223575
    32  N    0.490313
    33  O   -0.460313
    34  O   -0.463936
 Sum of Mulliken charges =  -0.00000

 Dipole moment (field-independent basis, Debye):
    X=             -0.5224    Y=              5.0583    Z=              0.2335  Tot=              5.0906
 Quadrupole moment (field-independent basis, Debye-Ang):
   XX=            -88.1801   YY=            -94.8516   ZZ=            -95.4284
   XY=            -17.5191   XZ=             -1.0259   YZ=              0.2566

 Normal termination of Gaussian 16 at Wed May  5 18:41:53 2021.
