 Gaussian 16, Revision A.03,
 Gaussian 16:  EM64L-G16RevA.03 25-Dec-2016

 -------------
 #p 6-31g* mp2
 -------------

 ------------------------------------------------------
 Input file generated by CHIRIPA (05-May-2021 14:57:22)
 ------------------------------------------------------
 Symbolic Z-matrix:
 Charge =  0 Multiplicity = 1

                         Standard orientation:
 ---------------------------------------------------------------------
 Center     Atomic      Atomic             Coordinates (Angstroms)
 Number     Number       Type             X           Y           Z
 ---------------------------------------------------------------------
      1          6           0        5.100913    1.414309   -1.213137
      2          6           0        5.576217    0.183382   -0.748996
      3          6           0        4.729563   -0.690961   -0.061064
      4          6           0        3.407445   -0.300607    0.146098
      5          6           0        2.904213    0.919005   -0.304007
      6          6           0        3.768776    1.777551   -0.989556
      7          1           0        5.765570    2.087383   -1.746613
      8          1           0        6.610297   -0.101348   -0.921190
      9          1           0        5.071344   -1.649895    0.309139
     10          1           0        1.868398    1.175115   -0.117154
     11          1           0        3.396905    2.732877   -1.348873
     12          7           0        2.501650   -1.217873    0.873119
     13          8           0        1.341076   -0.850565    1.042794
     14          8           0        2.969414   -2.286766    1.259516
     15          6           0       -2.816334    2.285112    1.094707
     16          6           0       -2.000716    1.149807    1.143426
     17          6           0       -2.400841   -0.038920    0.525869
     18          6           0       -3.628309   -0.057039   -0.134648
     19          6           0       -4.463141    1.057403   -0.200704
     20          6           0       -4.042781    2.235374    0.423980
     21          1           0       -2.497647    3.204365    1.577208
     22          1           0       -1.047730    1.185526    1.663604
     23          1           0       -1.789017   -0.932561    0.548129
     24          1           0       -5.407738    0.991160   -0.726791
     25          1           0       -4.678255    3.115522    0.384525
     26          7           0       -4.062615   -1.309797   -0.792200
     27          8           0       -5.148565   -1.299896   -1.367746
     28          8           0       -3.308851   -2.277891   -0.719593
 ---------------------------------------------------------------------

 SCF Done:  E(RHF) =  -868.339583068     A.U. after   16 cycles
 E2 =    -0.2599099612D+01 EUMP2 =    -0.87093868267975D+03

 The electronic state is 1-A.
 Alpha  occ. eigenvalues --  -20.61525 -20.61447 -20.60115 -20.60088 -15.86532
 Alpha  occ. eigenvalues --  -15.85153 -11.31711 -11.30464 -11.28298 -11.28225
 Alpha  occ. eigenvalues --  -11.27955 -11.27247 -11.27205 -11.27129 -11.26874
 Alpha  occ. eigenvalues --  -11.26865 -11.26162 -11.25950  -1.60535  -1.59184
 Alpha  occ. eigenvalues --   -1.40104  -1.38734  -1.19862  -1.18660  -1.09286
 Alpha  occ. eigenvalues --   -1.08090  -1.05243  -1.04023  -0.96156  -0.94915
 Alpha  occ. eigenvalues --   -0.86650  -0.85445  -0.83010  -0.81719  -0.78079
 Alpha  occ. eigenvalues --   -0.76749  -0.72770  -0.71835  -0.71371  -0.70973
 Alpha  occ. eigenvalues --   -0.70510  -0.69782  -0.65525  -0.65245  -0.64302
 Alpha  occ. eigenvalues --   -0.64020  -0.62600  -0.61317  -0.55742  -0.54604
 Alpha  occ. eigenvalues --   -0.53573  -0.53337  -0.52414  -0.52093  -0.49518
 Alpha  occ. eigenvalues --   -0.49467  -0.48141  -0.48116  -0.45543  -0.44149
 Alpha  occ. eigenvalues --   -0.37823  -0.36836  -0.36711  -0.35640
 Alpha virt. eigenvalues --    0.04447   0.05731   0.10821   0.11969   0.15971
 Alpha virt. eigenvalues --    0.17166   0.20598   0.22138   0.26086   0.27204
 Alpha virt. eigenvalues --    0.28706   0.29053   0.30543   0.31350   0.32746

 Mulliken charges:
               1
     1  C   -0.169981
     2  C   -0.218299
     3  C   -0.169941
     4  C    0.158898
     5  C   -0.170430
     6  C   -0.218254
     7  H    0.227419
     8  H    0.225578
     9  H    0.277361
    10  H    0.270723
    11  H    0.224000
    12  N    0.493777
    13  O   -0.475644
    14  O   -0.452819
    15  C   -0.172398
    16  C   -0.227543
    17  C   -0.174524
    18  C    0.157452
    19  C   -0.171988
    20  C   -0.219622
    21  H    0.220989
    22  H    0.233162
    23  H    0.293017
    24  H    0.273053
    25  H    0.219745
    26  N    0.487619
    27  O   -0.464406
    28  O   -0.456943
 Sum of Mulliken charges =  -0.00000

 Dipole moment (field-independent basis, Debye):
    X=              5.2179    Y=              7.4183    Z=             -0.2320  Tot=              9.0725
 Quadrupole moment (field-independent basis, Debye-Ang):
   XX=            -88.2286   YY=           -105.1003   ZZ=           -107.2600
   XY=            -10.6941   XZ=            -15.4870   YZ=             -0.9092

 Normal termination of Gaussian 16 at Thu May  6 04:55:28 2021.
