 Gaussian 16, Revision A.03,
 Gaussian 16:  EM64L-G16RevA.03 25-Dec-2016

 -------------
 #p 6-31g* mp2
 -------------

 ------------------------------------------------------
 Input file generated by CHIRIPA (05-May-2021 14:51:13)
 ------------------------------------------------------
 Symbolic Z-matrix:
 Charge =  0 Multiplicity = 1

                         Standard orientation:
 ---------------------------------------------------------------------
 Center     Atomic      Atomic             Coordinates (Angstroms)
 Number     Number       Type             X           Y           Z
 ---------------------------------------------------------------------
      1          6           0        2.606475    0.439565   -0.311320
      2          6           0        2.483409    1.956679   -0.165705
      3          6           0        3.079824    2.714730   -1.352062
      4          1           0        3.666404    0.173112   -0.423117
      5          1           0        2.105800    0.125303   -1.237581
      6          1           0        2.982972    2.267821    0.760710
      7          1           0        1.423666    2.219534   -0.054050
      8          1           0        2.575598    2.432951   -2.282094
      9          1           0        4.143764    2.481512   -1.462705
     10          1           0        2.981063    3.797560   -1.227224
     11          6           0        2.014750   -0.332097    0.866868
     12          6           0        2.137816   -1.849211    0.721253
     13          6           0        1.541402   -2.607261    1.907610
     14          1           0        2.515425   -0.017835    1.793129
     15          1           0        0.954822   -0.065644    0.978665
     16          1           0        3.197560   -2.112066    0.609598
     17          1           0        1.638254   -2.160352   -0.205162
     18          1           0        0.477461   -2.374044    2.018253
     19          1           0        2.045627   -2.325483    2.837642
     20          1           0        1.640163   -3.690092    1.782772
     21          6           0       -1.883579   -0.420325   -0.794190
     22          6           0       -2.134149   -1.928327   -0.827769
     23          6           0       -1.272454   -2.647793   -1.865867
     24          1           0       -2.079591   -0.000220   -1.790201
     25          1           0       -0.821364   -0.236825   -0.581067
     26          1           0       -3.195855   -2.108911   -1.039396
     27          1           0       -1.937703   -2.344861    0.168486
     28          1           0       -0.208807   -2.497090   -1.654813
     29          1           0       -1.474107   -2.259799   -2.869560
     30          1           0       -1.467683   -3.724684   -1.872875
     31          6           0       -2.737647    0.312856    0.238642
     32          6           0       -2.487077    1.820859    0.272221
     33          6           0       -3.348771    2.540324    1.310318
     34          1           0       -3.799862    0.129356    0.025519
     35          1           0       -2.541634   -0.107249    1.234653
     36          1           0       -2.683523    2.237393   -0.724034
     37          1           0       -1.425371    2.001443    0.483849
     38          1           0       -3.147118    2.152331    2.314011
     39          1           0       -4.412419    2.389622    1.099265
     40          1           0       -3.153542    3.617216    1.317327
 ---------------------------------------------------------------------

 SCF Done:  E(RHF) =  -470.732684757     A.U. after   11 cycles
 E2 =    -0.1585526909D+01 EUMP2 =    -0.47231821166643D+03

 The electronic state is 1-A.
 Alpha  occ. eigenvalues --  -11.21668 -11.21657 -11.21656 -11.21636 -11.21461
 Alpha  occ. eigenvalues --  -11.21455 -11.21398 -11.21395 -11.21135 -11.21111
 Alpha  occ. eigenvalues --  -11.21108 -11.21082  -1.08553  -1.08433  -1.03621
 Alpha  occ. eigenvalues --   -1.03541  -0.96065  -0.95994  -0.87052  -0.87040
 Alpha  occ. eigenvalues --   -0.79666  -0.79629  -0.78365  -0.78258  -0.65603
 Alpha  occ. eigenvalues --   -0.64702  -0.61274  -0.60679  -0.59397  -0.59392
 Alpha  occ. eigenvalues --   -0.57650  -0.57634  -0.55571  -0.55104  -0.52727
 Alpha  occ. eigenvalues --   -0.52709  -0.52516  -0.52391  -0.50057  -0.49960
 Alpha  occ. eigenvalues --   -0.48112  -0.47828  -0.46748  -0.46594  -0.46283
 Alpha  occ. eigenvalues --   -0.45809  -0.45689  -0.45292  -0.43841  -0.43822
 Alpha virt. eigenvalues --    0.18408   0.21634   0.22992   0.25100   0.25283
 Alpha virt. eigenvalues --    0.25890   0.26494   0.27981   0.28478   0.30137
 Alpha virt. eigenvalues --    0.31127   0.31438   0.31554   0.31868   0.32310

 Mulliken charges:
               1
     1  C   -0.299570
     2  C   -0.303370
     3  C   -0.475650
     4  H    0.150294
     5  H    0.150353
     6  H    0.152076
     7  H    0.154925
     8  H    0.155694
     9  H    0.155203
    10  H    0.160384
    11  C   -0.303142
    12  C   -0.307103
    13  C   -0.476615
    14  H    0.150589
    15  H    0.152473
    16  H    0.152885
    17  H    0.158277
    18  H    0.155516
    19  H    0.155544
    20  H    0.160847
    21  C   -0.306757
    22  C   -0.300631
    23  C   -0.481761
    24  H    0.149897
    25  H    0.157283
    26  H    0.152521
    27  H    0.153141
    28  H    0.160179
    29  H    0.155375
    30  H    0.160859
    31  C   -0.298166
    32  C   -0.304018
    33  C   -0.475624
    34  H    0.150203
    35  H    0.149347
    36  H    0.152298
    37  H    0.154796
    38  H    0.155502
    39  H    0.155412
    40  H    0.160532
 Sum of Mulliken charges =  -0.00000

 Dipole moment (field-independent basis, Debye):
    X=              0.0047    Y=             -0.0012    Z=             -0.0039  Tot=              0.0062
 Quadrupole moment (field-independent basis, Debye-Ang):
   XX=            -83.7754   YY=            -85.6170   ZZ=            -85.1687
   XY=             -0.0071   XZ=              1.6310   YZ=             -0.0187

 Normal termination of Gaussian 16 at Wed May  5 16:52:12 2021.
