 Gaussian 16, Revision A.03,
 Gaussian 16:  EM64L-G16RevA.03 25-Dec-2016

 -------------
 #p 6-31g* mp2
 -------------

 ------------------------------------------------------
 Input file generated by CHIRIPA (05-May-2021 14:51:14)
 ------------------------------------------------------
 Symbolic Z-matrix:
 Charge =  0 Multiplicity = 1

                         Standard orientation:
 ---------------------------------------------------------------------
 Center     Atomic      Atomic             Coordinates (Angstroms)
 Number     Number       Type             X           Y           Z
 ---------------------------------------------------------------------
      1          6           0       -4.305938    0.080761    0.065917
      2          6           0       -4.255203   -1.422058   -0.211478
      3          6           0       -5.602737   -2.109838    0.009661
      4          1           0       -4.637822    0.245263    1.100198
      5          1           0       -5.064292    0.540868   -0.582616
      6          1           0       -3.496198   -1.878978    0.436405
      7          1           0       -3.923217   -1.583006   -1.245159
      8          1           0       -6.366475   -1.681092   -0.647211
      9          1           0       -5.937030   -1.978745    1.043907
     10          1           0       -5.543730   -3.183513   -0.194301
     11          6           0       -2.966341    0.782369   -0.150772
     12          6           0       -3.017077    2.285187    0.126623
     13          6           0       -1.669542    2.972968   -0.094516
     14          1           0       -2.207987    0.322262    0.497761
     15          1           0       -2.634457    0.617866   -1.185053
     16          1           0       -3.349063    2.446136    1.160304
     17          1           0       -3.776081    2.742108   -0.521259
     18          1           0       -1.335249    2.841875   -1.128761
     19          1           0       -0.905804    2.544221    0.562356
     20          1           0       -1.728550    4.046643    0.109446
     21          6           0        2.920110   -0.191637    0.157175
     22          6           0        1.879327   -1.303935    0.024702
     23          6           0        0.451659   -0.808369    0.257014
     24          1           0        2.843997    0.255758    1.157670
     25          1           0        2.686732    0.606749   -0.560816
     26          1           0        2.115396   -2.100616    0.741771
     27          1           0        1.958055   -1.748862   -0.975527
     28          1           0        0.191926   -0.028867   -0.466531
     29          1           0        0.350161   -0.382619    1.260525
     30          1           0       -0.276122   -1.619722    0.157504
     31          6           0        4.352170   -0.671493   -0.072321
     32          6           0        5.392952    0.440806    0.060153
     33          6           0        6.820621   -0.054760   -0.172159
     34          1           0        4.585547   -1.469878    0.645671
     35          1           0        4.428282   -1.118887   -1.072816
     36          1           0        5.314224    0.885733    1.060382
     37          1           0        5.156883    1.237487   -0.656916
     38          1           0        6.922118   -0.480510   -1.175671
     39          1           0        7.080354   -0.834263    0.551385
     40          1           0        7.548401    0.756593   -0.072650
 ---------------------------------------------------------------------

 SCF Done:  E(RHF) =  -470.732792274     A.U. after   11 cycles
 E2 =    -0.1583385576D+01 EUMP2 =    -0.47231617784996D+03

 The electronic state is 1-A.
 Alpha  occ. eigenvalues --  -11.21591 -11.21571 -11.21561 -11.21524 -11.21393
 Alpha  occ. eigenvalues --  -11.21334 -11.21307 -11.21195 -11.21063 -11.21041
 Alpha  occ. eigenvalues --  -11.21034 -11.21018  -1.08424  -1.08345  -1.03530
 Alpha  occ. eigenvalues --   -1.03461  -0.95988  -0.95903  -0.87026  -0.86911
 Alpha  occ. eigenvalues --   -0.79677  -0.79482  -0.78288  -0.78069  -0.65048
 Alpha  occ. eigenvalues --   -0.64984  -0.60916  -0.60874  -0.59359  -0.59283
 Alpha  occ. eigenvalues --   -0.57588  -0.57513  -0.55261  -0.55205  -0.52767
 Alpha  occ. eigenvalues --   -0.52595  -0.52426  -0.52280  -0.49924  -0.49856
 Alpha  occ. eigenvalues --   -0.48085  -0.47706  -0.46632  -0.46559  -0.45934
 Alpha  occ. eigenvalues --   -0.45734  -0.45611  -0.45406  -0.43748  -0.43680
 Alpha virt. eigenvalues --    0.21751   0.23009   0.23634   0.24492   0.25558
 Alpha virt. eigenvalues --    0.26396   0.27029   0.27225   0.28052   0.29665
 Alpha virt. eigenvalues --    0.30139   0.31052   0.31580   0.32027   0.32388

 Mulliken charges:
               1
     1  C   -0.297738
     2  C   -0.300306
     3  C   -0.475608
     4  H    0.149070
     5  H    0.148905
     6  H    0.152162
     7  H    0.151734
     8  H    0.155181
     9  H    0.155095
    10  H    0.159971
    11  C   -0.305926
    12  C   -0.298956
    13  C   -0.477406
    14  H    0.162987
    15  H    0.148110
    16  H    0.151297
    17  H    0.151229
    18  H    0.154022
    19  H    0.157421
    20  H    0.159863
    21  C   -0.298409
    22  C   -0.301074
    23  C   -0.479335
    24  H    0.149265
    25  H    0.149892
    26  H    0.151461
    27  H    0.151889
    28  H    0.160987
    29  H    0.152944
    30  H    0.161283
    31  C   -0.298225
    32  C   -0.299618
    33  C   -0.475698
    34  H    0.149450
    35  H    0.149619
    36  H    0.151895
    37  H    0.152034
    38  H    0.155156
    39  H    0.155132
    40  H    0.160245
 Sum of Mulliken charges =  -0.00000

 Dipole moment (field-independent basis, Debye):
    X=              0.0191    Y=             -0.0070    Z=              0.0038  Tot=              0.0206
 Quadrupole moment (field-independent basis, Debye-Ang):
   XX=            -86.9870   YY=            -85.3012   ZZ=            -82.8426
   XY=             -0.3573   XZ=              0.5401   YZ=             -0.3048

 Normal termination of Gaussian 16 at Thu May  6 02:24:38 2021.
