 Gaussian 16, Revision A.03,
 Gaussian 16:  EM64L-G16RevA.03 25-Dec-2016

 -------------
 #p 6-31g* mp2
 -------------

 ------------------------------------------------------
 Input file generated by CHIRIPA (05-May-2021 14:57:20)
 ------------------------------------------------------
 Symbolic Z-matrix:
 Charge =  0 Multiplicity = 1

                         Standard orientation:
 ---------------------------------------------------------------------
 Center     Atomic      Atomic             Coordinates (Angstroms)
 Number     Number       Type             X           Y           Z
 ---------------------------------------------------------------------
      1          6           0       -2.055439    1.399374    0.449729
      2          6           0       -3.244863    1.693589    1.124435
      3          6           0       -4.396122    0.933288    0.898394
      4          6           0       -4.321992   -0.118759   -0.013193
      5          6           0       -3.151856   -0.436703   -0.700932
      6          6           0       -2.012807    0.337040   -0.459198
      7          1           0       -1.165856    1.995216    0.631419
      8          1           0       -3.280900    2.518021    1.830876
      9          1           0       -5.330097    1.139167    1.407041
     10          1           0       -3.146783   -1.264759   -1.399299
     11          1           0       -1.090464    0.106255   -0.984619
     12          7           0       -5.534315   -0.930771   -0.260799
     13          8           0       -5.442962   -1.852374   -1.068846
     14          8           0       -6.552932   -0.630248    0.357862
     15          6           0        1.975142    1.231995   -0.475893
     16          6           0        1.974862    0.120526    0.373317
     17          6           0        3.158601   -0.578040    0.628883
     18          6           0        4.329755   -0.135632    0.015723
     19          6           0        4.362320    0.968100   -0.835162
     20          6           0        3.166769    1.651495   -1.076363
     21          1           0        1.050997    1.768764   -0.668844
     22          1           0        1.050917   -0.207525    0.841028
     23          1           0        3.186873   -1.441724    1.282082
     24          1           0        5.299040    1.271290   -1.286882
     25          1           0        3.169974    2.514338   -1.736315
     26          7           0        5.589179   -0.867142    0.278676
     27          8           0        6.607723   -0.457263   -0.273777
     28          8           0        5.533924   -1.836526    1.032252
 ---------------------------------------------------------------------

 SCF Done:  E(RHF) =  -868.336267846     A.U. after   16 cycles
 E2 =    -0.2601090118D+01 EUMP2 =    -0.87093735796349D+03

 The electronic state is 1-A.
 Alpha  occ. eigenvalues --  -20.61413 -20.61407 -20.61380 -20.61375 -15.86472
 Alpha  occ. eigenvalues --  -15.86438 -11.32042 -11.32006 -11.28644 -11.28600
 Alpha  occ. eigenvalues --  -11.28576 -11.28555 -11.28544 -11.28513 -11.27782
 Alpha  occ. eigenvalues --  -11.27710 -11.27684 -11.27665  -1.60483  -1.60451
 Alpha  occ. eigenvalues --   -1.40031  -1.39998  -1.20254  -1.20202  -1.09674
 Alpha  occ. eigenvalues --   -1.09573  -1.05680  -1.05612  -0.96476  -0.96357
 Alpha  occ. eigenvalues --   -0.87153  -0.86971  -0.83257  -0.83195  -0.78259
 Alpha  occ. eigenvalues --   -0.78164  -0.72695  -0.72654  -0.71808  -0.71774
 Alpha  occ. eigenvalues --   -0.71725  -0.71137  -0.66021  -0.65881  -0.65802
 Alpha  occ. eigenvalues --   -0.65413  -0.63062  -0.62868  -0.56488  -0.56035
 Alpha  occ. eigenvalues --   -0.54025  -0.53988  -0.53758  -0.53655  -0.49466
 Alpha  occ. eigenvalues --   -0.49430  -0.49428  -0.49395  -0.45390  -0.45357
 Alpha  occ. eigenvalues --   -0.38290  -0.38255  -0.37270  -0.37194
 Alpha virt. eigenvalues --    0.04284   0.04302   0.10184   0.10394   0.15671
 Alpha virt. eigenvalues --    0.15742   0.17812   0.22065   0.24984   0.26317
 Alpha virt. eigenvalues --    0.26940   0.29546   0.29706   0.31077   0.31527

 Mulliken charges:
               1
     1  C   -0.177142
     2  C   -0.217297
     3  C   -0.169624
     4  C    0.159517
     5  C   -0.169511
     6  C   -0.225423
     7  H    0.220555
     8  H    0.226669
     9  H    0.278827
    10  H    0.279060
    11  H    0.222367
    12  N    0.487842
    13  O   -0.457986
    14  O   -0.457813
    15  C   -0.178771
    16  C   -0.223320
    17  C   -0.169614
    18  C    0.159848
    19  C   -0.170002
    20  C   -0.217363
    21  H    0.218888
    22  H    0.224537
    23  H    0.279037
    24  H    0.278564
    25  H    0.226222
    26  N    0.487805
    27  O   -0.457991
    28  O   -0.457881
 Sum of Mulliken charges =  -0.00000

 Dipole moment (field-independent basis, Debye):
    X=             -0.1771    Y=              5.3212    Z=             -0.0264  Tot=              5.3242
 Quadrupole moment (field-independent basis, Debye-Ang):
   XX=           -175.7944   YY=           -103.5044   ZZ=           -101.8176
   XY=             -0.9930   XZ=            -11.7104   YZ=             -0.0196

 Normal termination of Gaussian 16 at Wed May  5 20:51:33 2021.
