 Gaussian 16, Revision A.03,
 Gaussian 16:  EM64L-G16RevA.03 25-Dec-2016

 -------------
 #p 6-31g* mp2
 -------------

 ------------------------------------------------------
 Input file generated by CHIRIPA (05-May-2021 14:51:09)
 ------------------------------------------------------
 Symbolic Z-matrix:
 Charge =  0 Multiplicity = 1

                         Standard orientation:
 ---------------------------------------------------------------------
 Center     Atomic      Atomic             Coordinates (Angstroms)
 Number     Number       Type             X           Y           Z
 ---------------------------------------------------------------------
      1          6           0       -2.360800   -1.390885   -0.361980
      2          6           0       -0.839421   -1.472832   -0.491117
      3          6           0       -0.359144   -2.846316   -0.960870
      4          1           0       -2.704746   -2.161499    0.341440
      5          1           0       -2.817507   -1.627716   -1.332920
      6          1           0       -0.385677   -1.234564    0.479430
      7          1           0       -0.499038   -0.701808   -1.194165
      8          1           0       -0.784546   -3.089038   -1.940013
      9          1           0       -0.670541   -3.624822   -0.256909
     10          1           0        0.731378   -2.882680   -1.046312
     11          6           0       -2.856253   -0.023928    0.106724
     12          6           0       -4.377631    0.058019    0.235861
     13          6           0       -4.857909    1.431503    0.705615
     14          1           0       -2.399545    0.212903    1.077664
     15          1           0       -2.512307    0.746686   -0.596696
     16          1           0       -4.718015   -0.713005    0.938909
     17          1           0       -4.831376   -0.180249   -0.734686
     18          1           0       -4.546512    2.210009    0.001653
     19          1           0       -4.432507    1.674226    1.684757
     20          1           0       -5.948430    1.467867    0.791057
     21          6           0        2.227168    1.341826    0.316069
     22          6           0        2.293622    2.430210   -0.755841
     23          6           0        1.525946    3.693204   -0.364289
     24          1           0        1.175458    1.088720    0.507872
     25          1           0        2.629743    1.739520    1.257965
     26          1           0        1.892319    2.030145   -1.695798
     27          1           0        3.345304    2.680617   -0.945251
     28          1           0        1.930039    4.118641    0.560001
     29          1           0        0.468798    3.464473   -0.194810
     30          1           0        1.586674    4.458089   -1.144752
     31          6           0        2.989884    0.072986   -0.060813
     32          6           0        2.923431   -1.015397    1.011097
     33          6           0        3.691108   -2.278391    0.619544
     34          1           0        2.587310   -0.324707   -1.002710
     35          1           0        4.041594    0.326092   -0.252616
     36          1           0        1.871749   -1.265804    1.200507
     37          1           0        3.324733   -0.615332    1.951054
     38          1           0        4.748255   -2.049659    0.450065
     39          1           0        3.287015   -2.703828   -0.304746
     40          1           0        3.630379   -3.043277    1.400007
 ---------------------------------------------------------------------

 SCF Done:  E(RHF) =  -470.732799497     A.U. after   11 cycles
 E2 =    -0.1584634153D+01 EUMP2 =    -0.47231743364989D+03

 The electronic state is 1-A.
 Alpha  occ. eigenvalues --  -11.21694 -11.21654 -11.21566 -11.21538 -11.21482
 Alpha  occ. eigenvalues --  -11.21422 -11.21344 -11.21276 -11.21151 -11.21107
 Alpha  occ. eigenvalues --  -11.21060 -11.21041  -1.08526  -1.08368  -1.03624
 Alpha  occ. eigenvalues --   -1.03478  -0.96052  -0.95942  -0.87067  -0.86959
 Alpha  occ. eigenvalues --   -0.79703  -0.79543  -0.78383  -0.78142  -0.65184
 Alpha  occ. eigenvalues --   -0.65014  -0.61149  -0.60843  -0.59351  -0.59311
 Alpha  occ. eigenvalues --   -0.57627  -0.57553  -0.55366  -0.55216  -0.52743
 Alpha  occ. eigenvalues --   -0.52645  -0.52476  -0.52353  -0.50020  -0.49869
 Alpha  occ. eigenvalues --   -0.48033  -0.47886  -0.46909  -0.46471  -0.46122
 Alpha  occ. eigenvalues --   -0.45814  -0.45677  -0.45241  -0.43842  -0.43740
 Alpha virt. eigenvalues --    0.19728   0.22561   0.23394   0.24673   0.25323
 Alpha virt. eigenvalues --    0.26140   0.27143   0.27444   0.28342   0.29781
 Alpha virt. eigenvalues --    0.30096   0.30945   0.31711   0.31797   0.32507

 Mulliken charges:
               1
     1  C   -0.297796
     2  C   -0.305891
     3  C   -0.480639
     4  H    0.149979
     5  H    0.149809
     6  H    0.156792
     7  H    0.152760
     8  H    0.155663
     9  H    0.155741
    10  H    0.164644
    11  C   -0.298955
    12  C   -0.299617
    13  C   -0.475837
    14  H    0.149645
    15  H    0.149362
    16  H    0.152170
    17  H    0.152146
    18  H    0.155281
    19  H    0.155382
    20  H    0.160489
    21  C   -0.301784
    22  C   -0.299587
    23  C   -0.475848
    24  H    0.154047
    25  H    0.148867
    26  H    0.151269
    27  H    0.151773
    28  H    0.155133
    29  H    0.155461
    30  H    0.159941
    31  C   -0.298581
    32  C   -0.305937
    33  C   -0.477470
    34  H    0.150265
    35  H    0.149437
    36  H    0.158421
    37  H    0.151727
    38  H    0.155240
    39  H    0.156239
    40  H    0.160259
 Sum of Mulliken charges =  -0.00000

 Dipole moment (field-independent basis, Debye):
    X=             -0.0483    Y=             -0.0230    Z=              0.0077  Tot=              0.0541
 Quadrupole moment (field-independent basis, Debye-Ang):
   XX=            -84.6309   YY=            -86.4000   ZZ=            -83.7725
   XY=              1.2698   XZ=              0.6569   YZ=             -0.5774

 Normal termination of Gaussian 16 at Thu May  6 05:19:34 2021.
