 Gaussian 16, Revision A.03,
 Gaussian 16:  EM64L-G16RevA.03 25-Dec-2016

 -------------
 #p 6-31g* mp2
 -------------

 ------------------------------------------------------
 Input file generated by CHIRIPA (05-May-2021 14:53:14)
 ------------------------------------------------------
 Symbolic Z-matrix:
 Charge =  0 Multiplicity = 1

                         Standard orientation:
 ---------------------------------------------------------------------
 Center     Atomic      Atomic             Coordinates (Angstroms)
 Number     Number       Type             X           Y           Z
 ---------------------------------------------------------------------
      1          6           0       -3.644527    0.637893    0.000316
      2          6           0       -3.953028   -0.859703    0.004590
      3          6           0       -5.453382   -1.154204    0.003494
      4          1           0       -4.111884    1.104569    0.878232
      5          1           0       -4.108859    1.098302   -0.882755
      6          1           0       -3.487088   -1.317391    0.886654
      7          1           0       -3.484721   -1.322901   -0.873336
      8          1           0       -5.929733   -0.724162   -0.883498
      9          1           0       -5.932114   -0.718621    0.886491
     10          1           0       -5.651220   -2.230638    0.006597
     11          6           0       -2.148742    0.948303    0.001356
     12          6           0       -1.840241    2.445899   -0.002917
     13          6           0       -0.339887    2.740399   -0.001821
     14          1           0       -1.684410    0.487894    0.884427
     15          1           0       -1.681385    0.481627   -0.876559
     16          1           0       -2.308548    2.909097    0.875008
     17          1           0       -2.306181    2.903587   -0.884982
     18          1           0        0.138845    2.304817   -0.884819
     19          1           0        0.136464    2.310358    0.885171
     20          1           0       -0.142049    3.816834   -0.004925
     21          6           0        4.518159    0.511808    0.006973
     22          6           0        3.889609    0.195487    1.215851
     23          6           0        2.640028   -0.431438    1.223626
     24          6           0        2.044974   -0.728989   -0.001390
     25          6           0        2.645845   -0.426545   -1.222363
     26          6           0        3.895369    0.200332   -1.206138
     27          1           0        5.488842    0.998800    0.010255
     28          1           0        4.370923    0.436203    2.159481
     29          1           0        2.131041   -0.687541    2.144907
     30          1           0        2.141247   -0.678957   -2.147072
     31          1           0        4.381163    0.444814   -2.146498
     32          7           0        0.722129   -1.392660   -0.005864
     33          8           0        0.218825   -1.644288   -1.098569
     34          8           0        0.213636   -1.648652    1.083420
 ---------------------------------------------------------------------

 SCF Done:  E(RHF) =  -669.536401022     A.U. after   15 cycles
 E2 =    -0.2093837610D+01 EUMP2 =    -0.67163023863172D+03

 The electronic state is 1-A.
 Alpha  occ. eigenvalues --  -20.60991 -20.60986 -15.85970 -11.31290 -11.27847
 Alpha  occ. eigenvalues --  -11.27843 -11.27572 -11.26853 -11.26843 -11.20875
 Alpha  occ. eigenvalues --  -11.20698 -11.20275 -11.20169 -11.20083 -11.19999
 Alpha  occ. eigenvalues --   -1.60015  -1.39582  -1.19448  -1.08855  -1.07355
 Alpha  occ. eigenvalues --   -1.04845  -1.02590  -0.95705  -0.95072  -0.86247
 Alpha  occ. eigenvalues --   -0.86109  -0.82548  -0.78640  -0.77603  -0.77126
 Alpha  occ. eigenvalues --   -0.72224  -0.71278  -0.70561  -0.65112  -0.64850
 Alpha  occ. eigenvalues --   -0.63993  -0.62198  -0.59999  -0.58470  -0.56670
 Alpha  occ. eigenvalues --   -0.55350  -0.54387  -0.53189  -0.52940  -0.51815
 Alpha  occ. eigenvalues --   -0.51476  -0.49067  -0.48994  -0.48985  -0.46944
 Alpha  occ. eigenvalues --   -0.45845  -0.45181  -0.44595  -0.44102  -0.42784
 Alpha  occ. eigenvalues --   -0.37402  -0.36436
 Alpha virt. eigenvalues --    0.04870   0.11160   0.16343   0.21318   0.23846
 Alpha virt. eigenvalues --    0.24989   0.27202   0.27800   0.27958   0.28437
 Alpha virt. eigenvalues --    0.29236   0.31030   0.31877   0.32363   0.32666

 Mulliken charges:
               1
     1  C   -0.297468
     2  C   -0.300777
     3  C   -0.475593
     4  H    0.144390
     5  H    0.144316
     6  H    0.160691
     7  H    0.160879
     8  H    0.151020
     9  H    0.150984
    10  H    0.158963
    11  C   -0.313425
    12  C   -0.297492
    13  C   -0.476842
    14  H    0.160990
    15  H    0.161384
    16  H    0.149017
    17  H    0.149035
    18  H    0.151773
    19  H    0.151762
    20  H    0.156763
    21  C   -0.170263
    22  C   -0.218066
    23  C   -0.171527
    24  C    0.162533
    25  C   -0.171543
    26  C   -0.218060
    27  H    0.226034
    28  H    0.223834
    29  H    0.275368
    30  H    0.275372
    31  H    0.223836
    32  N    0.489184
    33  O   -0.458594
    34  O   -0.458477
 Sum of Mulliken charges =  -0.00000

 Dipole moment (field-independent basis, Debye):
    X=              4.9001    Y=              2.0695    Z=              0.0158  Tot=              5.3193
 Quadrupole moment (field-independent basis, Debye-Ang):
   XX=            -78.3124   YY=            -99.6846   ZZ=            -88.6570
   XY=              1.5302   XZ=              0.0122   YZ=             -0.0222

 Normal termination of Gaussian 16 at Wed May  5 18:36:56 2021.
