 Gaussian 16, Revision A.03,
 Gaussian 16:  EM64L-G16RevA.03 25-Dec-2016

 -------------
 #p 6-31g* mp2
 -------------

 ------------------------------------------------------
 Input file generated by CHIRIPA (05-May-2021 14:57:23)
 ------------------------------------------------------
 Symbolic Z-matrix:
 Charge =  0 Multiplicity = 1

                         Standard orientation:
 ---------------------------------------------------------------------
 Center     Atomic      Atomic             Coordinates (Angstroms)
 Number     Number       Type             X           Y           Z
 ---------------------------------------------------------------------
      1          6           0       -1.977193    0.883576    1.047272
      2          6           0       -2.736088    1.659660    0.165062
      3          6           0       -3.939922    1.173067   -0.353165
      4          6           0       -4.356813   -0.099614    0.033844
      5          6           0       -3.623024   -0.896867    0.910901
      6          6           0       -2.422299   -0.389965    1.416725
      7          1           0       -1.043234    1.269462    1.445026
      8          1           0       -2.392871    2.649062   -0.123609
      9          1           0       -4.547124    1.752688   -1.037828
     10          1           0       -3.991062   -1.879429    1.180231
     11          1           0       -1.834995   -0.994903    2.101685
     12          7           0       -5.629613   -0.625497   -0.508214
     13          8           0       -5.975025   -1.749874   -0.151698
     14          8           0       -6.257720    0.096649   -1.279332
     15          6           0        2.747607    2.110591   -0.037315
     16          6           0        4.142339    2.201354   -0.092125
     17          6           0        4.927718    1.045743   -0.140010
     18          6           0        4.282332   -0.189851   -0.131482
     19          6           0        2.894821   -0.313053   -0.077420
     20          6           0        2.129389    0.855891   -0.030150
     21          1           0        2.145253    3.013476   -0.000356
     22          1           0        4.625178    3.174431   -0.097819
     23          1           0        6.009322    1.087091   -0.182924
     24          1           0        2.442194   -1.297191   -0.073098
     25          1           0        1.046415    0.782372    0.012366
     26          7           0        5.103219   -1.420302   -0.181850
     27          8           0        4.510410   -2.496936   -0.173196
     28          8           0        6.323895   -1.284796   -0.229030
 ---------------------------------------------------------------------

 SCF Done:  E(RHF) =  -868.336826899     A.U. after   16 cycles
 E2 =    -0.2599927858D+01 EUMP2 =    -0.87093675475620D+03

 The electronic state is 1-A.
 Alpha  occ. eigenvalues --  -20.61292 -20.61285 -20.61269 -20.61262 -15.86349
 Alpha  occ. eigenvalues --  -15.86327 -11.31905 -11.31816 -11.28470 -11.28440
 Alpha  occ. eigenvalues --  -11.28432 -11.28382 -11.28351 -11.28230 -11.27612
 Alpha  occ. eigenvalues --  -11.27554 -11.27510 -11.27424  -1.60361  -1.60341
 Alpha  occ. eigenvalues --   -1.39909  -1.39891  -1.20096  -1.20013  -1.09490
 Alpha  occ. eigenvalues --   -1.09395  -1.05509  -1.05438  -0.96286  -0.96204
 Alpha  occ. eigenvalues --   -0.86915  -0.86843  -0.83111  -0.83020  -0.78092
 Alpha  occ. eigenvalues --   -0.78051  -0.72564  -0.72543  -0.71685  -0.71666
 Alpha  occ. eigenvalues --   -0.71285  -0.71138  -0.65755  -0.65673  -0.65570
 Alpha  occ. eigenvalues --   -0.65413  -0.62837  -0.62786  -0.56158  -0.55921
 Alpha  occ. eigenvalues --   -0.53881  -0.53756  -0.53606  -0.53476  -0.49341
 Alpha  occ. eigenvalues --   -0.49310  -0.49307  -0.49289  -0.45271  -0.45269
 Alpha  occ. eigenvalues --   -0.38135  -0.38018  -0.37099  -0.37038
 Alpha virt. eigenvalues --    0.04364   0.04493   0.10517   0.10571   0.15604
 Alpha virt. eigenvalues --    0.15937   0.19162   0.21795   0.25622   0.26480
 Alpha virt. eigenvalues --    0.27534   0.28927   0.29875   0.30959   0.31895

 Mulliken charges:
               1
     1  C   -0.177704
     2  C   -0.218463
     3  C   -0.170017
     4  C    0.160260
     5  C   -0.169915
     6  C   -0.219379
     7  H    0.221115
     8  H    0.221878
     9  H    0.277812
    10  H    0.278954
    11  H    0.226595
    12  N    0.487855
    13  O   -0.457655
    14  O   -0.458595
    15  C   -0.171571
    16  C   -0.217989
    17  C   -0.170019
    18  C    0.159338
    19  C   -0.171291
    20  C   -0.224704
    21  H    0.222356
    22  H    0.225310
    23  H    0.277776
    24  H    0.276704
    25  H    0.221225
    26  N    0.487990
    27  O   -0.459347
    28  O   -0.458518
 Sum of Mulliken charges =  -0.00000

 Dipole moment (field-independent basis, Debye):
    X=              1.5075    Y=              6.0713    Z=              2.0510  Tot=              6.5833
 Quadrupole moment (field-independent basis, Debye-Ang):
   XX=           -163.9486   YY=           -102.2375   ZZ=           -104.8519
   XY=             12.9145   XZ=             -6.8478   YZ=             -3.5027

 Normal termination of Gaussian 16 at Thu May  6 05:00:53 2021.
