 Gaussian 16, Revision A.03,
 Gaussian 16:  EM64L-G16RevA.03 25-Dec-2016

 -------------
 #p 6-31g* mp2
 -------------

 ------------------------------------------------------
 Input file generated by CHIRIPA (05-May-2021 14:53:11)
 ------------------------------------------------------
 Symbolic Z-matrix:
 Charge =  0 Multiplicity = 1

                         Standard orientation:
 ---------------------------------------------------------------------
 Center     Atomic      Atomic             Coordinates (Angstroms)
 Number     Number       Type             X           Y           Z
 ---------------------------------------------------------------------
      1          6           0       -4.384782   -0.459102   -0.417695
      2          6           0       -3.944024   -1.832817    0.088887
      3          6           0       -4.844743   -2.963487   -0.409193
      4          1           0       -5.419623   -0.272690   -0.099419
      5          1           0       -4.392181   -0.466268   -1.516462
      6          1           0       -3.936127   -1.822638    1.186361
      7          1           0       -2.910047   -2.015900   -0.230469
      8          1           0       -4.844834   -3.002385   -1.503308
      9          1           0       -5.876745   -2.808025   -0.078428
     10          1           0       -4.511542   -3.936590   -0.035150
     11          6           0       -3.494127    0.681471    0.071746
     12          6           0       -3.934885    2.055185   -0.434837
     13          6           0       -3.034166    3.185855    0.063243
     14          1           0       -3.486728    0.688637    1.170513
     15          1           0       -2.459286    0.495058   -0.246531
     16          1           0       -4.968862    2.238268   -0.115480
     17          1           0       -3.942782    2.045006   -1.532311
     18          1           0       -2.002164    3.030393   -0.267522
     19          1           0       -3.034075    3.224754    1.157359
     20          1           0       -3.367367    4.158958   -0.310799
     21          6           0        1.078261    0.029970    1.669581
     22          6           0        2.345972   -0.247429    2.191573
     23          6           0        3.460897   -0.314592    1.350752
     24          6           0        3.270997   -0.098157   -0.013207
     25          6           0        2.020786    0.180233   -0.563444
     26          6           0        0.919991    0.242540    0.296159
     27          1           0        0.217649    0.080258    2.330046
     28          1           0        2.471866   -0.412943    3.257782
     29          1           0        4.453649   -0.527569    1.728246
     30          1           0        1.926683    0.340700   -1.630596
     31          1           0       -0.063342    0.458158   -0.112016
     32          7           0        4.443838   -0.166690   -0.913290
     33          8           0        4.250031    0.027810   -2.111308
     34          8           0        5.534710   -0.413608   -0.403713
 ---------------------------------------------------------------------

 SCF Done:  E(RHF) =  -669.535583314     A.U. after   15 cycles
 E2 =    -0.2091311223D+01 EUMP2 =    -0.67162689453620D+03

 The electronic state is 1-A.
 Alpha  occ. eigenvalues --  -20.60732 -20.60726 -15.85785 -11.31141 -11.27714
 Alpha  occ. eigenvalues --  -11.27709 -11.27440 -11.26721 -11.26693 -11.22519
 Alpha  occ. eigenvalues --  -11.22445 -11.22363 -11.22195 -11.21924 -11.21654
 Alpha  occ. eigenvalues --   -1.59807  -1.39361  -1.19312  -1.09323  -1.08705
 Alpha  occ. eigenvalues --   -1.04717  -1.04327  -0.96783  -0.95542  -0.87792
 Alpha  occ. eigenvalues --   -0.86116  -0.82379  -0.80397  -0.79169  -0.77427
 Alpha  occ. eigenvalues --   -0.72003  -0.71130  -0.70413  -0.65989  -0.64963
 Alpha  occ. eigenvalues --   -0.64709  -0.62088  -0.61700  -0.60148  -0.58395
 Alpha  occ. eigenvalues --   -0.56081  -0.55206  -0.53432  -0.53225  -0.53042
 Alpha  occ. eigenvalues --   -0.52814  -0.50721  -0.48783  -0.48759  -0.48690
 Alpha  occ. eigenvalues --   -0.47432  -0.46673  -0.46601  -0.44769  -0.44612
 Alpha  occ. eigenvalues --   -0.37287  -0.36321
 Alpha virt. eigenvalues --    0.05109   0.11305   0.16597   0.19071   0.22659
 Alpha virt. eigenvalues --    0.23556   0.24562   0.26090   0.27184   0.28279
 Alpha virt. eigenvalues --    0.29396   0.30116   0.31088   0.31335   0.31757

 Mulliken charges:
               1
     1  C   -0.297938
     2  C   -0.300497
     3  C   -0.476160
     4  H    0.153089
     5  H    0.152277
     6  H    0.150735
     7  H    0.150487
     8  H    0.157186
     9  H    0.156616
    10  H    0.162298
    11  C   -0.304519
    12  C   -0.300003
    13  C   -0.476738
    14  H    0.148410
    15  H    0.143479
    16  H    0.155845
    17  H    0.154770
    18  H    0.151614
    19  H    0.154967
    20  H    0.165339
    21  C   -0.173472
    22  C   -0.218635
    23  C   -0.171195
    24  C    0.159013
    25  C   -0.173097
    26  C   -0.226692
    27  H    0.226575
    28  H    0.223227
    29  H    0.275422
    30  H    0.275796
    31  H    0.235017
    32  N    0.487999
    33  O   -0.460597
    34  O   -0.460617
 Sum of Mulliken charges =  -0.00000

 Dipole moment (field-independent basis, Debye):
    X=             -4.3771    Y=              0.2486    Z=              3.1543  Tot=              5.4009
 Quadrupole moment (field-independent basis, Debye-Ang):
   XX=           -119.4771   YY=            -95.8830   ZZ=            -91.3663
   XY=             -0.1429   XZ=             12.6921   YZ=             -1.4137

 Normal termination of Gaussian 16 at Wed May  5 20:04:00 2021.
