 Gaussian 16, Revision A.03,
 Gaussian 16:  EM64L-G16RevA.03 25-Dec-2016

 -------------
 #p 6-31g* mp2
 -------------

 ------------------------------------------------------
 Input file generated by CHIRIPA (05-May-2021 14:57:22)
 ------------------------------------------------------
 Symbolic Z-matrix:
 Charge =  0 Multiplicity = 1

                         Standard orientation:
 ---------------------------------------------------------------------
 Center     Atomic      Atomic             Coordinates (Angstroms)
 Number     Number       Type             X           Y           Z
 ---------------------------------------------------------------------
      1          6           0       -0.294222   -2.069372   -1.408674
      2          6           0       -1.031169   -2.521557   -0.309148
      3          6           0       -1.974973   -1.691401    0.302917
      4          6           0       -2.157040   -0.409175   -0.212872
      5          6           0       -1.438330    0.070252   -1.306899
      6          6           0       -0.499792   -0.777189   -1.903169
      7          1           0        0.436903   -2.720971   -1.878006
      8          1           0       -0.873625   -3.524601    0.077021
      9          1           0       -2.559195   -2.015963    1.155421
     10          1           0       -1.617547    1.075212   -1.669327
     11          1           0        0.071095   -0.423343   -2.756941
     12          7           0       -3.153416    0.478823    0.426733
     13          8           0       -3.295101    1.604180   -0.046695
     14          8           0       -3.773824    0.032664    1.389372
     15          6           0        2.871838   -1.720854    0.959650
     16          6           0        3.148513   -1.194915   -0.306589
     17          6           0        2.666624    0.065348   -0.672743
     18          6           0        1.907846    0.775601    0.256282
     19          6           0        1.615213    0.278678    1.525425
     20          6           0        2.107419   -0.983678    1.870011
     21          1           0        3.250189   -2.700668    1.235710
     22          1           0        3.741909   -1.765176   -1.015622
     23          1           0        2.865838    0.496408   -1.646354
     24          1           0        1.020926    0.870739    2.210775
     25          1           0        1.890980   -1.389623    2.854088
     26          7           0        1.392230    2.110892   -0.119932
     27          8           0        0.726077    2.716704    0.716650
     28          8           0        1.664007    2.526398   -1.244267
 ---------------------------------------------------------------------

 SCF Done:  E(RHF) =  -868.335362395     A.U. after   16 cycles
 E2 =    -0.2606986207D+01 EUMP2 =    -0.87094234860209D+03

 The electronic state is 1-A.
 Alpha  occ. eigenvalues --  -20.61180 -20.61105 -20.60505 -20.60436 -15.86172
 Alpha  occ. eigenvalues --  -15.85532 -11.31578 -11.31064 -11.28226 -11.28145
 Alpha  occ. eigenvalues --  -11.27979 -11.27707 -11.27536 -11.27491 -11.27273
 Alpha  occ. eigenvalues --  -11.27198 -11.26802 -11.26678  -1.60213  -1.59546
 Alpha  occ. eigenvalues --   -1.39766  -1.39092  -1.19808  -1.19260  -1.09188
 Alpha  occ. eigenvalues --   -1.08649  -1.05230  -1.04701  -0.96011  -0.95446
 Alpha  occ. eigenvalues --   -0.86634  -0.86094  -0.82849  -0.82273  -0.77884
 Alpha  occ. eigenvalues --   -0.77278  -0.72395  -0.71758  -0.71572  -0.70943
 Alpha  occ. eigenvalues --   -0.70861  -0.70383  -0.65462  -0.65254  -0.64924
 Alpha  occ. eigenvalues --   -0.64721  -0.62584  -0.62018  -0.55747  -0.55243
 Alpha  occ. eigenvalues --   -0.54345  -0.53333  -0.52790  -0.52213  -0.49174
 Alpha  occ. eigenvalues --   -0.49147  -0.48531  -0.48486  -0.45163  -0.44457
 Alpha  occ. eigenvalues --   -0.38160  -0.37764  -0.36550  -0.35649
 Alpha virt. eigenvalues --    0.04517   0.05308   0.10462   0.11603   0.16094
 Alpha virt. eigenvalues --    0.16800   0.20392   0.21769   0.26144   0.27037
 Alpha virt. eigenvalues --    0.28339   0.28447   0.29907   0.31039   0.32267

 Mulliken charges:
               1
     1  C   -0.163020
     2  C   -0.217599
     3  C   -0.173924
     4  C    0.160192
     5  C   -0.180529
     6  C   -0.220744
     7  H    0.218941
     8  H    0.218388
     9  H    0.273448
    10  H    0.286520
    11  H    0.225201
    12  N    0.488009
    13  O   -0.451844
    14  O   -0.464823
    15  C   -0.172163
    16  C   -0.222021
    17  C   -0.172998
    18  C    0.165793
    19  C   -0.168990
    20  C   -0.216668
    21  H    0.224079
    22  H    0.219995
    23  H    0.271409
    24  H    0.279919
    25  H    0.224799
    26  N    0.486522
    27  O   -0.451721
    28  O   -0.466173
 Sum of Mulliken charges =  -0.00000

 Dipole moment (field-independent basis, Debye):
    X=              5.2344    Y=             -7.5500    Z=             -0.8138  Tot=              9.2230
 Quadrupole moment (field-independent basis, Debye-Ang):
   XX=           -113.7377   YY=           -108.0839   ZZ=            -97.4568
   XY=             -1.9459   XZ=              4.5252   YZ=             -0.8225

 Normal termination of Gaussian 16 at Thu May  6 01:47:13 2021.
