 Gaussian 16, Revision A.03,
 Gaussian 16:  EM64L-G16RevA.03 25-Dec-2016

 -------------
 #p 6-31g* mp2
 -------------

 ------------------------------------------------------
 Input file generated by CHIRIPA (05-May-2021 14:57:25)
 ------------------------------------------------------
 Symbolic Z-matrix:
 Charge =  0 Multiplicity = 1

                         Standard orientation:
 ---------------------------------------------------------------------
 Center     Atomic      Atomic             Coordinates (Angstroms)
 Number     Number       Type             X           Y           Z
 ---------------------------------------------------------------------
      1          6           0        2.126330    2.468724    0.318519
      2          6           0        1.405721    1.397071   -0.218886
      3          6           0        2.037137    0.177863   -0.482315
      4          6           0        3.396498    0.064689   -0.194880
      5          6           0        4.141662    1.114001    0.340812
      6          6           0        3.489597    2.324024    0.596164
      7          1           0        1.627810    3.412266    0.520020
      8          1           0        0.346888    1.506580   -0.435508
      9          1           0        1.503269   -0.668012   -0.898125
     10          1           0        5.196082    0.974630    0.546216
     11          1           0        4.051747    3.154581    1.013544
     12          7           0        4.075880   -1.221170   -0.469485
     13          8           0        5.274388   -1.295374   -0.207360
     14          8           0        3.397007   -2.130474   -0.941645
     15          6           0       -4.758341    1.561918   -0.752376
     16          6           0       -5.134939    0.223681   -0.906699
     17          6           0       -4.326106   -0.803229   -0.410925
     18          6           0       -3.142044   -0.454357    0.236824
     19          6           0       -2.739554    0.869498    0.406239
     20          6           0       -3.563955    1.879994   -0.097554
     21          1           0       -5.392708    2.353271   -1.140621
     22          1           0       -6.061966   -0.026298   -1.414811
     23          1           0       -4.593589   -1.847598   -0.516580
     24          1           0       -1.809664    1.087537    0.917298
     25          1           0       -3.268960    2.918411    0.023744
     26          7           0       -2.277529   -1.532812    0.765923
     27          8           0       -1.239253   -1.199155    1.332751
     28          8           0       -2.654565   -2.691341    0.603784
 ---------------------------------------------------------------------

 SCF Done:  E(RHF) =  -868.336939582     A.U. after   16 cycles
 E2 =    -0.2600460345D+01 EUMP2 =    -0.87093739992775D+03

 The electronic state is 1-A.
 Alpha  occ. eigenvalues --  -20.61342 -20.61308 -20.60260 -20.60232 -15.86377
 Alpha  occ. eigenvalues --  -15.85307 -11.31878 -11.30744 -11.28511 -11.28380
 Alpha  occ. eigenvalues --  -11.28155 -11.27534 -11.27417 -11.27386 -11.27315
 Alpha  occ. eigenvalues --  -11.27234 -11.26454 -11.26433  -1.60398  -1.59322
 Alpha  occ. eigenvalues --   -1.39949  -1.38872  -1.20045  -1.18962  -1.09403
 Alpha  occ. eigenvalues --   -1.08370  -1.05472  -1.04379  -0.96222  -0.95176
 Alpha  occ. eigenvalues --   -0.86857  -0.85800  -0.83052  -0.82007  -0.78102
 Alpha  occ. eigenvalues --   -0.77013  -0.72580  -0.71733  -0.71530  -0.71137
 Alpha  occ. eigenvalues --   -0.70640  -0.70119  -0.65690  -0.65484  -0.64633
 Alpha  occ. eigenvalues --   -0.64446  -0.62824  -0.61706  -0.55928  -0.54966
 Alpha  occ. eigenvalues --   -0.53786  -0.53571  -0.52693  -0.52473  -0.49351
 Alpha  occ. eigenvalues --   -0.49336  -0.48301  -0.48269  -0.45323  -0.44260
 Alpha  occ. eigenvalues --   -0.38003  -0.37081  -0.36988  -0.35947
 Alpha virt. eigenvalues --    0.04389   0.05543   0.10480   0.11609   0.15897
 Alpha virt. eigenvalues --    0.16937   0.20083   0.21960   0.25787   0.27252
 Alpha virt. eigenvalues --    0.28512   0.28872   0.30400   0.31001   0.32234

 Mulliken charges:
               1
     1  C   -0.171700
     2  C   -0.217804
     3  C   -0.161559
     4  C    0.157381
     5  C   -0.170267
     6  C   -0.218731
     7  H    0.219340
     8  H    0.215377
     9  H    0.280929
    10  H    0.274978
    11  H    0.221381
    12  N    0.488224
    13  O   -0.462724
    14  O   -0.456676
    15  C   -0.170460
    16  C   -0.217395
    17  C   -0.170020
    18  C    0.158950
    19  C   -0.179388
    20  C   -0.218714
    21  H    0.227730
    22  H    0.226580
    23  H    0.278755
    24  H    0.273115
    25  H    0.221738
    26  N    0.487216
    27  O   -0.461871
    28  O   -0.454384
 Sum of Mulliken charges =  -0.00000

 Dipole moment (field-independent basis, Debye):
    X=             -5.6731    Y=              8.0229    Z=             -0.9345  Tot=              9.8704
 Quadrupole moment (field-independent basis, Debye-Ang):
   XX=            -95.6362   YY=           -105.6705   ZZ=           -106.4767
   XY=              9.0095   XZ=             12.1421   YZ=              2.9655

 Normal termination of Gaussian 16 at Thu May  6 19:42:02 2021.
