 Gaussian 16, Revision A.03,
 Gaussian 16:  EM64L-G16RevA.03 25-Dec-2016

 -------------
 #p 6-31g* mp2
 -------------

 ------------------------------------------------------
 Input file generated by CHIRIPA (05-May-2021 14:51:11)
 ------------------------------------------------------
 Symbolic Z-matrix:
 Charge =  0 Multiplicity = 1

                         Standard orientation:
 ---------------------------------------------------------------------
 Center     Atomic      Atomic             Coordinates (Angstroms)
 Number     Number       Type             X           Y           Z
 ---------------------------------------------------------------------
      1          6           0        4.608118    0.316846    0.181282
      2          6           0        4.759539    1.787236   -0.209881
      3          6           0        6.050291    2.410609    0.322246
      4          1           0        4.634349    0.230719    1.276197
      5          1           0        5.471934   -0.246918   -0.197382
      6          1           0        3.895008    2.347812    0.168216
      7          1           0        4.732752    1.869895   -1.303987
      8          1           0        6.924135    1.876902   -0.065251
      9          1           0        6.081631    2.357535    1.415316
     10          1           0        6.138191    3.461939    0.030975
     11          6           0        3.322629   -0.320325   -0.343370
     12          6           0        3.171208   -1.790716    0.047794
     13          6           0        1.880456   -2.414088   -0.484334
     14          1           0        2.458813    0.243438    0.035294
     15          1           0        3.296398   -0.234198   -1.438285
     16          1           0        3.197995   -1.873374    1.141899
     17          1           0        4.035739   -2.351291   -0.330304
     18          1           0        1.849116   -2.361014   -1.577404
     19          1           0        1.006612   -1.880381   -0.096836
     20          1           0        1.792556   -3.465418   -0.193062
     21          6           0       -3.486480   -0.436997    0.483043
     22          6           0       -3.036785   -1.690388   -0.268469
     23          6           0       -2.079036   -2.557930    0.548773
     24          1           0       -2.602419    0.152712    0.761655
     25          1           0       -3.971808   -0.735604    1.422556
     26          1           0       -2.553683   -1.389555   -1.206939
     27          1           0       -3.922031   -2.277086   -0.545492
     28          1           0       -2.554875   -2.886449    1.478424
     29          1           0       -1.178753   -1.993875    0.813219
     30          1           0       -1.770242   -3.448525   -0.007419
     31          6           0       -4.444267    0.440476   -0.320955
     32          6           0       -4.893962    1.693868    0.430557
     33          6           0       -5.851711    2.561409   -0.386684
     34          1           0       -3.958939    0.739083   -1.260469
     35          1           0       -5.328328   -0.149234   -0.599567
     36          1           0       -4.008716    2.280565    0.707580
     37          1           0       -5.377064    1.393034    1.369027
     38          1           0       -6.751994    1.997354   -0.651131
     39          1           0       -5.375872    2.889928   -1.316337
     40          1           0       -6.160505    3.452004    0.169507
 ---------------------------------------------------------------------

 SCF Done:  E(RHF) =  -470.733088165     A.U. after   11 cycles
 E2 =    -0.1582322151D+01 EUMP2 =    -0.47231541031553D+03

 The electronic state is 1-A.
 Alpha  occ. eigenvalues --  -11.21611 -11.21600 -11.21583 -11.21575 -11.21412
 Alpha  occ. eigenvalues --  -11.21399 -11.21352 -11.21340 -11.21078 -11.21069
 Alpha  occ. eigenvalues --  -11.21015 -11.21010  -1.08433  -1.08418  -1.03541
 Alpha  occ. eigenvalues --   -1.03498  -0.96014  -0.95923  -0.87055  -0.86916
 Alpha  occ. eigenvalues --   -0.79640  -0.79524  -0.78252  -0.78227  -0.65096
 Alpha  occ. eigenvalues --   -0.65024  -0.61056  -0.60803  -0.59363  -0.59304
 Alpha  occ. eigenvalues --   -0.57611  -0.57551  -0.55499  -0.55052  -0.52736
 Alpha  occ. eigenvalues --   -0.52585  -0.52454  -0.52324  -0.50151  -0.49670
 Alpha  occ. eigenvalues --   -0.47960  -0.47832  -0.46745  -0.46461  -0.45813
 Alpha  occ. eigenvalues --   -0.45759  -0.45723  -0.45643  -0.43815  -0.43731
 Alpha virt. eigenvalues --    0.21899   0.23027   0.23593   0.24808   0.26233
 Alpha virt. eigenvalues --    0.26800   0.27199   0.27498   0.27643   0.29045
 Alpha virt. eigenvalues --    0.30001   0.31367   0.31709   0.31918   0.32226

 Mulliken charges:
               1
     1  C   -0.298268
     2  C   -0.299636
     3  C   -0.475707
     4  H    0.149694
     5  H    0.149632
     6  H    0.151762
     7  H    0.151909
     8  H    0.155230
     9  H    0.155213
    10  H    0.160241
    11  C   -0.298169
    12  C   -0.299713
    13  C   -0.479824
    14  H    0.148759
    15  H    0.149605
    16  H    0.151873
    17  H    0.151797
    18  H    0.154592
    19  H    0.160364
    20  H    0.160487
    21  C   -0.298176
    22  C   -0.300279
    23  C   -0.478314
    24  H    0.148994
    25  H    0.149505
    26  H    0.152422
    27  H    0.151932
    28  H    0.154683
    29  H    0.157949
    30  H    0.161423
    31  C   -0.298295
    32  C   -0.299629
    33  C   -0.475705
    34  H    0.149615
    35  H    0.149701
    36  H    0.151809
    37  H    0.151899
    38  H    0.155199
    39  H    0.155212
    40  H    0.160216
 Sum of Mulliken charges =  -0.00000

 Dipole moment (field-independent basis, Debye):
    X=             -0.0056    Y=             -0.0156    Z=             -0.0034  Tot=              0.0169
 Quadrupole moment (field-independent basis, Debye-Ang):
   XX=            -85.2479   YY=            -85.3102   ZZ=            -84.2267
   XY=              0.2877   XZ=             -1.3140   YZ=              0.1984

 Normal termination of Gaussian 16 at Thu May  6 07:03:33 2021.
