 Gaussian 16, Revision A.03,
 Gaussian 16:  EM64L-G16RevA.03 25-Dec-2016

 -------------
 #p 6-31g* mp2
 -------------

 ------------------------------------------------------
 Input file generated by CHIRIPA (05-May-2021 14:51:13)
 ------------------------------------------------------
 Symbolic Z-matrix:
 Charge =  0 Multiplicity = 1

                         Standard orientation:
 ---------------------------------------------------------------------
 Center     Atomic      Atomic             Coordinates (Angstroms)
 Number     Number       Type             X           Y           Z
 ---------------------------------------------------------------------
      1          6           0       -4.028736   -0.714142   -0.199288
      2          6           0       -5.438502   -1.061561    0.280134
      3          6           0       -5.663687   -2.568148    0.411591
      4          1           0       -3.847877   -1.199282   -1.168243
      5          1           0       -3.295981   -1.135457    0.502822
      6          1           0       -6.168416   -0.638534   -0.421927
      7          1           0       -5.616095   -0.575381    1.247969
      8          1           0       -4.958042   -3.002127    1.127363
      9          1           0       -5.513502   -3.065639   -0.552021
     10          1           0       -6.677855   -2.793983    0.755570
     11          6           0       -3.788290    0.788297   -0.335636
     12          6           0       -2.378525    1.135716   -0.815058
     13          6           0       -2.153339    2.642303   -0.946515
     14          1           0       -4.521045    1.209612   -1.037746
     15          1           0       -3.969149    1.273437    0.633319
     16          1           0       -2.200932    0.649536   -1.782894
     17          1           0       -1.648610    0.712689   -0.112998
     18          1           0       -2.303524    3.139794    0.017097
     19          1           0       -2.858984    3.076282   -1.662287
     20          1           0       -1.139171    2.868138   -1.290494
     21          6           0        3.182823   -0.015910    0.504860
     22          6           0        2.713936    1.385486    0.897565
     23          6           0        1.260115    1.411573    1.370346
     24          1           0        2.530559   -0.404838   -0.289011
     25          1           0        3.063868   -0.689238    1.365020
     26          1           0        2.835034    2.056283    0.037344
     27          1           0        3.367510    1.771199    1.690460
     28          1           0        1.127409    0.765003    2.243807
     29          1           0        0.591908    1.051707    0.581297
     30          1           0        0.945700    2.423004    1.646044
     31          6           0        4.634204   -0.058245    0.030064
     32          6           0        5.103090   -1.459642   -0.362641
     33          6           0        6.556910   -1.485728   -0.835421
     34          1           0        4.753158    0.615082   -0.830096
     35          1           0        5.286468    0.330683    0.823936
     36          1           0        4.449517   -1.845354   -1.155536
     37          1           0        4.981992   -2.130439    0.497581
     38          1           0        7.225118   -1.125863   -0.046373
     39          1           0        6.689618   -0.839158   -1.708883
     40          1           0        6.871327   -2.497159   -1.111120
 ---------------------------------------------------------------------

 SCF Done:  E(RHF) =  -470.733239856     A.U. after   11 cycles
 E2 =    -0.1582572064D+01 EUMP2 =    -0.47231581191925D+03

 The electronic state is 1-A.
 Alpha  occ. eigenvalues --  -11.21604 -11.21602 -11.21584 -11.21561 -11.21407
 Alpha  occ. eigenvalues --  -11.21381 -11.21348 -11.21322 -11.21072 -11.21058
 Alpha  occ. eigenvalues --  -11.21053 -11.21041  -1.08435  -1.08405  -1.03550
 Alpha  occ. eigenvalues --   -1.03490  -0.96006  -0.95933  -0.87002  -0.86971
 Alpha  occ. eigenvalues --   -0.79642  -0.79534  -0.78264  -0.78204  -0.65104
 Alpha  occ. eigenvalues --   -0.65005  -0.61063  -0.60799  -0.59350  -0.59326
 Alpha  occ. eigenvalues --   -0.57644  -0.57529  -0.55361  -0.55142  -0.52693
 Alpha  occ. eigenvalues --   -0.52628  -0.52416  -0.52380  -0.49977  -0.49855
 Alpha  occ. eigenvalues --   -0.48022  -0.47810  -0.46760  -0.46467  -0.45852
 Alpha  occ. eigenvalues --   -0.45745  -0.45724  -0.45541  -0.43788  -0.43758
 Alpha virt. eigenvalues --    0.21779   0.23007   0.23512   0.24964   0.26036
 Alpha virt. eigenvalues --    0.26751   0.27104   0.27537   0.27867   0.29065
 Alpha virt. eigenvalues --    0.30475   0.31052   0.31624   0.31881   0.32285

 Mulliken charges:
               1
     1  C   -0.298477
     2  C   -0.299639
     3  C   -0.475706
     4  H    0.149437
     5  H    0.149806
     6  H    0.151867
     7  H    0.151997
     8  H    0.155213
     9  H    0.155103
    10  H    0.160197
    11  C   -0.297584
    12  C   -0.306259
    13  C   -0.475348
    14  H    0.149332
    15  H    0.149870
    16  H    0.151180
    17  H    0.157999
    18  H    0.155602
    19  H    0.154879
    20  H    0.160266
    21  C   -0.298470
    22  C   -0.299310
    23  C   -0.482814
    24  H    0.149814
    25  H    0.149427
    26  H    0.151818
    27  H    0.151900
    28  H    0.154519
    29  H    0.162554
    30  H    0.160771
    31  C   -0.298290
    32  C   -0.299670
    33  C   -0.475710
    34  H    0.149533
    35  H    0.149661
    36  H    0.151999
    37  H    0.151909
    38  H    0.155174
    39  H    0.155189
    40  H    0.160263
 Sum of Mulliken charges =  -0.00000

 Dipole moment (field-independent basis, Debye):
    X=              0.0031    Y=              0.0021    Z=              0.0071  Tot=              0.0080
 Quadrupole moment (field-independent basis, Debye-Ang):
   XX=            -85.8412   YY=            -85.9371   ZZ=            -83.0754
   XY=             -0.2012   XZ=              0.9951   YZ=             -0.0275

 Normal termination of Gaussian 16 at Thu May  6 02:21:20 2021.
