 Gaussian 16, Revision A.03,
 Gaussian 16:  EM64L-G16RevA.03 25-Dec-2016

 -------------
 #p 6-31g* mp2
 -------------

 ------------------------------------------------------
 Input file generated by CHIRIPA (05-May-2021 14:55:23)
 ------------------------------------------------------
 Symbolic Z-matrix:
 Charge =  0 Multiplicity = 1

                         Standard orientation:
 ---------------------------------------------------------------------
 Center     Atomic      Atomic             Coordinates (Angstroms)
 Number     Number       Type             X           Y           Z
 ---------------------------------------------------------------------
      1          6           0        3.911371    0.837427    0.399718
      2          6           0        3.717950    0.237176   -0.848804
      3          6           0        2.657728   -0.650953   -1.053015
      4          6           0        1.806268   -0.917342    0.018126
      5          6           0        1.972744   -0.335201    1.273789
      6          6           0        3.039687    0.549830    1.455169
      7          1           0        4.737588    1.526144    0.549487
      8          1           0        4.393337    0.458664   -1.670291
      9          1           0        2.484839   -1.129681   -2.009230
     10          1           0        1.282897   -0.575631    2.073616
     11          1           0        3.187474    1.014522    2.425873
     12          7           0        0.680300   -1.855925   -0.185978
     13          8           0       -0.055833   -2.074033    0.773800
     14          8           0        0.555220   -2.355706   -1.301868
     15          6           0       -1.905428    1.303988    0.180888
     16          6           0       -1.383386    2.395770   -0.753710
     17          6           0       -0.094208    3.042111   -0.245717
     18          1           0       -2.077100    1.734199    1.177076
     19          1           0       -1.131140    0.533824    0.302216
     20          1           0       -2.158948    3.162953   -0.874335
     21          1           0       -1.213118    1.962954   -1.747840
     22          1           0        0.697567    2.293079   -0.142544
     23          1           0       -0.253636    3.499897    0.735923
     24          1           0        0.261320    3.819689   -0.928968
     25          6           0       -3.193685    0.648401   -0.313406
     26          6           0       -3.715726   -0.443380    0.621191
     27          6           0       -5.004905   -1.089721    0.113198
     28          1           0       -3.967973    1.418565   -0.434734
     29          1           0       -3.022013    0.218191   -1.309595
     30          1           0       -3.885994   -0.010564    1.615321
     31          1           0       -2.940164   -1.210563    0.741817
     32          1           0       -4.845476   -1.547506   -0.868442
     33          1           0       -5.796680   -0.340689    0.010025
     34          1           0       -5.360434   -1.867298    0.796449
 ---------------------------------------------------------------------

 SCF Done:  E(RHF) =  -669.536259005     A.U. after   15 cycles
 E2 =    -0.2094514493D+01 EUMP2 =    -0.67163077349736D+03

 The electronic state is 1-A.
 Alpha  occ. eigenvalues --  -20.61103 -20.61092 -15.86091 -11.31366 -11.27926
 Alpha  occ. eigenvalues --  -11.27914 -11.27653 -11.26918 -11.26905 -11.21249
 Alpha  occ. eigenvalues --  -11.20903 -11.20798 -11.20574 -11.20431 -11.20116
 Alpha  occ. eigenvalues --   -1.60144  -1.39702  -1.19541  -1.08949  -1.07752
 Alpha  occ. eigenvalues --   -1.04919  -1.02862  -0.95797  -0.95360  -0.86388
 Alpha  occ. eigenvalues --   -0.86315  -0.82630  -0.78962  -0.77722  -0.77487
 Alpha  occ. eigenvalues --   -0.72324  -0.71473  -0.70634  -0.65191  -0.64913
 Alpha  occ. eigenvalues --   -0.64365  -0.62262  -0.60263  -0.58769  -0.56956
 Alpha  occ. eigenvalues --   -0.55421  -0.54718  -0.53253  -0.53003  -0.52072
 Alpha  occ. eigenvalues --   -0.51756  -0.49331  -0.49088  -0.49067  -0.47256
 Alpha  occ. eigenvalues --   -0.45995  -0.45572  -0.45052  -0.44391  -0.43115
 Alpha  occ. eigenvalues --   -0.37500  -0.36493
 Alpha virt. eigenvalues --    0.04797   0.11086   0.16259   0.21270   0.23315
 Alpha virt. eigenvalues --    0.24894   0.27023   0.27235   0.27828   0.28277
 Alpha virt. eigenvalues --    0.28675   0.31036   0.31782   0.32086   0.32463

 Mulliken charges:
               1
     1  C   -0.170017
     2  C   -0.218166
     3  C   -0.170954
     4  C    0.156646
     5  C   -0.172037
     6  C   -0.217460
     7  H    0.226804
     8  H    0.224379
     9  H    0.276037
    10  H    0.276893
    11  H    0.224838
    12  N    0.489251
    13  O   -0.457922
    14  O   -0.457210
    15  C   -0.302408
    16  C   -0.298995
    17  C   -0.480239
    18  H    0.145572
    19  H    0.152053
    20  H    0.150878
    21  H    0.151833
    22  H    0.158053
    23  H    0.151570
    24  H    0.156640
    25  C   -0.297061
    26  C   -0.309130
    27  C   -0.475258
    28  H    0.144920
    29  H    0.152197
    30  H    0.145224
    31  H    0.177341
    32  H    0.156879
    33  H    0.149660
    34  H    0.159189
 Sum of Mulliken charges =  -0.00000

 Dipole moment (field-independent basis, Debye):
    X=              4.2063    Y=              3.0387    Z=              0.7258  Tot=              5.2396
 Quadrupole moment (field-independent basis, Debye-Ang):
   XX=            -81.5783   YY=           -101.7395   ZZ=            -90.0106
   XY=              1.7922   XZ=             -0.5259   YZ=              0.3978

 Normal termination of Gaussian 16 at Thu May  6 03:07:44 2021.
