 Gaussian 16, Revision A.03,
 Gaussian 16:  EM64L-G16RevA.03 25-Dec-2016

 -------------
 #p 6-31g* mp2
 -------------

 ------------------------------------------------------
 Input file generated by CHIRIPA (05-May-2021 14:57:24)
 ------------------------------------------------------
 Symbolic Z-matrix:
 Charge =  0 Multiplicity = 1

                         Standard orientation:
 ---------------------------------------------------------------------
 Center     Atomic      Atomic             Coordinates (Angstroms)
 Number     Number       Type             X           Y           Z
 ---------------------------------------------------------------------
      1          6           0       -2.276120    1.478679    0.197099
      2          6           0       -2.242781    0.164700    0.675501
      3          6           0       -3.369038   -0.657183    0.572538
      4          6           0       -4.517044   -0.130250   -0.017136
      5          6           0       -4.581436    1.174691   -0.503215
      6          6           0       -3.443283    1.978600   -0.389697
      7          1           0       -1.396596    2.110156    0.281183
      8          1           0       -1.337722   -0.226213    1.131681
      9          1           0       -3.370738   -1.678136    0.934575
     10          1           0       -5.498135    1.536256   -0.953052
     11          1           0       -3.472058    2.998664   -0.762103
     12          7           0       -5.715658   -0.990827   -0.131725
     13          8           0       -6.714819   -0.502860   -0.655371
     14          8           0       -5.633276   -2.137018    0.304276
     15          6           0        2.393698    1.573948    0.376817
     16          6           0        3.681697    2.075606    0.162524
     17          6           0        4.756221    1.206417   -0.048318
     18          6           0        4.505676   -0.164866   -0.038348
     19          6           0        3.233871   -0.695336    0.172377
     20          6           0        2.174284    0.192513    0.381052
     21          1           0        1.564784    2.256402    0.539763
     22          1           0        3.855051    3.147976    0.158703
     23          1           0        5.763458    1.567735   -0.216670
     24          1           0        3.092188   -1.769272    0.170582
     25          1           0        1.175068   -0.199916    0.547217
     26          7           0        5.635321   -1.094915   -0.260410
     27          8           0        5.388314   -2.298843   -0.246896
     28          8           0        6.746355   -0.602350   -0.443771
 ---------------------------------------------------------------------

 SCF Done:  E(RHF) =  -868.335881621     A.U. after   16 cycles
 E2 =    -0.2600132795D+01 EUMP2 =    -0.87093601441615D+03

 The electronic state is 1-A.
 Alpha  occ. eigenvalues --  -20.61335 -20.61330 -20.61313 -20.61308 -15.86396
 Alpha  occ. eigenvalues --  -15.86374 -11.31941 -11.31909 -11.28567 -11.28524
 Alpha  occ. eigenvalues --  -11.28514 -11.28477 -11.28454 -11.28409 -11.27732
 Alpha  occ. eigenvalues --  -11.27686 -11.27587 -11.27556  -1.60406  -1.60385
 Alpha  occ. eigenvalues --   -1.39955  -1.39933  -1.20156  -1.20118  -1.09548
 Alpha  occ. eigenvalues --   -1.09502  -1.05593  -1.05545  -0.96344  -0.96298
 Alpha  occ. eigenvalues --   -0.87040  -0.86921  -0.83181  -0.83115  -0.78187
 Alpha  occ. eigenvalues --   -0.78100  -0.72614  -0.72590  -0.71731  -0.71709
 Alpha  occ. eigenvalues --   -0.71428  -0.71189  -0.65890  -0.65801  -0.65778
 Alpha  occ. eigenvalues --   -0.65394  -0.63032  -0.62781  -0.56335  -0.55980
 Alpha  occ. eigenvalues --   -0.53913  -0.53863  -0.53828  -0.53521  -0.49396
 Alpha  occ. eigenvalues --   -0.49357  -0.49352  -0.49332  -0.45320  -0.45300
 Alpha  occ. eigenvalues --   -0.38188  -0.38124  -0.37180  -0.37132
 Alpha virt. eigenvalues --    0.04385   0.04423   0.10372   0.10530   0.15798
 Alpha virt. eigenvalues --    0.15844   0.16528   0.22387   0.23081   0.24845
 Alpha virt. eigenvalues --    0.27794   0.28727   0.30521   0.31335   0.33401

 Mulliken charges:
               1
     1  C   -0.171048
     2  C   -0.222386
     3  C   -0.169462
     4  C    0.159531
     5  C   -0.169254
     6  C   -0.218144
     7  H    0.218478
     8  H    0.219360
     9  H    0.278368
    10  H    0.278426
    11  H    0.225501
    12  N    0.487885
    13  O   -0.458171
    14  O   -0.458340
    15  C   -0.172720
    16  C   -0.217978
    17  C   -0.169635
    18  C    0.159621
    19  C   -0.170553
    20  C   -0.220476
    21  H    0.218675
    22  H    0.225329
    23  H    0.278179
    24  H    0.278343
    25  H    0.219329
    26  N    0.487902
    27  O   -0.458388
    28  O   -0.458372
 Sum of Mulliken charges =  -0.00000

 Dipole moment (field-independent basis, Debye):
    X=              0.2173    Y=              6.2453    Z=              1.0965  Tot=              6.3445
 Quadrupole moment (field-independent basis, Debye-Ang):
   XX=           -173.9503   YY=           -101.1975   ZZ=           -105.5215
   XY=              1.8286   XZ=              2.7759   YZ=             -2.8005

 Normal termination of Gaussian 16 at Fri May  7 04:58:39 2021.
