 Gaussian 16, Revision A.03,
 Gaussian 16:  EM64L-G16RevA.03 25-Dec-2016

 -------------
 #p 6-31g* mp2
 -------------

 ------------------------------------------------------
 Input file generated by CHIRIPA (05-May-2021 14:55:22)
 ------------------------------------------------------
 Symbolic Z-matrix:
 Charge =  0 Multiplicity = 1

                         Standard orientation:
 ---------------------------------------------------------------------
 Center     Atomic      Atomic             Coordinates (Angstroms)
 Number     Number       Type             X           Y           Z
 ---------------------------------------------------------------------
      1          6           0        1.345752   -1.856227    0.634562
      2          6           0        0.957011   -0.755919   -0.136622
      3          6           0        1.879773    0.240939   -0.467278
      4          6           0        3.188903    0.104961   -0.007954
      5          6           0        3.606766   -0.979361    0.762063
      6          6           0        2.667059   -1.964245    1.080657
      7          1           0        0.622347   -2.625959    0.886739
      8          1           0       -0.068456   -0.669408   -0.484440
      9          1           0        1.605780    1.103297   -1.062832
     10          1           0        4.636137   -1.037965    1.094294
     11          1           0        2.971786   -2.817654    1.679723
     12          7           0        4.174759    1.153952   -0.351620
     13          8           0        5.322080    1.010824    0.065279
     14          8           0        3.781484    2.099416   -1.031378
     15          6           0       -3.453032   -0.443644   -0.415653
     16          6           0       -3.958525   -1.868725   -0.188481
     17          6           0       -3.106392   -2.918958   -0.901694
     18          1           0       -3.437380   -0.234487   -1.494055
     19          1           0       -2.413165   -0.371124   -0.068069
     20          1           0       -4.997580   -1.938171   -0.535118
     21          1           0       -3.973156   -2.074447    0.889517
     22          1           0       -2.070629   -2.878719   -0.549307
     23          1           0       -3.100874   -2.741669   -1.982036
     24          1           0       -3.485528   -3.930485   -0.725826
     25          6           0       -4.294608    0.617533    0.291016
     26          6           0       -3.789115    2.042613    0.063845
     27          6           0       -4.641248    3.092847    0.777057
     28          1           0       -5.334475    0.545012   -0.056567
     29          1           0       -4.310260    0.408375    1.369419
     30          1           0       -3.774484    2.248337   -1.014153
     31          1           0       -2.750059    2.112061    0.410482
     32          1           0       -4.646766    2.915557    1.857400
     33          1           0       -5.677011    3.052608    0.424670
     34          1           0       -4.262112    4.104374    0.601188
 ---------------------------------------------------------------------

 SCF Done:  E(RHF) =  -669.535533571     A.U. after   15 cycles
 E2 =    -0.2091555489D+01 EUMP2 =    -0.67162708905938D+03

 The electronic state is 1-A.
 Alpha  occ. eigenvalues --  -20.60734 -20.60729 -15.85787 -11.31149 -11.27721
 Alpha  occ. eigenvalues --  -11.27708 -11.27463 -11.26738 -11.26687 -11.22561
 Alpha  occ. eigenvalues --  -11.22419 -11.22206 -11.22178 -11.22105 -11.21509
 Alpha  occ. eigenvalues --   -1.59810  -1.39363  -1.19321  -1.09280  -1.08718
 Alpha  occ. eigenvalues --   -1.04722  -1.04319  -0.96783  -0.95554  -0.87795
 Alpha  occ. eigenvalues --   -0.86125  -0.82385  -0.80399  -0.79094  -0.77428
 Alpha  occ. eigenvalues --   -0.72006  -0.71133  -0.70436  -0.65951  -0.64972
 Alpha  occ. eigenvalues --   -0.64709  -0.62095  -0.61687  -0.60156  -0.58385
 Alpha  occ. eigenvalues --   -0.56104  -0.55220  -0.53445  -0.53223  -0.53048
 Alpha  occ. eigenvalues --   -0.52818  -0.50728  -0.48791  -0.48761  -0.48679
 Alpha  occ. eigenvalues --   -0.47432  -0.46603  -0.46517  -0.44769  -0.44585
 Alpha  occ. eigenvalues --   -0.37304  -0.36323
 Alpha virt. eigenvalues --    0.05100   0.11281   0.16570   0.18587   0.22629
 Alpha virt. eigenvalues --    0.23732   0.24974   0.25806   0.26348   0.28128
 Alpha virt. eigenvalues --    0.29012   0.30169   0.31054   0.31502   0.31596

 Mulliken charges:
               1
     1  C   -0.174349
     2  C   -0.227195
     3  C   -0.172711
     4  C    0.158894
     5  C   -0.171131
     6  C   -0.218517
     7  H    0.226351
     8  H    0.235459
     9  H    0.276113
    10  H    0.275466
    11  H    0.223323
    12  N    0.487987
    13  O   -0.460597
    14  O   -0.460426
    15  C   -0.304695
    16  C   -0.300318
    17  C   -0.476500
    18  H    0.152063
    19  H    0.143753
    20  H    0.156969
    21  H    0.153087
    22  H    0.144139
    23  H    0.159326
    24  H    0.164820
    25  C   -0.297927
    26  C   -0.300699
    27  C   -0.476266
    28  H    0.152649
    29  H    0.151215
    30  H    0.153057
    31  H    0.150935
    32  H    0.156169
    33  H    0.156271
    34  H    0.163285
 Sum of Mulliken charges =  -0.00000

 Dipole moment (field-independent basis, Debye):
    X=             -3.7280    Y=             -3.6571    Z=              1.1999  Tot=              5.3584
 Quadrupole moment (field-independent basis, Debye-Ang):
   XX=           -113.5582   YY=            -95.2708   ZZ=            -93.6131
   XY=            -13.8666   XZ=              6.7847   YZ=             -1.7255

 Normal termination of Gaussian 16 at Thu May  6 03:04:50 2021.
