 Gaussian 16, Revision A.03,
 Gaussian 16:  EM64L-G16RevA.03 25-Dec-2016

 -------------
 #p 6-31g* mp2
 -------------

 ------------------------------------------------------
 Input file generated by CHIRIPA (05-May-2021 14:51:11)
 ------------------------------------------------------
 Symbolic Z-matrix:
 Charge =  0 Multiplicity = 1

                         Standard orientation:
 ---------------------------------------------------------------------
 Center     Atomic      Atomic             Coordinates (Angstroms)
 Number     Number       Type             X           Y           Z
 ---------------------------------------------------------------------
      1          6           0       -2.137394   -0.379409    0.724026
      2          6           0       -2.064133   -1.906693    0.719664
      3          6           0       -0.911233   -2.445646    1.567099
      4          1           0       -1.186654    0.027998    0.353812
      5          1           0       -2.246289   -0.027451    1.759237
      6          1           0       -1.956799   -2.255731   -0.315357
      7          1           0       -3.015227   -2.310514    1.089751
      8          1           0       -1.016485   -2.125725    2.608816
      9          1           0        0.047957   -2.070631    1.195724
     10          1           0       -0.877479   -3.539457    1.549878
     11          6           0       -3.284867    0.174468   -0.118739
     12          6           0       -3.358128    1.701753   -0.114377
     13          6           0       -4.511028    2.240705   -0.961812
     14          1           0       -3.175972   -0.177490   -1.153950
     15          1           0       -4.235607   -0.232939    0.251475
     16          1           0       -2.407033    2.105574   -0.484464
     17          1           0       -3.465462    2.050791    0.920644
     18          1           0       -5.470218    1.865690   -0.590437
     19          1           0       -4.405776    1.920785   -2.003528
     20          1           0       -4.544782    3.334517   -0.944591
     21          6           0        2.248460   -0.314074   -0.745203
     22          6           0        2.456620   -1.821017   -0.591008
     23          6           0        1.523761   -2.640950   -1.482791
     24          1           0        1.203922   -0.068610   -0.509338
     25          1           0        2.405454   -0.034942   -1.796314
     26          1           0        2.300636   -2.097008    0.459761
     27          1           0        3.500832   -2.062895   -0.827082
     28          1           0        1.683798   -2.394383   -2.537398
     29          1           0        0.476782   -2.428691   -1.243243
     30          1           0        1.689550   -3.715409   -1.356648
     31          6           0        3.173801    0.519014    0.139916
     32          6           0        2.965641    2.025957   -0.014279
     33          6           0        3.898500    2.845890    0.877504
     34          1           0        3.016807    0.239882    1.191027
     35          1           0        4.218340    0.273551   -0.095950
     36          1           0        1.921429    2.267836    0.221796
     37          1           0        3.121625    2.301949   -1.065047
     38          1           0        4.945479    2.633631    0.637956
     39          1           0        3.738463    2.599324    1.932110
     40          1           0        3.732711    3.920350    0.751361
 ---------------------------------------------------------------------

 SCF Done:  E(RHF) =  -470.732190334     A.U. after   11 cycles
 E2 =    -0.1585108055D+01 EUMP2 =    -0.47231729838882D+03

 The electronic state is 1-A.
 Alpha  occ. eigenvalues --  -11.21649 -11.21628 -11.21625 -11.21624 -11.21454
 Alpha  occ. eigenvalues --  -11.21448 -11.21389 -11.21383 -11.21086 -11.21081
 Alpha  occ. eigenvalues --  -11.21060 -11.21050  -1.08518  -1.08432  -1.03643
 Alpha  occ. eigenvalues --   -1.03486  -0.96083  -0.95935  -0.87043  -0.87008
 Alpha  occ. eigenvalues --   -0.79667  -0.79585  -0.78337  -0.78246  -0.65463
 Alpha  occ. eigenvalues --   -0.64847  -0.61446  -0.60520  -0.59408  -0.59335
 Alpha  occ. eigenvalues --   -0.57623  -0.57612  -0.55667  -0.54906  -0.52713
 Alpha  occ. eigenvalues --   -0.52672  -0.52487  -0.52368  -0.49981  -0.49936
 Alpha  occ. eigenvalues --   -0.48083  -0.47792  -0.46790  -0.46528  -0.46152
 Alpha  occ. eigenvalues --   -0.45776  -0.45739  -0.45395  -0.43820  -0.43805
 Alpha virt. eigenvalues --    0.19505   0.23138   0.23407   0.24825   0.25174
 Alpha virt. eigenvalues --    0.26445   0.26621   0.28270   0.28793   0.29988
 Alpha virt. eigenvalues --    0.30516   0.31138   0.31365   0.31893   0.32034

 Mulliken charges:
               1
     1  C   -0.305470
     2  C   -0.302480
     3  C   -0.483220
     4  H    0.154666
     5  H    0.149949
     6  H    0.153430
     7  H    0.152931
     8  H    0.154969
     9  H    0.163688
    10  H    0.160773
    11  C   -0.297877
    12  C   -0.299794
    13  C   -0.475746
    14  H    0.149850
    15  H    0.149936
    16  H    0.151924
    17  H    0.151904
    18  H    0.155223
    19  H    0.155393
    20  H    0.160362
    21  C   -0.306763
    22  C   -0.304074
    23  C   -0.480744
    24  H    0.155476
    25  H    0.150081
    26  H    0.154024
    27  H    0.153716
    28  H    0.155017
    29  H    0.160906
    30  H    0.160730
    31  C   -0.297762
    32  C   -0.299843
    33  C   -0.475739
    34  H    0.149880
    35  H    0.149976
    36  H    0.151842
    37  H    0.151870
    38  H    0.155217
    39  H    0.155443
    40  H    0.160336
 Sum of Mulliken charges =  -0.00000

 Dipole moment (field-independent basis, Debye):
    X=              0.0028    Y=             -0.0041    Z=              0.0015  Tot=              0.0052
 Quadrupole moment (field-independent basis, Debye-Ang):
   XX=            -84.8272   YY=            -85.5789   ZZ=            -84.2520
   XY=              0.0093   XZ=             -1.7979   YZ=             -0.1588

 Normal termination of Gaussian 16 at Wed May  5 18:16:01 2021.
