 Gaussian 16, Revision A.03,
 Gaussian 16:  EM64L-G16RevA.03 25-Dec-2016

 -------------
 #p 6-31g* mp2
 -------------

 ------------------------------------------------------
 Input file generated by CHIRIPA (05-May-2021 14:51:14)
 ------------------------------------------------------
 Symbolic Z-matrix:
 Charge =  0 Multiplicity = 1

                         Standard orientation:
 ---------------------------------------------------------------------
 Center     Atomic      Atomic             Coordinates (Angstroms)
 Number     Number       Type             X           Y           Z
 ---------------------------------------------------------------------
      1          6           0       -3.610599   -0.311979   -0.319814
      2          6           0       -4.882131   -1.027438    0.137689
      3          6           0       -4.933151   -2.487841   -0.312218
      4          1           0       -3.543129   -0.362255   -1.415197
      5          1           0       -2.735267   -0.848181    0.072203
      6          1           0       -5.754835   -0.489253   -0.253923
      7          1           0       -4.946680   -0.975287    1.232097
      8          1           0       -4.080958   -3.044939    0.090284
      9          1           0       -4.893705   -2.556144   -1.404180
     10          1           0       -5.850401   -2.980182    0.025587
     11          6           0       -3.544986    1.148831    0.122291
     12          6           0       -2.273454    1.864291   -0.335211
     13          6           0       -2.222434    3.324693    0.114696
     14          1           0       -4.420318    1.685034   -0.269725
     15          1           0       -3.612456    1.199108    1.217675
     16          1           0       -2.208905    1.812139   -1.429620
     17          1           0       -1.400750    1.326106    0.056401
     18          1           0       -2.261880    3.392997    1.206658
     19          1           0       -3.074627    3.881792   -0.287806
     20          1           0       -1.305184    3.817035   -0.223109
     21          6           0        2.969843   -0.462425    0.559080
     22          6           0        1.694236   -0.900404   -0.161327
     23          6           0        0.486675   -0.983735    0.772826
     24          1           0        3.183194   -1.167075    1.374491
     25          1           0        2.799892    0.516492    1.028368
     26          1           0        1.866985   -1.877572   -0.630282
     27          1           0        1.484002   -0.194738   -0.975240
     28          1           0        0.286163   -0.009859    1.231041
     29          1           0        0.671321   -1.702253    1.577958
     30          1           0       -0.414314   -1.298589    0.237153
     31          6           0        4.185742   -0.374427   -0.361558
     32          6           0        5.461348    0.063552    0.358850
     33          6           0        6.668911    0.146882   -0.575304
     34          1           0        4.355694   -1.353345   -0.830845
     35          1           0        3.972390    0.330222   -1.176968
     36          1           0        5.671583   -0.642115    1.172762
     37          1           0        5.288600    1.040719    0.827804
     38          1           0        6.484264    0.865400   -1.380436
     39          1           0        6.869423   -0.826994   -1.033519
     40          1           0        7.569898    0.461736   -0.039630
 ---------------------------------------------------------------------

 SCF Done:  E(RHF) =  -470.732582926     A.U. after   11 cycles
 E2 =    -0.1583541092D+01 EUMP2 =    -0.47231612401805D+03

 The electronic state is 1-A.
 Alpha  occ. eigenvalues --  -11.21641 -11.21616 -11.21568 -11.21503 -11.21430
 Alpha  occ. eigenvalues --  -11.21369 -11.21352 -11.21292 -11.21122 -11.21082
 Alpha  occ. eigenvalues --  -11.21053 -11.21045  -1.08463  -1.08383  -1.03571
 Alpha  occ. eigenvalues --   -1.03486  -0.96026  -0.95944  -0.87047  -0.86962
 Alpha  occ. eigenvalues --   -0.79649  -0.79547  -0.78279  -0.78191  -0.65150
 Alpha  occ. eigenvalues --   -0.64984  -0.61086  -0.60785  -0.59407  -0.59310
 Alpha  occ. eigenvalues --   -0.57685  -0.57507  -0.55336  -0.55226  -0.52796
 Alpha  occ. eigenvalues --   -0.52603  -0.52473  -0.52328  -0.50061  -0.49826
 Alpha  occ. eigenvalues --   -0.48001  -0.47815  -0.46774  -0.46474  -0.45819
 Alpha  occ. eigenvalues --   -0.45762  -0.45727  -0.45571  -0.43773  -0.43698
 Alpha virt. eigenvalues --    0.21368   0.23072   0.23855   0.24243   0.26235
 Alpha virt. eigenvalues --    0.26633   0.27040   0.27501   0.27887   0.28763
 Alpha virt. eigenvalues --    0.30598   0.31565   0.31721   0.31944   0.32270

 Mulliken charges:
               1
     1  C   -0.306189
     2  C   -0.298978
     3  C   -0.475759
     4  H    0.149000
     5  H    0.157150
     6  H    0.151824
     7  H    0.151975
     8  H    0.154919
     9  H    0.155031
    10  H    0.160236
    11  C   -0.297154
    12  C   -0.308357
    13  C   -0.475385
    14  H    0.149231
    15  H    0.149317
    16  H    0.151031
    17  H    0.162032
    18  H    0.154773
    19  H    0.155129
    20  H    0.159426
    21  C   -0.298777
    22  C   -0.300140
    23  C   -0.484371
    24  H    0.149683
    25  H    0.149639
    26  H    0.152308
    27  H    0.153237
    28  H    0.156291
    29  H    0.155624
    30  H    0.166875
    31  C   -0.298283
    32  C   -0.299663
    33  C   -0.475721
    34  H    0.149601
    35  H    0.149783
    36  H    0.151947
    37  H    0.151972
    38  H    0.155228
    39  H    0.155210
    40  H    0.160305
 Sum of Mulliken charges =  -0.00000

 Dipole moment (field-independent basis, Debye):
    X=              0.0376    Y=             -0.0270    Z=              0.0064  Tot=              0.0468
 Quadrupole moment (field-independent basis, Debye-Ang):
   XX=            -85.6128   YY=            -84.9933   ZZ=            -84.3766
   XY=             -0.6050   XZ=              0.8843   YZ=             -0.6476

 Normal termination of Gaussian 16 at Wed May  5 23:14:10 2021.
