 Gaussian 16, Revision A.03,
 Gaussian 16:  EM64L-G16RevA.03 25-Dec-2016

 -------------
 #p 6-31g* mp2
 -------------

 ------------------------------------------------------
 Input file generated by CHIRIPA (05-May-2021 14:57:22)
 ------------------------------------------------------
 Symbolic Z-matrix:
 Charge =  0 Multiplicity = 1

                         Standard orientation:
 ---------------------------------------------------------------------
 Center     Atomic      Atomic             Coordinates (Angstroms)
 Number     Number       Type             X           Y           Z
 ---------------------------------------------------------------------
      1          6           0       -3.900215    2.085980    1.254804
      2          6           0       -2.602525    1.977359    0.744194
      3          6           0       -2.218174    0.847240    0.016421
      4          6           0       -3.161271   -0.159827   -0.182764
      5          6           0       -4.461689   -0.080919    0.313196
      6          6           0       -4.824027    1.058306    1.038058
      7          1           0       -4.190238    2.967421    1.819025
      8          1           0       -1.882983    2.773907    0.910971
      9          1           0       -1.220161    0.737282   -0.390147
     10          1           0       -5.156860   -0.891361    0.130605
     11          1           0       -5.832523    1.139952    1.433423
     12          7           0       -2.766028   -1.361053   -0.951684
     13          8           0       -3.615559   -2.234432   -1.113371
     14          8           0       -1.614190   -1.406450   -1.378116
     15          6           0        2.828890   -2.190686    1.310823
     16          6           0        3.991691   -1.449023    1.543961
     17          6           0        4.222380   -0.254903    0.854463
     18          6           0        3.264842    0.169949   -0.065272
     19          6           0        2.096498   -0.546699   -0.319586
     20          6           0        1.886667   -1.737955    0.381432
     21          1           0        2.657787   -3.117195    1.850916
     22          1           0        4.725171   -1.798196    2.265162
     23          1           0        5.113917    0.338935    1.015509
     24          1           0        1.383627   -0.173078   -1.044598
     25          1           0        0.982712   -2.311878    0.198335
     26          7           0        3.498023    1.432594   -0.801310
     27          8           0        2.638981    1.785321   -1.606462
     28          8           0        4.535415    2.045622   -0.559129
 ---------------------------------------------------------------------

 SCF Done:  E(RHF) =  -868.340501712     A.U. after   16 cycles
 E2 =    -0.2599271743D+01 EUMP2 =    -0.87093977345479D+03

 The electronic state is 1-A.
 Alpha  occ. eigenvalues --  -20.61529 -20.61464 -20.60655 -20.60640 -15.86518
 Alpha  occ. eigenvalues --  -15.85691 -11.31570 -11.30876 -11.28101 -11.28096
 Alpha  occ. eigenvalues --  -11.27769 -11.27438 -11.27307 -11.27080 -11.27053
 Alpha  occ. eigenvalues --  -11.26998 -11.26445 -11.26204  -1.60550  -1.59730
 Alpha  occ. eigenvalues --   -1.40119  -1.39288  -1.19710  -1.19011  -1.09160
 Alpha  occ. eigenvalues --   -1.08444  -1.05060  -1.04352  -0.96049  -0.95311
 Alpha  occ. eigenvalues --   -0.86477  -0.85769  -0.82897  -0.82120  -0.77992
 Alpha  occ. eigenvalues --   -0.77188  -0.72752  -0.71911  -0.71850  -0.71054
 Alpha  occ. eigenvalues --   -0.70819  -0.70113  -0.65365  -0.65057  -0.64642
 Alpha  occ. eigenvalues --   -0.64314  -0.62428  -0.61653  -0.55572  -0.54877
 Alpha  occ. eigenvalues --   -0.53411  -0.53152  -0.52733  -0.52397  -0.49519
 Alpha  occ. eigenvalues --   -0.49459  -0.48679  -0.48651  -0.45580  -0.44733
 Alpha  occ. eigenvalues --   -0.37672  -0.37006  -0.36648  -0.35962
 Alpha virt. eigenvalues --    0.04496   0.05256   0.11004   0.11631   0.16040
 Alpha virt. eigenvalues --    0.16813   0.20342   0.22128   0.25348   0.27467
 Alpha virt. eigenvalues --    0.28344   0.29308   0.31049   0.31420   0.31775

 Mulliken charges:
               1
     1  C   -0.169842
     2  C   -0.220067
     3  C   -0.170993
     4  C    0.156691
     5  C   -0.170543
     6  C   -0.218770
     7  H    0.227881
     8  H    0.229663
     9  H    0.276683
    10  H    0.275566
    11  H    0.224617
    12  N    0.490198
    13  O   -0.455610
    14  O   -0.473007
    15  C   -0.171770
    16  C   -0.218440
    17  C   -0.172639
    18  C    0.159363
    19  C   -0.182851
    20  C   -0.224070
    21  H    0.225577
    22  H    0.221791
    23  H    0.273506
    24  H    0.283554
    25  H    0.240710
    26  N    0.487611
    27  O   -0.463429
    28  O   -0.461382
 Sum of Mulliken charges =  -0.00000

 Dipole moment (field-independent basis, Debye):
    X=             -2.5386    Y=             -0.2406    Z=              5.3414  Tot=              5.9189
 Quadrupole moment (field-independent basis, Debye-Ang):
   XX=            -93.5642   YY=           -107.6809   ZZ=           -106.3960
   XY=            -25.9219   XZ=              1.7004   YZ=             -0.2113

 Normal termination of Gaussian 16 at Thu May  6 12:55:33 2021.
