 Gaussian 16, Revision A.03,
 Gaussian 16:  EM64L-G16RevA.03 25-Dec-2016

 -------------
 #p 6-31g* mp2
 -------------

 ------------------------------------------------------
 Input file generated by CHIRIPA (05-May-2021 14:53:12)
 ------------------------------------------------------
 Symbolic Z-matrix:
 Charge =  0 Multiplicity = 1

                         Standard orientation:
 ---------------------------------------------------------------------
 Center     Atomic      Atomic             Coordinates (Angstroms)
 Number     Number       Type             X           Y           Z
 ---------------------------------------------------------------------
      1          6           0       -3.659515   -0.462218    0.141865
      2          6           0       -4.188757   -1.625096   -0.698136
      3          6           0       -4.728807   -2.773064    0.155274
      4          1           0       -2.867052   -0.830172    0.807865
      5          1           0       -4.465230   -0.090825    0.790158
      6          1           0       -3.382670   -1.993286   -1.345651
      7          1           0       -4.979920   -1.254291   -1.362351
      8          1           0       -5.550627   -2.427247    0.790587
      9          1           0       -3.944302   -3.170441    0.807382
     10          1           0       -5.101974   -3.593647   -0.465411
     11          6           0       -3.116219    0.693094   -0.697071
     12          6           0       -2.586976    1.855973    0.142930
     13          6           0       -2.046927    3.003941   -0.710480
     14          1           0       -2.310503    0.321702   -1.345365
     15          1           0       -3.908682    1.061049   -1.363071
     16          1           0       -1.795813    1.485168    0.807145
     17          1           0       -3.393063    2.224163    0.790445
     18          1           0       -2.831432    3.401318   -1.362588
     19          1           0       -1.225106    2.658124   -1.345793
     20          1           0       -1.673760    3.824524   -0.089795
     21          6           0        4.521774   -1.397744   -0.851102
     22          6           0        4.386412   -0.029805   -1.109825
     23          6           0        3.351314    0.704655   -0.523573
     24          6           0        2.465503    0.036224    0.320126
     25          6           0        2.574014   -1.325612    0.597470
     26          6           0        3.616738   -2.040150    0.000219
     27          1           0        5.328825   -1.960552   -1.310789
     28          1           0        5.087804    0.471721   -1.770556
     29          1           0        3.223268    1.764619   -0.706598
     30          1           0        1.859338   -1.797893    1.260499
     31          1           0        3.719425   -3.102411    0.202957
     32          7           0        1.365654    0.803218    0.946586
     33          8           0        0.598333    0.190972    1.686189
     34          8           0        1.291738    2.002109    0.686141
 ---------------------------------------------------------------------

 SCF Done:  E(RHF) =  -669.536900661     A.U. after   15 cycles
 E2 =    -0.2092248557D+01 EUMP2 =    -0.67162914921777D+03

 The electronic state is 1-A.
 Alpha  occ. eigenvalues --  -20.61150 -20.61140 -15.86132 -11.31404 -11.27954
 Alpha  occ. eigenvalues --  -11.27948 -11.27679 -11.26944 -11.26934 -11.20899
 Alpha  occ. eigenvalues --  -11.20519 -11.20365 -11.20227 -11.19875 -11.19551
 Alpha  occ. eigenvalues --   -1.60177  -1.39734  -1.19561  -1.08976  -1.07335
 Alpha  occ. eigenvalues --   -1.04946  -1.02400  -0.95826  -0.94891  -0.86349
 Alpha  occ. eigenvalues --   -0.85925  -0.82661  -0.78513  -0.77724  -0.77075
 Alpha  occ. eigenvalues --   -0.72339  -0.71489  -0.70667  -0.65214  -0.64949
 Alpha  occ. eigenvalues --   -0.63968  -0.62292  -0.59797  -0.58314  -0.56467
 Alpha  occ. eigenvalues --   -0.55451  -0.54201  -0.53278  -0.53035  -0.51600
 Alpha  occ. eigenvalues --   -0.51323  -0.49169  -0.49107  -0.48865  -0.46807
 Alpha  occ. eigenvalues --   -0.45567  -0.45168  -0.44653  -0.44343  -0.42662
 Alpha  occ. eigenvalues --   -0.37533  -0.36543
 Alpha virt. eigenvalues --    0.04755   0.11113   0.16250   0.21244   0.23868
 Alpha virt. eigenvalues --    0.25415   0.27181   0.27626   0.28171   0.28727
 Alpha virt. eigenvalues --    0.29009   0.30847   0.32323   0.32507   0.32791

 Mulliken charges:
               1
     1  C   -0.299802
     2  C   -0.298343
     3  C   -0.474837
     4  H    0.157136
     5  H    0.147767
     6  H    0.148111
     7  H    0.149854
     8  H    0.154959
     9  H    0.154063
    10  H    0.156641
    11  C   -0.295533
    12  C   -0.313252
    13  C   -0.468797
    14  H    0.142962
    15  H    0.144074
    16  H    0.181584
    17  H    0.145217
    18  H    0.144038
    19  H    0.151563
    20  H    0.164137
    21  C   -0.170303
    22  C   -0.218606
    23  C   -0.170770
    24  C    0.159611
    25  C   -0.170674
    26  C   -0.218584
    27  H    0.226466
    28  H    0.224312
    29  H    0.276307
    30  H    0.275847
    31  H    0.224259
    32  N    0.488120
    33  O   -0.460121
    34  O   -0.457406
 Sum of Mulliken charges =  -0.00000

 Dipole moment (field-independent basis, Debye):
    X=              4.2960    Y=             -2.6768    Z=             -2.0125  Tot=              5.4471
 Quadrupole moment (field-independent basis, Debye-Ang):
   XX=            -76.0040   YY=            -92.7051   ZZ=            -96.2055
   XY=             -5.9460   XZ=             -5.5976   YZ=             -2.4616

 Normal termination of Gaussian 16 at Thu May  6 05:43:52 2021.
