 Gaussian 16, Revision A.03,
 Gaussian 16:  EM64L-G16RevA.03 25-Dec-2016

 -------------
 #p 6-31g* mp2
 -------------

 ------------------------------------------------------
 Input file generated by CHIRIPA (05-May-2021 14:55:22)
 ------------------------------------------------------
 Symbolic Z-matrix:
 Charge =  0 Multiplicity = 1

                         Standard orientation:
 ---------------------------------------------------------------------
 Center     Atomic      Atomic             Coordinates (Angstroms)
 Number     Number       Type             X           Y           Z
 ---------------------------------------------------------------------
      1          6           0        0.440386    0.015031    2.239747
      2          6           0        0.447880   -1.202765    1.551681
      3          6           0        1.336356   -1.414812    0.493288
      4          6           0        2.207529   -0.382752    0.148034
      5          6           0        2.224189    0.841659    0.814241
      6          6           0        1.327001    1.031565    1.869484
      7          1           0       -0.253187    0.171154    3.060709
      8          1           0       -0.239550   -1.994000    1.837044
      9          1           0        1.363446   -2.347804   -0.056447
     10          1           0        2.921327    1.611628    0.506729
     11          1           0        1.323413    1.978347    2.402058
     12          7           0        3.152730   -0.595516   -0.970772
     13          8           0        3.910209    0.329579   -1.255483
     14          8           0        3.118201   -1.683347   -1.541795
     15          6           0       -3.178326   -0.038468   -0.637291
     16          6           0       -3.086819   -1.401619    0.049317
     17          6           0       -4.198122   -2.357901   -0.384649
     18          1           0       -4.156735    0.410495   -0.417987
     19          1           0       -3.136613   -0.180581   -1.726079
     20          1           0       -3.127299   -1.256864    1.136526
     21          1           0       -2.108440   -1.847305   -0.171491
     22          1           0       -4.156766   -2.531743   -1.464773
     23          1           0       -5.181414   -1.937946   -0.149326
     24          1           0       -4.113598   -3.326271    0.118315
     25          6           0       -2.074149    0.928543   -0.213722
     26          6           0       -2.165656    2.291694   -0.900329
     27          6           0       -1.054353    3.247975   -0.466364
     28          1           0       -2.115862    1.070655    0.875067
     29          1           0       -1.095741    0.479580   -0.433026
     30          1           0       -3.144035    2.737380   -0.679522
     31          1           0       -2.125176    2.146938   -1.987538
     32          1           0       -0.071061    2.828021   -0.701687
     33          1           0       -1.095709    3.421817    0.613761
     34          1           0       -1.138877    4.216347   -0.969328
 ---------------------------------------------------------------------

 SCF Done:  E(RHF) =  -669.533871934     A.U. after   15 cycles
 E2 =    -0.2095967778D+01 EUMP2 =    -0.67162983971290D+03

 The electronic state is 1-A.
 Alpha  occ. eigenvalues --  -20.60825 -20.60820 -15.85879 -11.31264 -11.27813
 Alpha  occ. eigenvalues --  -11.27795 -11.27479 -11.26800 -11.26752 -11.22225
 Alpha  occ. eigenvalues --  -11.21863 -11.21775 -11.21596 -11.21564 -11.21390
 Alpha  occ. eigenvalues --   -1.59902  -1.39454  -1.19422  -1.08902  -1.08719
 Alpha  occ. eigenvalues --   -1.04816  -1.03945  -0.96376  -0.95639  -0.87399
 Alpha  occ. eigenvalues --   -0.86203  -0.82468  -0.80043  -0.78659  -0.77513
 Alpha  occ. eigenvalues --   -0.72092  -0.71228  -0.70511  -0.65459  -0.65055
 Alpha  occ. eigenvalues --   -0.64799  -0.62163  -0.61345  -0.59754  -0.58011
 Alpha  occ. eigenvalues --   -0.55664  -0.55293  -0.53421  -0.53023  -0.52878
 Alpha  occ. eigenvalues --   -0.52745  -0.50322  -0.48856  -0.48850  -0.48340
 Alpha  occ. eigenvalues --   -0.47084  -0.46173  -0.45954  -0.44856  -0.44174
 Alpha  occ. eigenvalues --   -0.37270  -0.36351
 Alpha virt. eigenvalues --    0.04949   0.11130   0.16338   0.20390   0.22935
 Alpha virt. eigenvalues --    0.23401   0.25576   0.26408   0.27455   0.27955
 Alpha virt. eigenvalues --    0.29075   0.29869   0.30725   0.31519   0.32004

 Mulliken charges:
               1
     1  C   -0.168129
     2  C   -0.214138
     3  C   -0.175381
     4  C    0.158557
     5  C   -0.172969
     6  C   -0.214648
     7  H    0.225066
     8  H    0.225965
     9  H    0.275553
    10  H    0.276107
    11  H    0.224184
    12  N    0.488038
    13  O   -0.460189
    14  O   -0.460355
    15  C   -0.298273
    16  C   -0.300427
    17  C   -0.475593
    18  H    0.149505
    19  H    0.152689
    20  H    0.143549
    21  H    0.149827
    22  H    0.158716
    23  H    0.156607
    24  H    0.158547
    25  C   -0.298889
    26  C   -0.299983
    27  C   -0.475549
    28  H    0.140098
    29  H    0.159644
    30  H    0.150794
    31  H    0.154757
    32  H    0.157660
    33  H    0.147145
    34  H    0.161513
 Sum of Mulliken charges =  -0.00000

 Dipole moment (field-independent basis, Debye):
    X=             -3.2851    Y=              0.7339    Z=              3.8982  Tot=              5.1504
 Quadrupole moment (field-independent basis, Debye-Ang):
   XX=           -109.8547   YY=            -91.9800   ZZ=            -93.5376
   XY=              4.1922   XZ=              8.2171   YZ=             -0.6232

 Normal termination of Gaussian 16 at Thu May  6 14:14:22 2021.
