 Gaussian 16, Revision A.03,
 Gaussian 16:  EM64L-G16RevA.03 25-Dec-2016

 -------------
 #p 6-31g* mp2
 -------------

 ------------------------------------------------------
 Input file generated by CHIRIPA (05-May-2021 14:51:12)
 ------------------------------------------------------
 Symbolic Z-matrix:
 Charge =  0 Multiplicity = 1

                         Standard orientation:
 ---------------------------------------------------------------------
 Center     Atomic      Atomic             Coordinates (Angstroms)
 Number     Number       Type             X           Y           Z
 ---------------------------------------------------------------------
      1          6           0       -2.631769    0.096622    0.688286
      2          6           0       -3.799334   -0.857768    0.941107
      3          6           0       -3.690347   -1.582760    2.282860
      4          1           0       -1.690129   -0.468024    0.726156
      5          1           0       -2.587106    0.833825    1.501877
      6          1           0       -3.842628   -1.592106    0.126558
      7          1           0       -4.738317   -0.290818    0.902440
      8          1           0       -3.670028   -0.864097    3.108519
      9          1           0       -2.769250   -2.172778    2.328229
     10          1           0       -4.535186   -2.259829    2.443128
     11          6           0       -2.726507    0.828824   -0.649112
     12          6           0       -1.558942    1.783213   -0.901933
     13          6           0       -1.667929    2.508206   -2.243686
     14          1           0       -2.771170    0.091621   -1.462703
     15          1           0       -3.668147    1.393470   -0.686982
     16          1           0       -0.619959    1.216264   -0.863266
     17          1           0       -1.515648    2.517552   -0.087384
     18          1           0       -2.589026    3.098224   -2.289055
     19          1           0       -1.688248    1.789543   -3.069345
     20          1           0       -0.823091    3.185275   -2.403954
     21          6           0        3.282778   -0.106166    0.283593
     22          6           0        2.915447    0.847850    1.420652
     23          6           0        4.133663    1.553653    2.016964
     24          1           0        3.995443   -0.854270    0.656948
     25          1           0        3.803696    0.456186   -0.503681
     26          1           0        2.394152    0.284130    2.204928
     27          1           0        2.203425    1.593653    1.044595
     28          1           0        4.651875    2.140395    1.251594
     29          1           0        4.843684    0.823431    2.418519
     30          1           0        3.848208    2.230771    2.828064
     31          6           0        2.075498   -0.819280   -0.322766
     32          6           0        2.442829   -1.773296   -1.459826
     33          6           0        1.224613   -2.479099   -2.056137
     34          1           0        1.554580   -1.381632    0.464506
     35          1           0        1.362832   -0.071176   -0.696122
     36          1           0        3.154850   -2.519100   -1.083769
     37          1           0        2.964123   -1.209576   -2.244102
     38          1           0        0.514592   -1.748877   -2.457693
     39          1           0        0.706401   -3.065841   -1.290767
     40          1           0        1.510069   -3.156217   -2.867239
 ---------------------------------------------------------------------

 SCF Done:  E(RHF) =  -470.733430237     A.U. after   11 cycles
 E2 =    -0.1583404549D+01 EUMP2 =    -0.47231683478642D+03

 The electronic state is 1-A.
 Alpha  occ. eigenvalues --  -11.21659 -11.21603 -11.21594 -11.21574 -11.21450
 Alpha  occ. eigenvalues --  -11.21386 -11.21380 -11.21313 -11.21147 -11.21097
 Alpha  occ. eigenvalues --  -11.21074 -11.21056  -1.08479  -1.08406  -1.03566
 Alpha  occ. eigenvalues --   -1.03523  -0.96019  -0.95971  -0.87036  -0.86987
 Alpha  occ. eigenvalues --   -0.79637  -0.79583  -0.78373  -0.78139  -0.65186
 Alpha  occ. eigenvalues --   -0.64973  -0.61008  -0.60881  -0.59385  -0.59342
 Alpha  occ. eigenvalues --   -0.57631  -0.57580  -0.55328  -0.55242  -0.52713
 Alpha  occ. eigenvalues --   -0.52669  -0.52451  -0.52393  -0.50002  -0.49887
 Alpha  occ. eigenvalues --   -0.47989  -0.47905  -0.46814  -0.46588  -0.46131
 Alpha  occ. eigenvalues --   -0.45749  -0.45717  -0.45222  -0.43822  -0.43770
 Alpha virt. eigenvalues --    0.20384   0.23271   0.23788   0.24455   0.25231
 Alpha virt. eigenvalues --    0.26511   0.26829   0.27915   0.28185   0.29843
 Alpha virt. eigenvalues --    0.30793   0.31625   0.31694   0.31906   0.32153

 Mulliken charges:
               1
     1  C   -0.299752
     2  C   -0.299722
     3  C   -0.475576
     4  H    0.151752
     5  H    0.149321
     6  H    0.152118
     7  H    0.151787
     8  H    0.155123
     9  H    0.154872
    10  H    0.160169
    11  C   -0.297491
    12  C   -0.309864
    13  C   -0.475127
    14  H    0.149465
    15  H    0.149589
    16  H    0.160306
    17  H    0.152017
    18  H    0.155550
    19  H    0.154797
    20  H    0.159714
    21  C   -0.297615
    22  C   -0.300440
    23  C   -0.475740
    24  H    0.149815
    25  H    0.149518
    26  H    0.152103
    27  H    0.152986
    28  H    0.155139
    29  H    0.155158
    30  H    0.160382
    31  C   -0.308825
    32  C   -0.298970
    33  C   -0.476085
    34  H    0.149530
    35  H    0.159135
    36  H    0.152321
    37  H    0.152171
    38  H    0.154587
    39  H    0.154970
    40  H    0.160811
 Sum of Mulliken charges =  -0.00000

 Dipole moment (field-independent basis, Debye):
    X=              0.0235    Y=             -0.0051    Z=              0.0035  Tot=              0.0243
 Quadrupole moment (field-independent basis, Debye-Ang):
   XX=            -85.1152   YY=            -84.3443   ZZ=            -85.3066
   XY=             -0.9911   XZ=             -0.5322   YZ=              0.1069

 Normal termination of Gaussian 16 at Wed May  5 19:55:46 2021.
