 Gaussian 16, Revision A.03,
 Gaussian 16:  EM64L-G16RevA.03 25-Dec-2016

 -------------
 #p 6-31g* mp2
 -------------

 ------------------------------------------------------
 Input file generated by CHIRIPA (05-May-2021 14:51:09)
 ------------------------------------------------------
 Symbolic Z-matrix:
 Charge =  0 Multiplicity = 1

                         Standard orientation:
 ---------------------------------------------------------------------
 Center     Atomic      Atomic             Coordinates (Angstroms)
 Number     Number       Type             X           Y           Z
 ---------------------------------------------------------------------
      1          6           0        3.020628    0.553009   -0.931411
      2          6           0        2.586764    1.907296   -0.369580
      3          6           0        2.024454    2.839846   -1.442871
      4          1           0        3.776019    0.712435   -1.713020
      5          1           0        2.160946    0.074375   -1.420544
      6          1           0        3.446664    2.382620    0.119556
      7          1           0        1.832458    1.744617    0.410916
      8          1           0        1.150398    2.389882   -1.924700
      9          1           0        2.773775    3.031511   -2.217715
     10          1           0        1.720524    3.802211   -1.019385
     11          6           0        3.584948   -0.390297    0.129460
     12          6           0        4.018811   -1.744584   -0.432371
     13          6           0        4.581121   -2.677134    0.640920
     14          1           0        4.444629    0.088337    0.618593
     15          1           0        2.829557   -0.549723    0.911069
     16          1           0        4.773117   -1.581905   -1.212867
     17          1           0        3.158911   -2.219909   -0.921507
     18          1           0        3.831800   -2.868800    1.415764
     19          1           0        5.455178   -2.227171    1.122749
     20          1           0        4.885052   -3.639499    0.217435
     21          6           0       -2.576517   -0.047599    0.635117
     22          6           0       -2.360352    0.914066    1.804073
     23          6           0       -0.902392    0.970640    2.261178
     24          1           0       -2.243617   -1.052488    0.928924
     25          1           0       -1.939289    0.259361   -0.205781
     26          1           0       -2.998827    0.606196    2.642036
     27          1           0       -2.693982    1.916743    1.507515
     28          1           0       -0.254416    1.299541    1.442305
     29          1           0       -0.560993   -0.018452    2.583272
     30          1           0       -0.770521    1.664062    3.097621
     31          6           0       -4.029059   -0.115112    0.166834
     32          6           0       -4.245223   -1.076778   -1.002122
     33          6           0       -5.703184   -1.133351   -1.459226
     34          1           0       -4.666287   -0.422074    1.007732
     35          1           0       -4.361958    0.889777   -0.126973
     36          1           0       -3.911594   -2.079454   -0.705564
     37          1           0       -3.606749   -0.768908   -1.840085
     38          1           0       -6.044582   -0.144259   -1.781322
     39          1           0       -6.351159   -1.462252   -0.640354
     40          1           0       -5.835055   -1.826773   -2.295670
 ---------------------------------------------------------------------

 SCF Done:  E(RHF) =  -470.733374122     A.U. after   11 cycles
 E2 =    -0.1582668352D+01 EUMP2 =    -0.47231604247395D+03

 The electronic state is 1-A.
 Alpha  occ. eigenvalues --  -11.21651 -11.21634 -11.21575 -11.21571 -11.21451
 Alpha  occ. eigenvalues --  -11.21390 -11.21377 -11.21315 -11.21126 -11.21094
 Alpha  occ. eigenvalues --  -11.21087 -11.21050  -1.08474  -1.08407  -1.03577
 Alpha  occ. eigenvalues --   -1.03512  -0.96026  -0.95964  -0.87048  -0.86977
 Alpha  occ. eigenvalues --   -0.79666  -0.79551  -0.78295  -0.78209  -0.65142
 Alpha  occ. eigenvalues --   -0.65012  -0.61079  -0.60826  -0.59389  -0.59334
 Alpha  occ. eigenvalues --   -0.57641  -0.57568  -0.55357  -0.55215  -0.52717
 Alpha  occ. eigenvalues --   -0.52664  -0.52467  -0.52381  -0.50062  -0.49840
 Alpha  occ. eigenvalues --   -0.48047  -0.47831  -0.46798  -0.46472  -0.45896
 Alpha  occ. eigenvalues --   -0.45776  -0.45717  -0.45543  -0.43827  -0.43765
 Alpha virt. eigenvalues --    0.20984   0.23111   0.23827   0.24779   0.25803
 Alpha virt. eigenvalues --    0.26586   0.27061   0.27764   0.28020   0.29177
 Alpha virt. eigenvalues --    0.30281   0.31597   0.31746   0.31851   0.31938

 Mulliken charges:
               1
     1  C   -0.297668
     2  C   -0.308561
     3  C   -0.475450
     4  H    0.149538
     5  H    0.149249
     6  H    0.152297
     7  H    0.159976
     8  H    0.154205
     9  H    0.155515
    10  H    0.160204
    11  C   -0.298816
    12  C   -0.299683
    13  C   -0.475666
    14  H    0.149441
    15  H    0.150737
    16  H    0.151791
    17  H    0.151976
    18  H    0.155162
    19  H    0.155156
    20  H    0.160117
    21  C   -0.298283
    22  C   -0.299219
    23  C   -0.483318
    24  H    0.149540
    25  H    0.148957
    26  H    0.152200
    27  H    0.152316
    28  H    0.161884
    29  H    0.154955
    30  H    0.160974
    31  C   -0.298353
    32  C   -0.299693
    33  C   -0.475740
    34  H    0.149696
    35  H    0.149878
    36  H    0.151921
    37  H    0.151868
    38  H    0.155293
    39  H    0.155249
    40  H    0.160356
 Sum of Mulliken charges =  -0.00000

 Dipole moment (field-independent basis, Debye):
    X=             -0.0168    Y=              0.0043    Z=              0.0165  Tot=              0.0240
 Quadrupole moment (field-independent basis, Debye-Ang):
   XX=            -85.0385   YY=            -84.7168   ZZ=            -84.9634
   XY=              0.6832   XZ=             -1.0004   YZ=             -0.0977

 Normal termination of Gaussian 16 at Wed May  5 22:57:37 2021.
