 Gaussian 16, Revision A.03,
 Gaussian 16:  EM64L-G16RevA.03 25-Dec-2016

 -------------
 #p 6-31g* mp2
 -------------

 ------------------------------------------------------
 Input file generated by CHIRIPA (05-May-2021 14:55:19)
 ------------------------------------------------------
 Symbolic Z-matrix:
 Charge =  0 Multiplicity = 1

                         Standard orientation:
 ---------------------------------------------------------------------
 Center     Atomic      Atomic             Coordinates (Angstroms)
 Number     Number       Type             X           Y           Z
 ---------------------------------------------------------------------
      1          6           0        5.404874   -0.794351    0.164466
      2          6           0        5.060696    0.517424   -0.178037
      3          6           0        3.718958    0.889987   -0.302463
      4          6           0        2.742771   -0.079132   -0.076281
      5          6           0        3.053861   -1.394100    0.266315
      6          6           0        4.402126   -1.744252    0.385160
      7          1           0        6.449704   -1.075062    0.258956
      8          1           0        5.837328    1.257230   -0.350014
      9          1           0        3.424427    1.898448   -0.566425
     10          1           0        2.257382   -2.109443    0.431611
     11          1           0        4.666476   -2.763735    0.651278
     12          7           0        1.318878    0.303421   -0.205051
     13          8           0        0.477680   -0.569060   -0.000603
     14          8           0        1.070991    1.468503   -0.507992
     15          6           0       -4.433381   -0.247164   -0.039354
     16          6           0       -4.145441   -1.748735   -0.020408
     17          6           0       -5.400146   -2.594094   -0.241494
     18          1           0       -5.176266   -0.012922    0.735369
     19          1           0       -4.891156    0.019211   -1.002101
     20          1           0       -3.687077   -2.011961    0.941480
     21          1           0       -3.403013   -1.979401   -0.795140
     22          1           0       -5.856697   -2.360285   -1.208704
     23          1           0       -6.142375   -2.393030    0.537783
     24          1           0       -5.171410   -3.664252   -0.224143
     25          6           0       -3.188882    0.611149    0.180304
     26          6           0       -3.476820    2.112720    0.161358
     27          6           0       -2.222115    2.958079    0.382443
     28          1           0       -2.731106    0.344773    1.143051
     29          1           0       -2.445996    0.376905   -0.594420
     30          1           0       -4.219250    2.343386    0.936090
     31          1           0       -3.935186    2.375946   -0.800530
     32          1           0       -1.479888    2.757015   -0.396833
     33          1           0       -1.765565    2.724270    1.349654
     34          1           0       -2.450852    4.028237    0.365093
 ---------------------------------------------------------------------

 SCF Done:  E(RHF) =  -669.536270172     A.U. after   15 cycles
 E2 =    -0.2091909279D+01 EUMP2 =    -0.67162817945121D+03

 The electronic state is 1-A.
 Alpha  occ. eigenvalues --  -20.61046 -20.61040 -15.86054 -11.31350 -11.27906
 Alpha  occ. eigenvalues --  -11.27903 -11.27639 -11.26907 -11.26897 -11.20416
 Alpha  occ. eigenvalues --  -11.20171 -11.20034 -11.19979 -11.19508 -11.19125
 Alpha  occ. eigenvalues --   -1.60088  -1.39646  -1.19513  -1.08923  -1.06936
 Alpha  occ. eigenvalues --   -1.04904  -1.02093  -0.95769  -0.94525  -0.86306
 Alpha  occ. eigenvalues --   -0.85537  -0.82604  -0.78188  -0.77660  -0.76647
 Alpha  occ. eigenvalues --   -0.72270  -0.71397  -0.70621  -0.65168  -0.64906
 Alpha  occ. eigenvalues --   -0.63587  -0.62251  -0.59507  -0.57954  -0.56119
 Alpha  occ. eigenvalues --   -0.55409  -0.53816  -0.53238  -0.52995  -0.51288
 Alpha  occ. eigenvalues --   -0.50932  -0.49134  -0.49026  -0.48387  -0.46443
 Alpha  occ. eigenvalues --   -0.45227  -0.45061  -0.44197  -0.44026  -0.42325
 Alpha  occ. eigenvalues --   -0.37491  -0.36503
 Alpha virt. eigenvalues --    0.04866   0.11152   0.16372   0.21287   0.24234
 Alpha virt. eigenvalues --    0.25750   0.27212   0.28077   0.28209   0.29034
 Alpha virt. eigenvalues --    0.29426   0.30881   0.32387   0.32813   0.32946

 Mulliken charges:
               1
     1  C   -0.170476
     2  C   -0.218577
     3  C   -0.170724
     4  C    0.157665
     5  C   -0.170627
     6  C   -0.218603
     7  H    0.226192
     8  H    0.224036
     9  H    0.276038
    10  H    0.276021
    11  H    0.224017
    12  N    0.489678
    13  O   -0.458347
    14  O   -0.459535
    15  C   -0.298213
    16  C   -0.297619
    17  C   -0.474818
    18  H    0.143956
    19  H    0.144994
    20  H    0.151035
    21  H    0.154882
    22  H    0.152955
    23  H    0.152517
    24  H    0.156126
    25  C   -0.297946
    26  C   -0.299561
    27  C   -0.479046
    28  H    0.149558
    29  H    0.167307
    30  H    0.143415
    31  H    0.145547
    32  H    0.179505
    33  H    0.150663
    34  H    0.147983
 Sum of Mulliken charges =  -0.00000

 Dipole moment (field-independent basis, Debye):
    X=              5.5458    Y=             -1.4168    Z=              0.3668  Tot=              5.7357
 Quadrupole moment (field-independent basis, Debye-Ang):
   XX=            -70.0960   YY=            -91.6900   ZZ=            -94.5313
   XY=             -3.0822   XZ=              0.4614   YZ=             -1.6123

 Normal termination of Gaussian 16 at Thu May  6 12:23:20 2021.
