 Gaussian 16, Revision A.03,
 Gaussian 16:  EM64L-G16RevA.03 25-Dec-2016

 -------------
 #p 6-31g* mp2
 -------------

 ------------------------------------------------------
 Input file generated by CHIRIPA (05-May-2021 14:51:09)
 ------------------------------------------------------
 Symbolic Z-matrix:
 Charge =  0 Multiplicity = 1

                         Standard orientation:
 ---------------------------------------------------------------------
 Center     Atomic      Atomic             Coordinates (Angstroms)
 Number     Number       Type             X           Y           Z
 ---------------------------------------------------------------------
      1          6           0        1.751503    1.159607    0.052789
      2          6           0        1.832008    2.541380    0.702564
      3          6           0        0.455043    3.147199    0.975962
      4          1           0        1.189598    1.236083   -0.888147
      5          1           0        1.177461    0.487846    0.705941
      6          1           0        2.406907    3.209961    0.049029
      7          1           0        2.393951    2.461641    1.641967
      8          1           0       -0.122979    2.503084    1.646488
      9          1           0       -0.109950    3.255655    0.044500
     10          1           0        0.536034    4.134835    1.440585
     11          6           0        3.120021    0.540930   -0.226718
     12          6           0        3.039516   -0.840843   -0.876493
     13          6           0        4.416481   -1.446662   -1.149891
     14          1           0        3.694063    1.212691   -0.879870
     15          1           0        3.681925    0.464454    0.714217
     16          1           0        2.477573   -0.761104   -1.815896
     17          1           0        2.464617   -1.509423   -0.222958
     18          1           0        4.981474   -1.555118   -0.218429
     19          1           0        4.994503   -0.802547   -1.820417
     20          1           0        4.335489   -2.434298   -1.614515
     21          6           0       -2.737333   -0.497450   -0.519670
     22          6           0       -3.997025    0.304350   -0.190611
     23          6           0       -4.588660    1.004426   -1.414398
     24          1           0       -1.986789    0.174464   -0.958031
     25          1           0       -2.976814   -1.243558   -1.289972
     26          1           0       -3.755565    1.047800    0.579840
     27          1           0       -4.744588   -0.369515    0.247195
     28          1           0       -4.857300    0.273522   -2.183952
     29          1           0       -3.862658    1.698890   -1.849417
     30          1           0       -5.488383    1.571733   -1.156484
     31          6           0       -2.134190   -1.203087    0.693599
     32          6           0       -0.874499   -2.004888    0.364540
     33          6           0       -0.282864   -2.704962    1.588327
     34          1           0       -1.894709   -0.456979    1.463902
     35          1           0       -2.884734   -1.875001    1.131960
     36          1           0       -0.126937   -1.331023   -0.073266
     37          1           0       -1.115959   -2.748338   -0.405911
     38          1           0       -1.008866   -3.399427    2.023346
     39          1           0       -0.014223   -1.974059    2.357882
     40          1           0        0.616860   -3.272270    1.330413
 ---------------------------------------------------------------------

 SCF Done:  E(RHF) =  -470.732828064     A.U. after   11 cycles
 E2 =    -0.1584625481D+01 EUMP2 =    -0.47231745354518D+03

 The electronic state is 1-A.
 Alpha  occ. eigenvalues --  -11.21681 -11.21625 -11.21555 -11.21477 -11.21470
 Alpha  occ. eigenvalues --  -11.21413 -11.21355 -11.21296 -11.21168 -11.21095
 Alpha  occ. eigenvalues --  -11.21091 -11.21041  -1.08523  -1.08364  -1.03593
 Alpha  occ. eigenvalues --   -1.03491  -0.96047  -0.95952  -0.87062  -0.86965
 Alpha  occ. eigenvalues --   -0.79662  -0.79566  -0.78434  -0.78087  -0.65268
 Alpha  occ. eigenvalues --   -0.64900  -0.60993  -0.60905  -0.59449  -0.59284
 Alpha  occ. eigenvalues --   -0.57659  -0.57557  -0.55367  -0.55210  -0.52741
 Alpha  occ. eigenvalues --   -0.52643  -0.52485  -0.52365  -0.49994  -0.49893
 Alpha  occ. eigenvalues --   -0.47979  -0.47904  -0.46787  -0.46683  -0.46116
 Alpha  occ. eigenvalues --   -0.45778  -0.45681  -0.45127  -0.43844  -0.43740
 Alpha virt. eigenvalues --    0.19995   0.22304   0.23741   0.24431   0.24972
 Alpha virt. eigenvalues --    0.26336   0.26951   0.27738   0.28498   0.30022
 Alpha virt. eigenvalues --    0.30347   0.31291   0.31714   0.31822   0.32174

 Mulliken charges:
               1
     1  C   -0.304518
     2  C   -0.299315
     3  C   -0.476253
     4  H    0.149660
     5  H    0.155149
     6  H    0.152366
     7  H    0.152290
     8  H    0.154837
     9  H    0.155023
    10  H    0.160947
    11  C   -0.297732
    12  C   -0.304969
    13  C   -0.475618
    14  H    0.149709
    15  H    0.149768
    16  H    0.152087
    17  H    0.157586
    18  H    0.155246
    19  H    0.155227
    20  H    0.160447
    21  C   -0.299001
    22  C   -0.299743
    23  C   -0.475569
    24  H    0.150817
    25  H    0.149218
    26  H    0.152382
    27  H    0.151706
    28  H    0.154987
    29  H    0.154894
    30  H    0.160186
    31  C   -0.298161
    32  C   -0.309387
    33  C   -0.477426
    34  H    0.148773
    35  H    0.149374
    36  H    0.163281
    37  H    0.151684
    38  H    0.155694
    39  H    0.154003
    40  H    0.160352
 Sum of Mulliken charges =  -0.00000

 Dipole moment (field-independent basis, Debye):
    X=              0.0472    Y=              0.0203    Z=             -0.0112  Tot=              0.0526
 Quadrupole moment (field-independent basis, Debye-Ang):
   XX=            -85.6203   YY=            -84.5745   ZZ=            -84.6139
   XY=              1.3060   XZ=             -0.0751   YZ=              0.0942

 Normal termination of Gaussian 16 at Thu May  6 02:09:44 2021.
