 Gaussian 16, Revision A.03,
 Gaussian 16:  EM64L-G16RevA.03 25-Dec-2016

 -------------
 #p 6-31g* mp2
 -------------

 ------------------------------------------------------
 Input file generated by CHIRIPA (05-May-2021 14:55:23)
 ------------------------------------------------------
 Symbolic Z-matrix:
 Charge =  0 Multiplicity = 1

                         Standard orientation:
 ---------------------------------------------------------------------
 Center     Atomic      Atomic             Coordinates (Angstroms)
 Number     Number       Type             X           Y           Z
 ---------------------------------------------------------------------
      1          6           0       -1.638434    0.071181    2.356342
      2          6           0       -2.599163   -0.932453    2.194348
      3          6           0       -3.272902   -1.080782    0.978362
      4          6           0       -2.959650   -0.204083   -0.059213
      5          6           0       -2.007515    0.805721    0.071269
      6          6           0       -1.346192    0.935540    1.296155
      7          1           0       -1.119880    0.179217    3.304407
      8          1           0       -2.828165   -1.605161    3.015972
      9          1           0       -4.021134   -1.849061    0.825670
     10          1           0       -1.800758    1.461189   -0.766007
     11          1           0       -0.600546    1.715887    1.419103
     12          7           0       -3.666335   -0.351315   -1.351234
     13          8           0       -3.372189    0.433824   -2.249940
     14          8           0       -4.501000   -1.249067   -1.440750
     15          6           0        4.280306   -0.130477   -0.402782
     16          6           0        4.294446   -1.609983   -0.016980
     17          6           0        5.583379   -2.317824   -0.435796
     18          1           0        4.413395   -0.040203   -1.489559
     19          1           0        5.141821    0.370277    0.060288
     20          1           0        3.432386   -2.107509   -0.479511
     21          1           0        4.161117   -1.696753    1.068982
     22          1           0        6.451992   -1.847797    0.036630
     23          1           0        5.719121   -2.260887   -1.520662
     24          1           0        5.572186   -3.374334   -0.150277
     25          6           0        2.998233    0.590810    0.009240
     26          6           0        2.984094    2.070317   -0.376563
     27          6           0        1.695160    2.778158    0.042253
     28          1           0        2.136718    0.090056   -0.453830
     29          1           0        2.865145    0.500537    1.096017
     30          1           0        3.117423    2.157086   -1.462524
     31          1           0        3.846153    2.567842    0.085969
     32          1           0        1.559419    2.721220    1.127120
     33          1           0        0.826547    2.308130   -0.430172
     34          1           0        1.706354    3.834667   -0.243266
 ---------------------------------------------------------------------

 SCF Done:  E(RHF) =  -669.534682193     A.U. after   15 cycles
 E2 =    -0.2092264428D+01 EUMP2 =    -0.67162694662114D+03

 The electronic state is 1-A.
 Alpha  occ. eigenvalues --  -20.60720 -20.60715 -15.85770 -11.31115 -11.27670
 Alpha  occ. eigenvalues --  -11.27653 -11.27383 -11.26693 -11.26559 -11.22326
 Alpha  occ. eigenvalues --  -11.22168 -11.21975 -11.21955 -11.21801 -11.21346
 Alpha  occ. eigenvalues --   -1.59795  -1.39350  -1.19271  -1.08982  -1.08668
 Alpha  occ. eigenvalues --   -1.04678  -1.04120  -0.96609  -0.95514  -0.87649
 Alpha  occ. eigenvalues --   -0.86062  -0.82355  -0.80214  -0.78764  -0.77387
 Alpha  occ. eigenvalues --   -0.71989  -0.71118  -0.70389  -0.65607  -0.64921
 Alpha  occ. eigenvalues --   -0.64695  -0.62099  -0.61510  -0.59952  -0.58176
 Alpha  occ. eigenvalues --   -0.55908  -0.55179  -0.53323  -0.53235  -0.52991
 Alpha  occ. eigenvalues --   -0.52505  -0.50558  -0.48768  -0.48747  -0.48446
 Alpha  occ. eigenvalues --   -0.47215  -0.46303  -0.46200  -0.44760  -0.44346
 Alpha  occ. eigenvalues --   -0.37249  -0.36252
 Alpha virt. eigenvalues --    0.05106   0.11367   0.16546   0.20567   0.22548
 Alpha virt. eigenvalues --    0.23944   0.25156   0.25816   0.27182   0.27569
 Alpha virt. eigenvalues --    0.29201   0.30091   0.31175   0.31380   0.32339

 Mulliken charges:
               1
     1  C   -0.173149
     2  C   -0.218240
     3  C   -0.171705
     4  C    0.159034
     5  C   -0.177392
     6  C   -0.220763
     7  H    0.225057
     8  H    0.222938
     9  H    0.275156
    10  H    0.275476
    11  H    0.234346
    12  N    0.488313
    13  O   -0.460962
    14  O   -0.460665
    15  C   -0.298854
    16  C   -0.300082
    17  C   -0.476066
    18  H    0.152259
    19  H    0.149872
    20  H    0.154031
    21  H    0.150311
    22  H    0.155179
    23  H    0.156762
    24  H    0.161212
    25  C   -0.299578
    26  C   -0.299334
    27  C   -0.482992
    28  H    0.153084
    29  H    0.145509
    30  H    0.157227
    31  H    0.154418
    32  H    0.148772
    33  H    0.154003
    34  H    0.166824
 Sum of Mulliken charges =  -0.00000

 Dipole moment (field-independent basis, Debye):
    X=              2.6984    Y=              0.5261    Z=              4.4796  Tot=              5.2559
 Quadrupole moment (field-independent basis, Debye-Ang):
   XX=           -108.9671   YY=            -92.5372   ZZ=            -94.4445
   XY=              1.0171   XZ=            -14.4886   YZ=             -2.6656

 Normal termination of Gaussian 16 at Thu May  6 12:36:11 2021.
