 Gaussian 16, Revision A.03,
 Gaussian 16:  EM64L-G16RevA.03 25-Dec-2016

 -------------
 #p 6-31g* mp2
 -------------

 ------------------------------------------------------
 Input file generated by CHIRIPA (05-May-2021 14:53:16)
 ------------------------------------------------------
 Symbolic Z-matrix:
 Charge =  0 Multiplicity = 1

                         Standard orientation:
 ---------------------------------------------------------------------
 Center     Atomic      Atomic             Coordinates (Angstroms)
 Number     Number       Type             X           Y           Z
 ---------------------------------------------------------------------
      1          6           0        4.422563   -0.634517   -0.407308
      2          6           0        2.909946   -0.593519   -0.187549
      3          6           0        2.197628   -1.825081   -0.747596
      4          1           0        4.628172   -0.721248   -1.483016
      5          1           0        4.829944   -1.540288    0.062812
      6          1           0        2.505732    0.312612   -0.656753
      7          1           0        2.707917   -0.506682    0.887746
      8          1           0        2.573146   -2.736853   -0.271929
      9          1           0        2.369812   -1.912904   -1.825204
     10          1           0        1.117285   -1.775031   -0.579622
     11          6           0        5.148689    0.589854    0.147116
     12          6           0        6.661306    0.548857   -0.072642
     13          6           0        7.373624    1.780418    0.487404
     14          1           0        4.741308    1.495626   -0.323003
     15          1           0        4.943080    0.676586    1.222824
     16          1           0        6.863335    0.462019   -1.147938
     17          1           0        7.065520   -0.357275    0.396562
     18          1           0        7.201440    1.868241    1.565013
     19          1           0        6.998106    2.692191    0.011738
     20          1           0        8.453967    1.730368    0.319430
     21          6           0       -5.671898    1.509150   -0.533786
     22          6           0       -5.434356    1.205778    0.810855
     23          6           0       -4.366200    0.380343    1.174511
     24          6           0       -3.551882   -0.126766    0.163068
     25          6           0       -3.762713    0.157182   -1.185344
     26          6           0       -4.836790    0.984807   -1.525845
     27          1           0       -6.503968    2.151217   -0.807289
     28          1           0       -6.081273    1.611574    1.583431
     29          1           0       -4.159503    0.129329    2.207801
     30          1           0       -3.100563   -0.262252   -1.933042
     31          1           0       -5.018879    1.218715   -2.570917
     32          7           0       -2.417939   -1.001776    0.535797
     33          8           0       -1.715106   -1.435947   -0.374235
     34          8           0       -2.253458   -1.236872    1.730918
 ---------------------------------------------------------------------

 SCF Done:  E(RHF) =  -669.536407495     A.U. after   15 cycles
 E2 =    -0.2090754824D+01 EUMP2 =    -0.67162716231893D+03

 The electronic state is 1-A.
 Alpha  occ. eigenvalues --  -20.60997 -20.60983 -15.86017 -11.31316 -11.27875
 Alpha  occ. eigenvalues --  -11.27872 -11.27611 -11.26878 -11.26869 -11.21073
 Alpha  occ. eigenvalues --  -11.20720 -11.20645 -11.20530 -11.20455 -11.19481
 Alpha  occ. eigenvalues --   -1.60046  -1.39603  -1.19481  -1.08890  -1.07639
 Alpha  occ. eigenvalues --   -1.04874  -1.02648  -0.95736  -0.95076  -0.86276
 Alpha  occ. eigenvalues --   -0.86094  -0.82570  -0.78751  -0.77625  -0.77425
 Alpha  occ. eigenvalues --   -0.72240  -0.71357  -0.70590  -0.65138  -0.64877
 Alpha  occ. eigenvalues --   -0.64284  -0.62221  -0.60063  -0.58485  -0.56657
 Alpha  occ. eigenvalues --   -0.55380  -0.54394  -0.53207  -0.52966  -0.51718
 Alpha  occ. eigenvalues --   -0.51512  -0.49063  -0.48992  -0.48971  -0.47032
 Alpha  occ. eigenvalues --   -0.45822  -0.45026  -0.44950  -0.44890  -0.42855
 Alpha  occ. eigenvalues --   -0.37459  -0.36474
 Alpha virt. eigenvalues --    0.04888   0.11182   0.16381   0.21315   0.23592
 Alpha virt. eigenvalues --    0.25280   0.27238   0.27382   0.28155   0.28251
 Alpha virt. eigenvalues --    0.29009   0.30876   0.32217   0.32380   0.32494

 Mulliken charges:
               1
     1  C   -0.297152
     2  C   -0.298370
     3  C   -0.488456
     4  H    0.146942
     5  H    0.148540
     6  H    0.147236
     7  H    0.152971
     8  H    0.150762
     9  H    0.146686
    10  H    0.191156
    11  C   -0.297427
    12  C   -0.298962
    13  C   -0.475215
    14  H    0.147352
    15  H    0.149243
    16  H    0.150722
    17  H    0.151559
    18  H    0.154748
    19  H    0.153928
    20  H    0.158585
    21  C   -0.170504
    22  C   -0.218611
    23  C   -0.170480
    24  C    0.157721
    25  C   -0.170740
    26  C   -0.218572
    27  H    0.226081
    28  H    0.223898
    29  H    0.275928
    30  H    0.276026
    31  H    0.223931
    32  N    0.490341
    33  O   -0.461397
    34  O   -0.458471
 Sum of Mulliken charges =  -0.00000

 Dipole moment (field-independent basis, Debye):
    X=             -4.3809    Y=              3.0498    Z=             -1.2579  Tot=              5.4841
 Quadrupole moment (field-independent basis, Debye-Ang):
   XX=            -68.2473   YY=            -96.8620   ZZ=            -89.9274
   XY=            -11.5548   XZ=              2.7628   YZ=              0.3220

 Normal termination of Gaussian 16 at Thu May  6 04:18:50 2021.
