 Gaussian 16, Revision A.03,
 Gaussian 16:  EM64L-G16RevA.03 25-Dec-2016

 -------------
 #p 6-31g* mp2
 -------------

 ------------------------------------------------------
 Input file generated by CHIRIPA (05-May-2021 14:51:08)
 ------------------------------------------------------
 Symbolic Z-matrix:
 Charge =  0 Multiplicity = 1

                         Standard orientation:
 ---------------------------------------------------------------------
 Center     Atomic      Atomic             Coordinates (Angstroms)
 Number     Number       Type             X           Y           Z
 ---------------------------------------------------------------------
      1          6           0        3.489325   -0.099364   -0.118211
      2          6           0        4.856543   -0.167603    0.562995
      3          6           0        5.664697    1.119672    0.396846
      4          1           0        3.629491    0.111874   -1.187172
      5          1           0        2.922920    0.746284    0.295866
      6          1           0        5.419669   -1.013710    0.148738
      7          1           0        4.713115   -0.378892    1.630423
      8          1           0        5.126561    1.970594    0.826895
      9          1           0        5.837129    1.332169   -0.663207
     10          1           0        6.638465    1.049027    0.891463
     11          6           0        2.669586   -1.378824    0.039065
     12          6           0        1.302367   -1.310586   -0.642141
     13          6           0        0.494213   -2.597860   -0.475992
     14          1           0        3.235991   -2.224472   -0.375012
     15          1           0        2.529420   -1.590062    1.108026
     16          1           0        1.445796   -1.099296   -1.709568
     17          1           0        0.739242   -0.464478   -0.227884
     18          1           0        0.321782   -2.810357    0.584061
     19          1           0        1.032350   -3.448782   -0.906041
     20          1           0       -0.479554   -2.527215   -0.970609
     21          6           0       -2.641936    1.171130   -0.413587
     22          6           0       -1.452374    1.800141    0.312547
     23          6           0       -0.586527    2.661552   -0.607277
     24          1           0       -2.272428    0.560919   -1.249082
     25          1           0       -3.255629    1.968021   -0.856012
     26          1           0       -0.841861    1.002370    0.754647
     27          1           0       -1.824745    2.408773    1.146529
     28          1           0       -1.175810    3.477346   -1.038353
     29          1           0       -0.187341    2.062952   -1.432462
     30          1           0        0.258008    3.101420   -0.067706
     31          6           0       -3.516975    0.307058    0.492732
     32          6           0       -4.706538   -0.321954   -0.233402
     33          6           0       -5.572384   -1.183363    0.686423
     34          1           0       -2.903282   -0.489833    0.935158
     35          1           0       -3.886482    0.917269    1.328227
     36          1           0       -4.334166   -0.930584   -1.067383
     37          1           0       -5.317050    0.475818   -0.675500
     38          1           0       -5.971570   -0.584764    1.511607
     39          1           0       -4.983101   -1.999157    1.117500
     40          1           0       -6.416919   -1.623232    0.146852
 ---------------------------------------------------------------------

 SCF Done:  E(RHF) =  -470.733311470     A.U. after   11 cycles
 E2 =    -0.1583436950D+01 EUMP2 =    -0.47231674842009D+03

 The electronic state is 1-A.
 Alpha  occ. eigenvalues --  -11.21627 -11.21615 -11.21609 -11.21603 -11.21425
 Alpha  occ. eigenvalues --  -11.21409 -11.21363 -11.21349 -11.21143 -11.21073
 Alpha  occ. eigenvalues --  -11.21069 -11.21067  -1.08473  -1.08420  -1.03585
 Alpha  occ. eigenvalues --   -1.03513  -0.96008  -0.95982  -0.87024  -0.86996
 Alpha  occ. eigenvalues --   -0.79660  -0.79569  -0.78287  -0.78232  -0.65251
 Alpha  occ. eigenvalues --   -0.64936  -0.61157  -0.60759  -0.59367  -0.59347
 Alpha  occ. eigenvalues --   -0.57614  -0.57594  -0.55295  -0.55273  -0.52705
 Alpha  occ. eigenvalues --   -0.52676  -0.52448  -0.52389  -0.49994  -0.49883
 Alpha  occ. eigenvalues --   -0.48062  -0.47821  -0.46860  -0.46461  -0.45917
 Alpha  occ. eigenvalues --   -0.45790  -0.45740  -0.45489  -0.43811  -0.43789
 Alpha virt. eigenvalues --    0.19926   0.22915   0.23784   0.24581   0.26252
 Alpha virt. eigenvalues --    0.26426   0.26819   0.27583   0.29071   0.29388
 Alpha virt. eigenvalues --    0.30252   0.31184   0.31656   0.31811   0.32358

 Mulliken charges:
               1
     1  C   -0.298804
     2  C   -0.299703
     3  C   -0.475682
     4  H    0.149762
     5  H    0.150168
     6  H    0.151946
     7  H    0.151914
     8  H    0.155211
     9  H    0.155279
    10  H    0.160258
    11  C   -0.297737
    12  C   -0.309654
    13  C   -0.475797
    14  H    0.149653
    15  H    0.149444
    16  H    0.151778
    17  H    0.162006
    18  H    0.154965
    19  H    0.155780
    20  H    0.159686
    21  C   -0.298881
    22  C   -0.303840
    23  C   -0.477185
    24  H    0.150369
    25  H    0.149728
    26  H    0.154207
    27  H    0.152481
    28  H    0.155346
    29  H    0.157417
    30  H    0.159816
    31  C   -0.298737
    32  C   -0.299559
    33  C   -0.475770
    34  H    0.150092
    35  H    0.149564
    36  H    0.151760
    37  H    0.151918
    38  H    0.155118
    39  H    0.155419
    40  H    0.160265
 Sum of Mulliken charges =  -0.00000

 Dipole moment (field-independent basis, Debye):
    X=              0.0058    Y=              0.0062    Z=             -0.0061  Tot=              0.0104
 Quadrupole moment (field-independent basis, Debye-Ang):
   XX=            -85.2990   YY=            -85.1701   ZZ=            -84.2726
   XY=             -1.7098   XZ=             -0.0831   YZ=              0.8696

 Normal termination of Gaussian 16 at Thu May  6 00:31:21 2021.
