 Gaussian 16, Revision A.03,
 Gaussian 16:  EM64L-G16RevA.03 25-Dec-2016

 -------------
 #p 6-31g* mp2
 -------------

 ------------------------------------------------------
 Input file generated by CHIRIPA (05-May-2021 14:57:21)
 ------------------------------------------------------
 Symbolic Z-matrix:
 Charge =  0 Multiplicity = 1

                         Standard orientation:
 ---------------------------------------------------------------------
 Center     Atomic      Atomic             Coordinates (Angstroms)
 Number     Number       Type             X           Y           Z
 ---------------------------------------------------------------------
      1          6           0       -3.233938    2.657053    0.058355
      2          6           0       -4.442413    2.187403   -0.466560
      3          6           0       -4.709843    0.816054   -0.515893
      4          6           0       -3.742069   -0.061473   -0.029428
      5          6           0       -2.528585    0.375559    0.499485
      6          6           0       -2.282558    1.751229    0.538855
      7          1           0       -3.034505    3.724028    0.092809
      8          1           0       -5.183107    2.888568   -0.840437
      9          1           0       -5.637066    0.425209   -0.917035
     10          1           0       -1.809609   -0.347729    0.864650
     11          1           0       -1.343166    2.113109    0.947060
     12          7           0       -4.013856   -1.515546   -0.076382
     13          8           0       -3.144880   -2.268107    0.358555
     14          8           0       -5.090712   -1.875155   -0.547232
     15          6           0        1.508847   -1.358867    0.449093
     16          6           0        1.606225    0.023988    0.635507
     17          6           0        2.813748    0.688649    0.401711
     18          6           0        3.908844   -0.064031   -0.019630
     19          6           0        3.843407   -1.442836   -0.214317
     20          6           0        2.625780   -2.086583    0.025524
     21          1           0        0.566890   -1.867068    0.633059
     22          1           0        0.740439    0.591698    0.964395
     23          1           0        2.917001    1.758298    0.538121
     24          1           0        4.723745   -1.981822   -0.542824
     25          1           0        2.553076   -3.160622   -0.120076
     26          7           0        5.192544    0.628546   -0.270338
     27          8           0        6.142735   -0.057306   -0.640988
     28          8           0        5.224209    1.844125   -0.091448
 ---------------------------------------------------------------------

 SCF Done:  E(RHF) =  -868.336995784     A.U. after   16 cycles
 E2 =    -0.2600390474D+01 EUMP2 =    -0.87093738625758D+03

 The electronic state is 1-A.
 Alpha  occ. eigenvalues --  -20.61675 -20.61636 -20.60985 -20.60971 -15.86711
 Alpha  occ. eigenvalues --  -15.86039 -11.32080 -11.31432 -11.28781 -11.28577
 Alpha  occ. eigenvalues --  -11.28338 -11.28103 -11.27976 -11.27750 -11.27730
 Alpha  occ. eigenvalues --  -11.27567 -11.27191 -11.26934  -1.60723  -1.60056
 Alpha  occ. eigenvalues --   -1.40282  -1.39609  -1.20245  -1.19621  -1.09621
 Alpha  occ. eigenvalues --   -1.09001  -1.05678  -1.05049  -0.96467  -0.95825
 Alpha  occ. eigenvalues --   -0.87061  -0.86456  -0.83326  -0.82671  -0.78402
 Alpha  occ. eigenvalues --   -0.77717  -0.72933  -0.72258  -0.72039  -0.71380
 Alpha  occ. eigenvalues --   -0.71363  -0.70681  -0.65924  -0.65705  -0.65282
 Alpha  occ. eigenvalues --   -0.65127  -0.63079  -0.62328  -0.56120  -0.55500
 Alpha  occ. eigenvalues --   -0.53963  -0.53788  -0.53346  -0.53139  -0.49698
 Alpha  occ. eigenvalues --   -0.49669  -0.49018  -0.49008  -0.45687  -0.45009
 Alpha  occ. eigenvalues --   -0.38179  -0.37589  -0.37250  -0.36644
 Alpha virt. eigenvalues --    0.04182   0.04846   0.10392   0.10996   0.15656
 Alpha virt. eigenvalues --    0.16332   0.17473   0.22324   0.24385   0.24990
 Alpha virt. eigenvalues --    0.27740   0.28963   0.30546   0.31434   0.33416

 Mulliken charges:
               1
     1  C   -0.169252
     2  C   -0.218070
     3  C   -0.168968
     4  C    0.158862
     5  C   -0.171303
     6  C   -0.220306
     7  H    0.229668
     8  H    0.227349
     9  H    0.278386
    10  H    0.268220
    11  H    0.219396
    12  N    0.489138
    13  O   -0.466956
    14  O   -0.455382
    15  C   -0.176414
    16  C   -0.220198
    17  C   -0.171532
    18  C    0.158458
    19  C   -0.169832
    20  C   -0.218595
    21  H    0.237521
    22  H    0.213097
    23  H    0.273319
    24  H    0.277166
    25  H    0.228464
    26  N    0.488201
    27  O   -0.458908
    28  O   -0.461528
 Sum of Mulliken charges =  -0.00000

 Dipole moment (field-independent basis, Debye):
    X=             -3.7653    Y=              2.6236    Z=              0.8970  Tot=              4.6761
 Quadrupole moment (field-independent basis, Debye-Ang):
   XX=           -141.3477   YY=           -101.2235   ZZ=           -105.3198
   XY=            -32.5543   XZ=              4.6665   YZ=              0.6070

 Normal termination of Gaussian 16 at Wed May  5 22:32:05 2021.
