 Gaussian 16, Revision A.03,
 Gaussian 16:  EM64L-G16RevA.03 25-Dec-2016

 -------------
 #p 6-31g* mp2
 -------------

 ------------------------------------------------------
 Input file generated by CHIRIPA (05-May-2021 14:57:23)
 ------------------------------------------------------
 Symbolic Z-matrix:
 Charge =  0 Multiplicity = 1

                         Standard orientation:
 ---------------------------------------------------------------------
 Center     Atomic      Atomic             Coordinates (Angstroms)
 Number     Number       Type             X           Y           Z
 ---------------------------------------------------------------------
      1          6           0        2.620338    2.251157    0.628771
      2          6           0        2.127485    1.133934    1.310994
      3          6           0        2.593958   -0.147885    1.004580
      4          6           0        3.557927   -0.276521    0.005827
      5          6           0        4.068518    0.817118   -0.691698
      6          6           0        3.587576    2.089469   -0.368639
      7          1           0        2.252350    3.243227    0.873266
      8          1           0        1.376288    1.256501    2.086060
      9          1           0        2.229658   -1.029989    1.517021
     10          1           0        4.817071    0.663304   -1.459440
     11          1           0        3.972141    2.955318   -0.900110
     12          7           0        4.059420   -1.628513   -0.327371
     13          8           0        4.908912   -1.715134   -1.211395
     14          8           0        3.593503   -2.575984    0.301802
     15          6           0       -1.405725    1.496378   -0.021295
     16          6           0       -2.588225    1.983956   -0.587406
     17          6           0       -3.740960    1.193385   -0.614764
     18          6           0       -3.675352   -0.085777   -0.064555
     19          6           0       -2.512250   -0.599878    0.506572
     20          6           0       -1.371572    0.208288    0.522929
     21          1           0       -0.514936    2.117347   -0.004316
     22          1           0       -2.617670    2.983916   -1.010796
     23          1           0       -4.669695    1.545866   -1.046767
     24          1           0       -2.513677   -1.600774    0.920846
     25          1           0       -0.454619   -0.172989    0.963235
     26          7           0       -4.889318   -0.932033   -0.087694
     27          8           0       -4.805532   -2.055525    0.403611
     28          8           0       -5.901625   -0.455812   -0.596698
 ---------------------------------------------------------------------

 SCF Done:  E(RHF) =  -868.335983608     A.U. after   16 cycles
 E2 =    -0.2602457957D+01 EUMP2 =    -0.87093844156553D+03

 The electronic state is 1-A.
 Alpha  occ. eigenvalues --  -20.61612 -20.61605 -20.60958 -20.60951 -15.86675
 Alpha  occ. eigenvalues --  -15.86014 -11.32324 -11.31469 -11.28972 -11.28854
 Alpha  occ. eigenvalues --  -11.28730 -11.28063 -11.28058 -11.28048 -11.27932
 Alpha  occ. eigenvalues --  -11.27830 -11.27106 -11.27081  -1.60680  -1.60031
 Alpha  occ. eigenvalues --   -1.40226  -1.39582  -1.20532  -1.19660  -1.09881
 Alpha  occ. eigenvalues --   -1.09048  -1.05988  -1.05077  -0.96661  -0.95863
 Alpha  occ. eigenvalues --   -0.87362  -0.86487  -0.83496  -0.82693  -0.78498
 Alpha  occ. eigenvalues --   -0.77712  -0.72887  -0.72232  -0.72006  -0.71643
 Alpha  occ. eigenvalues --   -0.71355  -0.70795  -0.66194  -0.66021  -0.65309
 Alpha  occ. eigenvalues --   -0.65123  -0.63304  -0.62386  -0.56466  -0.55639
 Alpha  occ. eigenvalues --   -0.54268  -0.54061  -0.53395  -0.53138  -0.49666
 Alpha  occ. eigenvalues --   -0.49626  -0.49000  -0.48979  -0.45570  -0.44967
 Alpha  occ. eigenvalues --   -0.38520  -0.37684  -0.37534  -0.36679
 Alpha virt. eigenvalues --    0.03982   0.04820   0.09934   0.10928   0.15265
 Alpha virt. eigenvalues --    0.16278   0.19097   0.22109   0.24826   0.26043
 Alpha virt. eigenvalues --    0.28290   0.29112   0.29787   0.30635   0.32311

 Mulliken charges:
               1
     1  C   -0.177361
     2  C   -0.226053
     3  C   -0.173035
     4  C    0.160484
     5  C   -0.168855
     6  C   -0.217527
     7  H    0.226938
     8  H    0.225661
     9  H    0.276560
    10  H    0.280090
    11  H    0.227752
    12  N    0.488047
    13  O   -0.456317
    14  O   -0.457932
    15  C   -0.173886
    16  C   -0.218821
    17  C   -0.170202
    18  C    0.158909
    19  C   -0.170637
    20  C   -0.220871
    21  H    0.221341
    22  H    0.222466
    23  H    0.276440
    24  H    0.277878
    25  H    0.219637
    26  N    0.487981
    27  O   -0.458766
    28  O   -0.459921
 Sum of Mulliken charges =  -0.00000

 Dipole moment (field-independent basis, Debye):
    X=              2.8152    Y=              7.6403    Z=              1.1195  Tot=              8.2190
 Quadrupole moment (field-independent basis, Debye-Ang):
   XX=           -144.9822   YY=           -105.1987   ZZ=           -102.4480
   XY=              5.5737   XZ=              2.2860   YZ=             -4.1433

 Normal termination of Gaussian 16 at Thu May  6 19:33:48 2021.
