 Gaussian 16, Revision A.03,
 Gaussian 16:  EM64L-G16RevA.03 25-Dec-2016

 -------------
 #p 6-31g* mp2
 -------------

 ------------------------------------------------------
 Input file generated by CHIRIPA (05-May-2021 14:53:13)
 ------------------------------------------------------
 Symbolic Z-matrix:
 Charge =  0 Multiplicity = 1

                         Standard orientation:
 ---------------------------------------------------------------------
 Center     Atomic      Atomic             Coordinates (Angstroms)
 Number     Number       Type             X           Y           Z
 ---------------------------------------------------------------------
      1          6           0        4.354662   -0.117577   -0.313846
      2          6           0        5.401612   -0.865123    0.512626
      3          6           0        6.020476   -2.042025   -0.242160
      4          1           0        3.564192   -0.819137   -0.613706
      5          1           0        4.819775    0.244240   -1.241291
      6          1           0        4.935008   -1.224229    1.438876
      7          1           0        6.189584   -0.161660    0.810714
      8          1           0        6.511316   -1.697074   -1.157957
      9          1           0        5.249612   -2.765680   -0.526226
     10          1           0        6.766140   -2.562242    0.367119
     11          6           0        3.726926    1.061654    0.427160
     12          6           0        2.679977    1.809200   -0.399312
     13          6           0        2.061112    2.986102    0.355473
     14          1           0        3.261814    0.699837    1.354605
     15          1           0        4.517397    1.763214    0.727019
     16          1           0        1.892005    1.105737   -0.697401
     17          1           0        3.146581    2.168306   -1.325563
     18          1           0        2.831976    3.709757    0.639540
     19          1           0        1.570273    2.641151    1.271271
     20          1           0        1.315449    3.506319   -0.253805
     21          6           0       -5.518443    0.504528    0.117697
     22          6           0       -4.470715    1.374567   -0.201392
     23          6           0       -3.158312    0.901702   -0.293849
     24          6           0       -2.928563   -0.453208   -0.059920
     25          6           0       -3.951165   -1.344999    0.259895
     26          6           0       -5.255788   -0.850090    0.346918
     27          1           0       -6.534926    0.880424    0.187408
     28          1           0       -4.671741    2.427069   -0.379921
     29          1           0       -2.328423    1.553242   -0.539200
     30          1           0       -3.719643   -2.389049    0.432453
     31          1           0       -6.067500   -1.528081    0.594902
     32          7           0       -1.543299   -0.965478   -0.154924
     33          8           0       -1.367169   -2.163493    0.055732
     34          8           0       -0.659890   -0.159280   -0.438245
 ---------------------------------------------------------------------

 SCF Done:  E(RHF) =  -669.536288373     A.U. after   15 cycles
 E2 =    -0.2090868072D+01 EUMP2 =    -0.67162715644533D+03

 The electronic state is 1-A.
 Alpha  occ. eigenvalues --  -20.60979 -20.60974 -15.86022 -11.31313 -11.27874
 Alpha  occ. eigenvalues --  -11.27868 -11.27608 -11.26877 -11.26866 -11.20699
 Alpha  occ. eigenvalues --  -11.20315 -11.20276 -11.20266 -11.20233 -11.20173
 Alpha  occ. eigenvalues --   -1.60045  -1.39601  -1.19480  -1.08890  -1.07349
 Alpha  occ. eigenvalues --   -1.04872  -1.02517  -0.95736  -0.95014  -0.86274
 Alpha  occ. eigenvalues --   -0.86037  -0.82573  -0.78581  -0.77628  -0.77146
 Alpha  occ. eigenvalues --   -0.72251  -0.71359  -0.70589  -0.65139  -0.64875
 Alpha  occ. eigenvalues --   -0.63954  -0.62219  -0.59891  -0.58389  -0.56621
 Alpha  occ. eigenvalues --   -0.55378  -0.54298  -0.53206  -0.52964  -0.51748
 Alpha  occ. eigenvalues --   -0.51445  -0.49070  -0.48995  -0.48893  -0.46907
 Alpha  occ. eigenvalues --   -0.45562  -0.45021  -0.44715  -0.44548  -0.42773
 Alpha  occ. eigenvalues --   -0.37459  -0.36472
 Alpha virt. eigenvalues --    0.04905   0.11183   0.16408   0.21248   0.23919
 Alpha virt. eigenvalues --    0.25075   0.27217   0.27644   0.28094   0.28764
 Alpha virt. eigenvalues --    0.28963   0.30907   0.32116   0.32371   0.32804

 Mulliken charges:
               1
     1  C   -0.300213
     2  C   -0.298908
     3  C   -0.475559
     4  H    0.159827
     5  H    0.145665
     6  H    0.152218
     7  H    0.148393
     8  H    0.153062
     9  H    0.157484
    10  H    0.157124
    11  C   -0.296431
    12  C   -0.311097
    13  C   -0.472840
    14  H    0.150612
    15  H    0.143419
    16  H    0.181904
    17  H    0.144974
    18  H    0.149902
    19  H    0.154747
    20  H    0.152766
    21  C   -0.170528
    22  C   -0.218561
    23  C   -0.170688
    24  C    0.157217
    25  C   -0.170475
    26  C   -0.218632
    27  H    0.226088
    28  H    0.224048
    29  H    0.276185
    30  H    0.275820
    31  H    0.223852
    32  N    0.495523
    33  O   -0.459275
    34  O   -0.467623
 Sum of Mulliken charges =  -0.00000

 Dipole moment (field-independent basis, Debye):
    X=             -5.1992    Y=              1.6321    Z=              0.2979  Tot=              5.4575
 Quadrupole moment (field-independent basis, Debye-Ang):
   XX=            -67.0994   YY=            -93.3466   ZZ=            -95.5608
   XY=             -0.9720   XZ=             -1.3032   YZ=             -2.1132

 Normal termination of Gaussian 16 at Thu May  6 00:58:45 2021.
