 Gaussian 16, Revision A.03,
 Gaussian 16:  EM64L-G16RevA.03 25-Dec-2016

 -------------
 #p 6-31g* mp2
 -------------

 ------------------------------------------------------
 Input file generated by CHIRIPA (05-May-2021 14:53:12)
 ------------------------------------------------------
 Symbolic Z-matrix:
 Charge =  0 Multiplicity = 1

                         Standard orientation:
 ---------------------------------------------------------------------
 Center     Atomic      Atomic             Coordinates (Angstroms)
 Number     Number       Type             X           Y           Z
 ---------------------------------------------------------------------
      1          6           0       -3.950552    0.705819   -0.597391
      2          6           0       -3.052565    1.780510    0.016322
      3          6           0       -2.913656    3.014744   -0.875398
      4          1           0       -3.543135    0.410400   -1.573959
      5          1           0       -4.944047    1.134016   -0.789772
      6          1           0       -2.061472    1.350026    0.208766
      7          1           0       -3.462061    2.073266    0.991628
      8          1           0       -3.892283    3.470468   -1.057619
      9          1           0       -2.483736    2.743119   -1.844929
     10          1           0       -2.267579    3.770220   -0.417467
     11          6           0       -4.099206   -0.534258    0.282291
     12          6           0       -4.997193   -1.608948   -0.331422
     13          6           0       -5.136102   -2.843183    0.560297
     14          1           0       -3.105711   -0.962455    0.474672
     15          1           0       -4.506623   -0.238839    1.258858
     16          1           0       -4.587696   -1.901705   -1.306728
     17          1           0       -5.988286   -1.178465   -0.523867
     18          1           0       -5.566022   -2.571557    1.529828
     19          1           0       -4.157475   -3.298907    0.742518
     20          1           0       -5.782178   -3.598659    0.102366
     21          6           0        5.229286   -0.951724   -0.988949
     22          6           0        5.264240   -0.560448    0.353513
     23          6           0        4.115134   -0.068799    0.979920
     24          6           0        2.942881    0.018514    0.230594
     25          6           0        2.876234   -0.363337   -1.108450
     26          6           0        4.037495   -0.852095   -1.714366
     27          1           0        6.126659   -1.332525   -1.467598
     28          1           0        6.188397   -0.636716    0.919339
     29          1           0        4.114115    0.241160    2.017871
     30          1           0        1.940215   -0.275665   -1.646596
     31          1           0        4.007406   -1.155227   -2.757080
     32          7           0        1.719939    0.537470    0.882897
     33          8           0        0.699656    0.604562    0.200874
     34          8           0        1.804840    0.867310    2.063843
 ---------------------------------------------------------------------

 SCF Done:  E(RHF) =  -669.536320507     A.U. after   15 cycles
 E2 =    -0.2090943188D+01 EUMP2 =    -0.67162726369479D+03

 The electronic state is 1-A.
 Alpha  occ. eigenvalues --  -20.61019 -20.61009 -15.86049 -11.31343 -11.27903
 Alpha  occ. eigenvalues --  -11.27898 -11.27634 -11.26903 -11.26894 -11.20863
 Alpha  occ. eigenvalues --  -11.20460 -11.20382 -11.20265 -11.20011 -11.19869
 Alpha  occ. eigenvalues --   -1.60074  -1.39631  -1.19508  -1.08917  -1.07371
 Alpha  occ. eigenvalues --   -1.04900  -1.02481  -0.95763  -0.94988  -0.86302
 Alpha  occ. eigenvalues --   -0.86014  -0.82600  -0.78564  -0.77655  -0.77127
 Alpha  occ. eigenvalues --   -0.72273  -0.71386  -0.70616  -0.65166  -0.64903
 Alpha  occ. eigenvalues --   -0.63999  -0.62248  -0.59871  -0.58372  -0.56569
 Alpha  occ. eigenvalues --   -0.55405  -0.54292  -0.53233  -0.52992  -0.51704
 Alpha  occ. eigenvalues --   -0.51409  -0.49114  -0.49018  -0.48900  -0.46871
 Alpha  occ. eigenvalues --   -0.45570  -0.45051  -0.44711  -0.44489  -0.42743
 Alpha  occ. eigenvalues --   -0.37485  -0.36500
 Alpha virt. eigenvalues --    0.04879   0.11156   0.16384   0.21284   0.23858
 Alpha virt. eigenvalues --    0.25311   0.27212   0.27645   0.28156   0.28657
 Alpha virt. eigenvalues --    0.28966   0.30863   0.32267   0.32464   0.32812

 Mulliken charges:
               1
     1  C   -0.296410
     2  C   -0.313362
     3  C   -0.473291
     4  H    0.145521
     5  H    0.144005
     6  H    0.185008
     7  H    0.147455
     8  H    0.148408
     9  H    0.150822
    10  H    0.160595
    11  C   -0.298766
    12  C   -0.298643
    13  C   -0.474976
    14  H    0.155222
    15  H    0.148538
    16  H    0.149142
    17  H    0.149786
    18  H    0.154825
    19  H    0.154628
    20  H    0.156984
    21  C   -0.170498
    22  C   -0.218607
    23  C   -0.170319
    24  C    0.157422
    25  C   -0.170787
    26  C   -0.218518
    27  H    0.226185
    28  H    0.223999
    29  H    0.276018
    30  H    0.275556
    31  H    0.223987
    32  N    0.492701
    33  O   -0.464338
    34  O   -0.458293
 Sum of Mulliken charges =  -0.00000

 Dipole moment (field-independent basis, Debye):
    X=              4.7077    Y=             -1.8502    Z=             -2.1925  Tot=              5.5129
 Quadrupole moment (field-independent basis, Debye-Ang):
   XX=            -69.2469   YY=            -96.9479   ZZ=            -92.5221
   XY=             -5.5507   XZ=             -4.0063   YZ=              1.0986

 Normal termination of Gaussian 16 at Thu May  6 10:25:21 2021.
