 Gaussian 16, Revision A.03,
 Gaussian 16:  EM64L-G16RevA.03 25-Dec-2016

 -------------
 #p 6-31g* mp2
 -------------

 ------------------------------------------------------
 Input file generated by CHIRIPA (05-May-2021 14:51:10)
 ------------------------------------------------------
 Symbolic Z-matrix:
 Charge =  0 Multiplicity = 1

                         Standard orientation:
 ---------------------------------------------------------------------
 Center     Atomic      Atomic             Coordinates (Angstroms)
 Number     Number       Type             X           Y           Z
 ---------------------------------------------------------------------
      1          6           0        4.412920    0.350678   -0.344880
      2          6           0        5.814369    0.557233    0.230672
      3          6           0        6.708369    1.401004   -0.678508
      4          1           0        4.494934   -0.129992   -1.329347
      5          1           0        3.945260    1.330607   -0.513485
      6          1           0        6.278719   -0.422825    0.399436
      7          1           0        5.729001    1.037294    1.213968
      8          1           0        6.270345    2.391658   -0.837695
      9          1           0        6.823186    0.923243   -1.656855
     10          1           0        7.705427    1.536135   -0.247840
     11          6           0        3.507403   -0.490910    0.552614
     12          6           0        2.105954   -0.697465   -0.022939
     13          6           0        1.211954   -1.541236    0.886242
     14          1           0        3.975063   -1.470839    0.721219
     15          1           0        3.425389   -0.010240    1.537081
     16          1           0        2.191322   -1.177526   -1.006234
     17          1           0        1.641604    0.282593   -0.191702
     18          1           0        1.097137   -1.063475    1.864589
     19          1           0        1.649978   -2.531890    1.045428
     20          1           0        0.214896   -1.676367    0.455574
     21          6           0       -3.859304    0.770570    0.183579
     22          6           0       -4.936002    1.765318   -0.251371
     23          6           0       -4.720520    3.162205    0.331785
     24          1           0       -3.843821    0.713117    1.280576
     25          1           0       -2.874565    1.149219   -0.123517
     26          1           0       -5.918541    1.384235    0.055234
     27          1           0       -4.949053    1.820266   -1.347467
     28          1           0       -3.753688    3.566823    0.015366
     29          1           0       -4.728685    3.128315    1.426037
     30          1           0       -5.501516    3.857258    0.008052
     31          6           0       -4.061019   -0.630337   -0.391313
     32          6           0       -2.984321   -1.625087    0.043637
     33          6           0       -3.199803   -3.021973   -0.539519
     34          1           0       -5.045758   -1.008988   -0.084216
     35          1           0       -4.076502   -0.572885   -1.488310
     36          1           0       -2.971269   -1.680034    1.139733
     37          1           0       -2.001781   -1.244002   -0.262968
     38          1           0       -3.191638   -2.988082   -1.633771
     39          1           0       -4.166635   -3.426592   -0.223100
     40          1           0       -2.418806   -3.717027   -0.215786
 ---------------------------------------------------------------------

 SCF Done:  E(RHF) =  -470.733258238     A.U. after   11 cycles
 E2 =    -0.1582417500D+01 EUMP2 =    -0.47231567573815D+03

 The electronic state is 1-A.
 Alpha  occ. eigenvalues --  -11.21606 -11.21605 -11.21598 -11.21593 -11.21410
 Alpha  occ. eigenvalues --  -11.21398 -11.21350 -11.21339 -11.21079 -11.21077
 Alpha  occ. eigenvalues --  -11.21070 -11.21004  -1.08441  -1.08419  -1.03553
 Alpha  occ. eigenvalues --   -1.03505  -0.95998  -0.95953  -0.87012  -0.86971
 Alpha  occ. eigenvalues --   -0.79648  -0.79540  -0.78256  -0.78233  -0.65075
 Alpha  occ. eigenvalues --   -0.65050  -0.60961  -0.60911  -0.59508  -0.59204
 Alpha  occ. eigenvalues --   -0.57694  -0.57473  -0.55272  -0.55248  -0.52729
 Alpha  occ. eigenvalues --   -0.52623  -0.52420  -0.52381  -0.49925  -0.49902
 Alpha  occ. eigenvalues --   -0.48021  -0.47803  -0.46623  -0.46615  -0.45796
 Alpha  occ. eigenvalues --   -0.45772  -0.45710  -0.45702  -0.43816  -0.43704
 Alpha virt. eigenvalues --    0.21814   0.23062   0.23452   0.24810   0.26366
 Alpha virt. eigenvalues --    0.26662   0.26908   0.27512   0.27865   0.28760
 Alpha virt. eigenvalues --    0.30480   0.31386   0.31449   0.31833   0.32053

 Mulliken charges:
               1
     1  C   -0.298240
     2  C   -0.299647
     3  C   -0.475699
     4  H    0.149565
     5  H    0.149411
     6  H    0.151936
     7  H    0.151964
     8  H    0.155153
     9  H    0.155149
    10  H    0.160254
    11  C   -0.298240
    12  C   -0.299299
    13  C   -0.483546
    14  H    0.149570
    15  H    0.149710
    16  H    0.151581
    17  H    0.151347
    18  H    0.155166
    19  H    0.154727
    20  H    0.168644
    21  C   -0.298323
    22  C   -0.299662
    23  C   -0.475699
    24  H    0.149768
    25  H    0.149441
    26  H    0.151972
    27  H    0.151955
    28  H    0.155102
    29  H    0.155183
    30  H    0.160280
    31  C   -0.297585
    32  C   -0.304751
    33  C   -0.476594
    34  H    0.149593
    35  H    0.149576
    36  H    0.152692
    37  H    0.155893
    38  H    0.155087
    39  H    0.155493
    40  H    0.161073
 Sum of Mulliken charges =  -0.00000

 Dipole moment (field-independent basis, Debye):
    X=             -0.0237    Y=             -0.0071    Z=              0.0043  Tot=              0.0251
 Quadrupole moment (field-independent basis, Debye-Ang):
   XX=            -84.9824   YY=            -85.4689   ZZ=            -84.3081
   XY=             -0.5764   XZ=             -0.2306   YZ=              0.1648

 Normal termination of Gaussian 16 at Wed May  5 23:03:05 2021.
