 Gaussian 16, Revision A.03,
 Gaussian 16:  EM64L-G16RevA.03 25-Dec-2016

 -------------
 #p 6-31g* mp2
 -------------

 ------------------------------------------------------
 Input file generated by CHIRIPA (05-May-2021 14:57:27)
 ------------------------------------------------------
 Symbolic Z-matrix:
 Charge =  0 Multiplicity = 1

                         Standard orientation:
 ---------------------------------------------------------------------
 Center     Atomic      Atomic             Coordinates (Angstroms)
 Number     Number       Type             X           Y           Z
 ---------------------------------------------------------------------
      1          6           0       -6.283647    0.476754   -0.301597
      2          6           0       -5.875853   -0.665948    0.394434
      3          6           0       -4.520255   -0.995243    0.486443
      4          6           0       -3.595229   -0.155732   -0.132298
      5          6           0       -3.970205    0.989621   -0.832905
      6          6           0       -5.331201    1.299440   -0.911969
      7          1           0       -7.338805    0.724994   -0.368044
      8          1           0       -6.613323   -1.306692    0.869438
      9          1           0       -4.176919   -1.873838    1.018992
     10          1           0       -3.211746    1.609005   -1.296070
     11          1           0       -5.645002    2.187511   -1.453176
     12          7           0       -2.157261   -0.494033   -0.041744
     13          8           0       -1.361995    0.261907   -0.595588
     14          8           0       -1.852677   -1.508728    0.581361
     15          6           0        6.036968   -0.417677   -0.965010
     16          6           0        5.035263   -1.392348   -0.909092
     17          6           0        3.809783   -1.116605   -0.295324
     18          6           0        3.619077    0.150021    0.254749
     19          6           0        4.597558    1.142133    0.215000
     20          6           0        5.815309    0.844227   -0.403775
     21          1           0        6.985948   -0.640490   -1.443745
     22          1           0        5.204619   -2.373226   -1.344112
     23          1           0        3.017053   -1.852611   -0.237948
     24          1           0        4.399363    2.110799    0.657518
     25          1           0        6.591438    1.603113   -0.445726
     26          7           0        2.325808    0.453669    0.907168
     27          8           0        2.182595    1.577268    1.384296
     28          8           0        1.479844   -0.437681    0.929053
 ---------------------------------------------------------------------

 SCF Done:  E(RHF) =  -868.335077981     A.U. after   16 cycles
 E2 =    -0.2600820838D+01 EUMP2 =    -0.87093589881849D+03

 The electronic state is 1-A.
 Alpha  occ. eigenvalues --  -20.59569 -20.59557 -20.59364 -20.59180 -15.84645
 Alpha  occ. eigenvalues --  -15.84320 -11.30390 -11.30131 -11.27007 -11.27000
 Alpha  occ. eigenvalues --  -11.26826 -11.26786 -11.26717 -11.26608 -11.26113
 Alpha  occ. eigenvalues --  -11.26103 -11.25901 -11.25865  -1.58611  -1.58336
 Alpha  occ. eigenvalues --   -1.38170  -1.37879  -1.18597  -1.18353  -1.07920
 Alpha  occ. eigenvalues --   -1.07671  -1.04060  -1.03822  -0.94696  -0.94422
 Alpha  occ. eigenvalues --   -0.85441  -0.85201  -0.81534  -0.81256  -0.76509
 Alpha  occ. eigenvalues --   -0.76225  -0.70865  -0.70546  -0.69959  -0.69710
 Alpha  occ. eigenvalues --   -0.69657  -0.69466  -0.64246  -0.64075  -0.63988
 Alpha  occ. eigenvalues --   -0.63838  -0.61406  -0.61163  -0.54553  -0.54328
 Alpha  occ. eigenvalues --   -0.52366  -0.52162  -0.52130  -0.51924  -0.47813
 Alpha  occ. eigenvalues --   -0.47563  -0.47303  -0.47106  -0.43512  -0.43125
 Alpha  occ. eigenvalues --   -0.36601  -0.36364  -0.35681  -0.35447
 Alpha virt. eigenvalues --    0.06035   0.06331   0.11968   0.12201   0.17462
 Alpha virt. eigenvalues --    0.17731   0.22040   0.22259   0.27921   0.28139
 Alpha virt. eigenvalues --    0.28965   0.29207   0.31558   0.31771   0.33224

 Mulliken charges:
               1
     1  C   -0.172133
     2  C   -0.218524
     3  C   -0.171480
     4  C    0.160112
     5  C   -0.171070
     6  C   -0.218517
     7  H    0.222704
     8  H    0.220872
     9  H    0.274799
    10  H    0.275276
    11  H    0.220951
    12  N    0.488805
    13  O   -0.454405
    14  O   -0.456796
    15  C   -0.172435
    16  C   -0.218952
    17  C   -0.170907
    18  C    0.159964
    19  C   -0.172042
    20  C   -0.218783
    21  H    0.221653
    22  H    0.220615
    23  H    0.279781
    24  H    0.273349
    25  H    0.219575
    26  N    0.487578
    27  O   -0.469745
    28  O   -0.440246
 Sum of Mulliken charges =  -0.00000

 Dipole moment (field-independent basis, Debye):
    X=             -0.6286    Y=             -0.0220    Z=             -2.5515  Tot=              2.6279
 Quadrupole moment (field-independent basis, Debye-Ang):
   XX=            -39.4486   YY=            -98.5931   ZZ=           -105.8863
   XY=             -4.2485   XZ=             -5.8343   YZ=             -2.3329

 Normal termination of Gaussian 16 at Fri May  7 08:10:46 2021.
