 Gaussian 16, Revision A.03,
 Gaussian 16:  EM64L-G16RevA.03 25-Dec-2016

 -------------
 #p 6-31g* mp2
 -------------

 ------------------------------------------------------
 Input file generated by CHIRIPA (05-May-2021 14:51:08)
 ------------------------------------------------------
 Symbolic Z-matrix:
 Charge =  0 Multiplicity = 1

                         Standard orientation:
 ---------------------------------------------------------------------
 Center     Atomic      Atomic             Coordinates (Angstroms)
 Number     Number       Type             X           Y           Z
 ---------------------------------------------------------------------
      1          6           0        2.322254    0.489035    0.596253
      2          6           0        3.290140   -0.590014    0.109595
      3          6           0        3.666613   -1.585217    1.207608
      4          1           0        2.776306    1.026320    1.440116
      5          1           0        1.413409    0.008566    0.984255
      6          1           0        4.196315   -0.107592   -0.278647
      7          1           0        2.833810   -1.124667   -0.733332
      8          1           0        2.775035   -2.093008    1.589497
      9          1           0        4.145282   -1.070154    2.046766
     10          1           0        4.359214   -2.347809    0.837990
     11          6           0        1.936513    1.491434   -0.490084
     12          6           0        0.968628    2.570483   -0.003427
     13          6           0        0.592155    3.565686   -1.101440
     14          1           0        2.845358    1.971903   -0.878087
     15          1           0        1.482461    0.954148   -1.333948
     16          1           0        1.424958    3.105135    0.839500
     17          1           0        0.062453    2.088061    0.384815
     18          1           0        0.113485    3.050623   -1.940598
     19          1           0        1.483732    4.073476   -1.483329
     20          1           0       -0.100446    4.328278   -0.731821
     21          6           0       -1.999908   -1.738896   -0.131653
     22          6           0       -0.658852   -2.056087   -0.794182
     23          6           0       -0.414250   -3.557886   -0.944391
     24          1           0       -2.036140   -2.218350    0.856151
     25          1           0       -2.809203   -2.185531   -0.725753
     26          1           0        0.147578   -1.607812   -0.199762
     27          1           0       -0.625731   -1.575664   -1.780445
     28          1           0       -1.198197   -4.016647   -1.555591
     29          1           0       -0.420494   -4.048978    0.034073
     30          1           0        0.549984   -3.761975   -1.420270
     31          6           0       -2.258860   -0.241572    0.025485
     32          6           0       -3.599915    0.075618    0.688015
     33          6           0       -3.844517    1.577418    0.838223
     34          1           0       -1.449565    0.205062    0.619585
     35          1           0       -2.222628    0.237880   -0.962319
     36          1           0       -3.633036   -0.404804    1.674276
     37          1           0       -4.406346   -0.372656    0.093594
     38          1           0       -3.838273    2.068509   -0.140240
     39          1           0       -3.060570    2.036179    1.449423
     40          1           0       -4.808752    1.781506    1.314101
 ---------------------------------------------------------------------

 SCF Done:  E(RHF) =  -470.732591712     A.U. after   11 cycles
 E2 =    -0.1585468020D+01 EUMP2 =    -0.47231805973192D+03

 The electronic state is 1-A.
 Alpha  occ. eigenvalues --  -11.21664 -11.21663 -11.21594 -11.21516 -11.21487
 Alpha  occ. eigenvalues --  -11.21427 -11.21383 -11.21307 -11.21135 -11.21116
 Alpha  occ. eigenvalues --  -11.21084 -11.21020  -1.08547  -1.08377  -1.03615
 Alpha  occ. eigenvalues --   -1.03487  -0.96047  -0.95955  -0.87072  -0.86964
 Alpha  occ. eigenvalues --   -0.79688  -0.79552  -0.78422  -0.78156  -0.65432
 Alpha  occ. eigenvalues --   -0.64792  -0.61187  -0.60755  -0.59402  -0.59316
 Alpha  occ. eigenvalues --   -0.57652  -0.57564  -0.55341  -0.55248  -0.52734
 Alpha  occ. eigenvalues --   -0.52649  -0.52496  -0.52358  -0.50085  -0.49827
 Alpha  occ. eigenvalues --   -0.48075  -0.47808  -0.46781  -0.46624  -0.46331
 Alpha  occ. eigenvalues --   -0.45893  -0.45649  -0.45010  -0.43853  -0.43752
 Alpha virt. eigenvalues --    0.19737   0.21866   0.23726   0.24418   0.25403
 Alpha virt. eigenvalues --    0.26105   0.26798   0.27841   0.28569   0.29808
 Alpha virt. eigenvalues --    0.31072   0.31242   0.31692   0.32087   0.32225

 Mulliken charges:
               1
     1  C   -0.302865
     2  C   -0.301872
     3  C   -0.475967
     4  H    0.150293
     5  H    0.151034
     6  H    0.152469
     7  H    0.153935
     8  H    0.154740
     9  H    0.155255
    10  H    0.160448
    11  C   -0.298853
    12  C   -0.306121
    13  C   -0.475218
    14  H    0.149420
    15  H    0.151501
    16  H    0.151111
    17  H    0.158613
    18  H    0.154848
    19  H    0.154792
    20  H    0.160238
    21  C   -0.297406
    22  C   -0.309574
    23  C   -0.475573
    24  H    0.149513
    25  H    0.150018
    26  H    0.161913
    27  H    0.151648
    28  H    0.155517
    29  H    0.155250
    30  H    0.160594
    31  C   -0.305886
    32  C   -0.299314
    33  C   -0.476734
    34  H    0.156068
    35  H    0.149752
    36  H    0.152051
    37  H    0.152305
    38  H    0.155631
    39  H    0.155755
    40  H    0.160670
 Sum of Mulliken charges =  -0.00000

 Dipole moment (field-independent basis, Debye):
    X=             -0.0320    Y=             -0.0175    Z=             -0.0027  Tot=              0.0365
 Quadrupole moment (field-independent basis, Debye-Ang):
   XX=            -84.1409   YY=            -86.2356   ZZ=            -84.3740
   XY=              1.0420   XZ=              0.3962   YZ=              0.5066

 Normal termination of Gaussian 16 at Thu May  6 02:05:23 2021.
