 Gaussian 16, Revision A.03,
 Gaussian 16:  EM64L-G16RevA.03 25-Dec-2016

 -------------
 #p 6-31g* mp2
 -------------

 ------------------------------------------------------
 Input file generated by CHIRIPA (05-May-2021 14:53:11)
 ------------------------------------------------------
 Symbolic Z-matrix:
 Charge =  0 Multiplicity = 1

                         Standard orientation:
 ---------------------------------------------------------------------
 Center     Atomic      Atomic             Coordinates (Angstroms)
 Number     Number       Type             X           Y           Z
 ---------------------------------------------------------------------
      1          6           0       -3.699819   -0.058400   -0.533516
      2          6           0       -3.589752   -1.439458    0.113437
      3          6           0       -4.643613   -2.419691   -0.402619
      4          1           0       -4.703280    0.348009   -0.346853
      5          1           0       -3.602550   -0.162760   -1.623031
      6          1           0       -3.685816   -1.332362    1.201517
      7          1           0       -2.586373   -1.842545   -0.074624
      8          1           0       -4.545925   -2.556044   -1.484500
      9          1           0       -5.651615   -2.042962   -0.201107
     10          1           0       -4.546642   -3.400594    0.073076
     11          6           0       -2.652989    0.932643   -0.027839
     12          6           0       -2.763056    2.313701   -0.674793
     13          6           0       -1.709196    3.293934   -0.158736
     14          1           0       -2.750258    1.037002    1.061676
     15          1           0       -1.649529    0.526234   -0.214502
     16          1           0       -3.766435    2.716788   -0.486731
     17          1           0       -2.666992    2.206605   -1.762873
     18          1           0       -0.701193    2.917205   -0.360248
     19          1           0       -1.806883    3.430287    0.923145
     20          1           0       -1.806167    4.274837   -0.634431
     21          6           0        0.279075   -0.676235    1.403724
     22          6           0        0.784096   -1.678197    0.568532
     23          6           0        2.003413   -1.503574   -0.092772
     24          6           0        2.694494   -0.309140    0.104772
     25          6           0        2.217585    0.707783    0.930431
     26          6           0        0.996167    0.511463    1.581695
     27          1           0       -0.668936   -0.820314    1.913541
     28          1           0        0.229356   -2.601605    0.428447
     29          1           0        2.417551   -2.262809   -0.745053
     30          1           0        2.793359    1.617463    1.050363
     31          1           0        0.606389    1.291324    2.229719
     32          7           0        3.986443   -0.112790   -0.590006
     33          8           0        4.576054    0.948641   -0.399328
     34          8           0        4.384998   -1.024041   -1.312096
 ---------------------------------------------------------------------

 SCF Done:  E(RHF) =  -669.534678477     A.U. after   15 cycles
 E2 =    -0.2094035151D+01 EUMP2 =    -0.67162871362829D+03

 The electronic state is 1-A.
 Alpha  occ. eigenvalues --  -20.60770 -20.60765 -15.85827 -11.31188 -11.27796
 Alpha  occ. eigenvalues --  -11.27784 -11.27462 -11.26769 -11.26741 -11.22609
 Alpha  occ. eigenvalues --  -11.22179 -11.22135 -11.22026 -11.21859 -11.21644
 Alpha  occ. eigenvalues --   -1.59848  -1.39401  -1.19385  -1.09209  -1.08754
 Alpha  occ. eigenvalues --   -1.04786  -1.04267  -0.96697  -0.95600  -0.87715
 Alpha  occ. eigenvalues --   -0.86174  -0.82434  -0.80365  -0.79052  -0.77475
 Alpha  occ. eigenvalues --   -0.72044  -0.71173  -0.70461  -0.65823  -0.65025
 Alpha  occ. eigenvalues --   -0.64770  -0.62135  -0.61655  -0.60073  -0.58335
 Alpha  occ. eigenvalues --   -0.55974  -0.55261  -0.53417  -0.53264  -0.53019
 Alpha  occ. eigenvalues --   -0.52855  -0.50636  -0.48802  -0.48800  -0.48674
 Alpha  occ. eigenvalues --   -0.47400  -0.46542  -0.46454  -0.44808  -0.44509
 Alpha  occ. eigenvalues --   -0.37208  -0.36393
 Alpha virt. eigenvalues --    0.05036   0.11115   0.16449   0.19943   0.22740
 Alpha virt. eigenvalues --    0.22965   0.24598   0.25983   0.26960   0.27994
 Alpha virt. eigenvalues --    0.29341   0.30085   0.31163   0.31312   0.31714

 Mulliken charges:
               1
     1  C   -0.296855
     2  C   -0.303710
     3  C   -0.475780
     4  H    0.151868
     5  H    0.153149
     6  H    0.147746
     7  H    0.146494
     8  H    0.158295
     9  H    0.158402
    10  H    0.160100
    11  C   -0.308250
    12  C   -0.298775
    13  C   -0.478408
    14  H    0.139759
    15  H    0.161829
    16  H    0.152761
    17  H    0.155321
    18  H    0.158065
    19  H    0.149647
    20  H    0.163916
    21  C   -0.171176
    22  C   -0.222106
    23  C   -0.170573
    24  C    0.157762
    25  C   -0.172028
    26  C   -0.217797
    27  H    0.231996
    28  H    0.224339
    29  H    0.275721
    30  H    0.276026
    31  H    0.225133
    32  N    0.488176
    33  O   -0.460424
    34  O   -0.460624
 Sum of Mulliken charges =  -0.00000

 Dipole moment (field-independent basis, Debye):
    X=             -4.6216    Y=             -0.6704    Z=              2.3542  Tot=              5.2298
 Quadrupole moment (field-independent basis, Debye-Ang):
   XX=           -119.8716   YY=            -90.9265   ZZ=            -93.4597
   XY=             -0.6736   XZ=              6.1066   YZ=              1.2488

 Normal termination of Gaussian 16 at Thu May  6 04:04:37 2021.
