 Gaussian 16, Revision A.03,
 Gaussian 16:  EM64L-G16RevA.03 25-Dec-2016

 -------------
 #p 6-31g* mp2
 -------------

 ------------------------------------------------------
 Input file generated by CHIRIPA (05-May-2021 14:55:20)
 ------------------------------------------------------
 Symbolic Z-matrix:
 Charge =  0 Multiplicity = 1

                         Standard orientation:
 ---------------------------------------------------------------------
 Center     Atomic      Atomic             Coordinates (Angstroms)
 Number     Number       Type             X           Y           Z
 ---------------------------------------------------------------------
      1          6           0       -1.544672    2.120836    1.648814
      2          6           0       -1.681504    2.507190    0.311456
      3          6           0       -2.090907    1.584519   -0.655817
      4          6           0       -2.356330    0.277913   -0.248852
      5          6           0       -2.229271   -0.137537    1.075742
      6          6           0       -1.818510    0.802031    2.026024
      7          1           0       -1.226111    2.844151    2.393616
      8          1           0       -1.469523    3.530711    0.015629
      9          1           0       -2.205017    1.856696   -1.698082
     10          1           0       -2.447803   -1.164998    1.340287
     11          1           0       -1.713102    0.499161    3.063909
     12          7           0       -2.790466   -0.707821   -1.263866
     13          8           0       -3.018209   -1.852894   -0.879706
     14          8           0       -2.894779   -0.316702   -2.424375
     15          6           0        2.678940   -1.246362    0.343290
     16          6           0        1.216712   -1.242368    0.790342
     17          6           0        0.740061   -2.615264    1.265477
     18          1           0        2.806843   -1.980178   -0.464238
     19          1           0        3.309053   -1.585994    1.176958
     20          1           0        0.589681   -0.901524   -0.043489
     21          1           0        1.092236   -0.508340    1.596769
     22          1           0        1.340920   -2.959428    2.113486
     23          1           0        0.835510   -3.354846    0.463908
     24          1           0       -0.307813   -2.589585    1.580376
     25          6           0        3.170094    0.119005   -0.134484
     26          6           0        4.632324    0.115011   -0.581536
     27          6           0        5.108975    1.487908   -1.056670
     28          1           0        2.539982    0.458637   -0.968152
     29          1           0        3.042193    0.852820    0.673044
     30          1           0        4.756799   -0.619017   -1.387962
     31          1           0        5.259354   -0.225834    0.252295
     32          1           0        5.013526    2.227488   -0.255102
     33          1           0        4.508115    1.832071   -1.904681
     34          1           0        6.156848    1.462228   -1.371570
 ---------------------------------------------------------------------

 SCF Done:  E(RHF) =  -669.534606312     A.U. after   15 cycles
 E2 =    -0.2093930644D+01 EUMP2 =    -0.67162853695577D+03

 The electronic state is 1-A.
 Alpha  occ. eigenvalues --  -20.60808 -20.60799 -15.85857 -11.31203 -11.27794
 Alpha  occ. eigenvalues --  -11.27772 -11.27534 -11.26798 -11.26786 -11.21696
 Alpha  occ. eigenvalues --  -11.21593 -11.21491 -11.21392 -11.21212 -11.21112
 Alpha  occ. eigenvalues --   -1.59882  -1.39434  -1.19396  -1.08790  -1.08499
 Alpha  occ. eigenvalues --   -1.04805  -1.03600  -0.96068  -0.95621  -0.87077
 Alpha  occ. eigenvalues --   -0.86197  -0.82457  -0.79668  -0.78319  -0.77506
 Alpha  occ. eigenvalues --   -0.72075  -0.71210  -0.70513  -0.65136  -0.65042
 Alpha  occ. eigenvalues --   -0.64806  -0.62179  -0.60997  -0.59456  -0.57715
 Alpha  occ. eigenvalues --   -0.55343  -0.55296  -0.53147  -0.52973  -0.52655
 Alpha  occ. eigenvalues --   -0.52454  -0.49991  -0.48834  -0.48831  -0.47959
 Alpha  occ. eigenvalues --   -0.46705  -0.45836  -0.45786  -0.44835  -0.43864
 Alpha  occ. eigenvalues --   -0.37339  -0.36333
 Alpha virt. eigenvalues --    0.05002   0.11183   0.16479   0.20825   0.22819
 Alpha virt. eigenvalues --    0.23999   0.26359   0.26513   0.27286   0.27819
 Alpha virt. eigenvalues --    0.28709   0.30259   0.31291   0.31481   0.31712

 Mulliken charges:
               1
     1  C   -0.170897
     2  C   -0.217552
     3  C   -0.172255
     4  C    0.159181
     5  C   -0.167795
     6  C   -0.216521
     7  H    0.225666
     8  H    0.223627
     9  H    0.275636
    10  H    0.276354
    11  H    0.223591
    12  N    0.487592
    13  O   -0.460283
    14  O   -0.460732
    15  C   -0.299019
    16  C   -0.300166
    17  C   -0.475648
    18  H    0.152424
    19  H    0.148034
    20  H    0.154109
    21  H    0.147299
    22  H    0.152913
    23  H    0.162542
    24  H    0.153713
    25  C   -0.297424
    26  C   -0.299723
    27  C   -0.475587
    28  H    0.150392
    29  H    0.145870
    30  H    0.153881
    31  H    0.151546
    32  H    0.153000
    33  H    0.155302
    34  H    0.160928
 Sum of Mulliken charges =  -0.00000

 Dipole moment (field-independent basis, Debye):
    X=              1.4911    Y=              3.4659    Z=              3.5250  Tot=              5.1634
 Quadrupole moment (field-independent basis, Debye-Ang):
   XX=           -103.1044   YY=            -91.3648   ZZ=            -93.6961
   XY=             -8.1069   XZ=             -8.8233   YZ=             -1.9587

 Normal termination of Gaussian 16 at Thu May  6 17:28:22 2021.
