 Gaussian 16, Revision A.03,
 Gaussian 16:  EM64L-G16RevA.03 25-Dec-2016

 -------------
 #p 6-31g* mp2
 -------------

 ------------------------------------------------------
 Input file generated by CHIRIPA (05-May-2021 14:57:24)
 ------------------------------------------------------
 Symbolic Z-matrix:
 Charge =  0 Multiplicity = 1

                         Standard orientation:
 ---------------------------------------------------------------------
 Center     Atomic      Atomic             Coordinates (Angstroms)
 Number     Number       Type             X           Y           Z
 ---------------------------------------------------------------------
      1          6           0        5.064504    1.330957   -0.090496
      2          6           0        3.803125    1.894429    0.128469
      3          6           0        2.662832    1.086809    0.173508
      4          6           0        2.821179   -0.286607   -0.005224
      5          6           0        4.064300   -0.877840   -0.225189
      6          6           0        5.190842   -0.050943   -0.266316
      7          1           0        5.944970    1.965823   -0.123964
      8          1           0        3.702006    2.967315    0.265342
      9          1           0        1.674296    1.496707    0.341430
     10          1           0        4.133454   -1.950665   -0.358164
     11          1           0        6.169185   -0.491302   -0.436534
     12          7           0        1.621280   -1.151802    0.040386
     13          8           0        1.787503   -2.358982   -0.120004
     14          8           0        0.537297   -0.606380    0.235661
     15          6           0       -2.885433   -2.372458    0.137124
     16          6           0       -3.203031   -1.747292   -1.073173
     17          6           0       -3.279783   -0.353676   -1.153743
     18          6           0       -3.031843    0.387296    0.000717
     19          6           0       -2.713106   -0.206229    1.221137
     20          6           0       -2.641913   -1.601292    1.278404
     21          1           0       -2.827969   -3.455615    0.190661
     22          1           0       -3.392643   -2.343660   -1.961114
     23          1           0       -3.523622    0.156200   -2.077858
     24          1           0       -2.529271    0.414927    2.089346
     25          1           0       -2.395049   -2.084089    2.219684
     26          7           0       -3.110155    1.863421   -0.072245
     27          8           0       -2.887346    2.493705    0.959130
     28          8           0       -3.392862    2.362172   -1.159425
 ---------------------------------------------------------------------

 SCF Done:  E(RHF) =  -868.338676678     A.U. after   16 cycles
 E2 =    -0.2600028544D+01 EUMP2 =    -0.87093870522163D+03

 The electronic state is 1-A.
 Alpha  occ. eigenvalues --  -20.61057 -20.61043 -20.59873 -20.59863 -15.86088
 Alpha  occ. eigenvalues --  -15.84907 -11.31290 -11.29829 -11.27868 -11.27799
 Alpha  occ. eigenvalues --  -11.27560 -11.26845 -11.26783 -11.26428 -11.26365
 Alpha  occ. eigenvalues --  -11.26058 -11.25370 -11.25282  -1.60131  -1.58954
 Alpha  occ. eigenvalues --   -1.39688  -1.38521  -1.19452  -1.17958  -1.08881
 Alpha  occ. eigenvalues --   -1.07452  -1.04824  -1.03342  -0.95742  -0.94369
 Alpha  occ. eigenvalues --   -0.86232  -0.84790  -0.82578  -0.81248  -0.77642
 Alpha  occ. eigenvalues --   -0.76339  -0.72337  -0.71447  -0.71154  -0.70558
 Alpha  occ. eigenvalues --   -0.70255  -0.69152  -0.65106  -0.64822  -0.63667
 Alpha  occ. eigenvalues --   -0.63420  -0.62167  -0.60761  -0.55340  -0.53901
 Alpha  occ. eigenvalues --   -0.53171  -0.52912  -0.51658  -0.51505  -0.49087
 Alpha  occ. eigenvalues --   -0.48968  -0.47921  -0.47866  -0.45137  -0.44029
 Alpha  occ. eigenvalues --   -0.37433  -0.36422  -0.35866  -0.34826
 Alpha virt. eigenvalues --    0.04861   0.06216   0.11232   0.12767   0.16383
 Alpha virt. eigenvalues --    0.17833   0.21406   0.22665   0.27339   0.28268
 Alpha virt. eigenvalues --    0.28520   0.29532   0.30967   0.32141   0.32534

 Mulliken charges:
               1
     1  C   -0.170413
     2  C   -0.218816
     3  C   -0.171256
     4  C    0.156978
     5  C   -0.171277
     6  C   -0.218745
     7  H    0.226481
     8  H    0.226857
     9  H    0.279533
    10  H    0.274142
    11  H    0.223295
    12  N    0.490768
    13  O   -0.464380
    14  O   -0.462222
    15  C   -0.162228
    16  C   -0.216601
    17  C   -0.171249
    18  C    0.161065
    19  C   -0.160506
    20  C   -0.203908
    21  H    0.222810
    22  H    0.218033
    23  H    0.269412
    24  H    0.268647
    25  H    0.218728
    26  N    0.487373
    27  O   -0.466928
    28  O   -0.465593
 Sum of Mulliken charges =  -0.00000

 Dipole moment (field-independent basis, Debye):
    X=              4.7747    Y=             -2.2634    Z=              0.1776  Tot=              5.2870
 Quadrupole moment (field-independent basis, Debye-Ang):
   XX=            -82.7629   YY=           -108.3966   ZZ=           -101.1164
   XY=             21.8015   XZ=             -0.7289   YZ=              1.1351

 Normal termination of Gaussian 16 at Thu May  6 03:29:09 2021.
