 Gaussian 16, Revision A.03,
 Gaussian 16:  EM64L-G16RevA.03 25-Dec-2016

 -------------
 #p 6-31g* mp2
 -------------

 ------------------------------------------------------
 Input file generated by CHIRIPA (05-May-2021 14:57:23)
 ------------------------------------------------------
 Symbolic Z-matrix:
 Charge =  0 Multiplicity = 1

                         Standard orientation:
 ---------------------------------------------------------------------
 Center     Atomic      Atomic             Coordinates (Angstroms)
 Number     Number       Type             X           Y           Z
 ---------------------------------------------------------------------
      1          6           0       -3.406759    2.259381    0.201365
      2          6           0       -2.151727    1.702146    0.467644
      3          6           0       -1.946017    0.324735    0.345284
      4          6           0       -3.022314   -0.469478   -0.047273
      5          6           0       -4.284511    0.055865   -0.319600
      6          6           0       -4.467276    1.435914   -0.190716
      7          1           0       -3.557647    3.330411    0.298951
      8          1           0       -1.326296    2.339235    0.772316
      9          1           0       -0.984806   -0.132990    0.545228
     10          1           0       -5.088165   -0.604777   -0.621443
     11          1           0       -5.443040    1.865910   -0.398161
     12          7           0       -2.816683   -1.929077   -0.180263
     13          8           0       -3.781092   -2.607200   -0.527684
     14          8           0       -1.694995   -2.367350    0.065437
     15          6           0        2.087255    2.553223   -0.131709
     16          6           0        2.966219    2.093148   -1.117748
     17          6           0        3.509144    0.807116   -1.040924
     18          6           0        3.149879    0.004213    0.040539
     19          6           0        2.276773    0.433899    1.038712
     20          6           0        1.745939    1.723592    0.941482
     21          1           0        1.670193    3.553665   -0.199313
     22          1           0        3.233065    2.735260   -1.952332
     23          1           0        4.191929    0.425620   -1.790381
     24          1           0        2.029485   -0.229265    1.858759
     25          1           0        1.063567    2.078238    1.708711
     26          7           0        3.718249   -1.359189    0.132670
     27          8           0        3.385934   -2.047066    1.095493
     28          8           0        4.485294   -1.714130   -0.759685
 ---------------------------------------------------------------------

 SCF Done:  E(RHF) =  -868.336055024     A.U. after   16 cycles
 E2 =    -0.2601608230D+01 EUMP2 =    -0.87093766325398D+03

 The electronic state is 1-A.
 Alpha  occ. eigenvalues --  -20.60873 -20.60866 -20.60851 -20.60849 -15.85933
 Alpha  occ. eigenvalues --  -15.85921 -11.31630 -11.31453 -11.28296 -11.28219
 Alpha  occ. eigenvalues --  -11.28127 -11.28058 -11.28045 -11.27879 -11.27468
 Alpha  occ. eigenvalues --  -11.27288 -11.27188 -11.27089  -1.59935  -1.59930
 Alpha  occ. eigenvalues --   -1.39483  -1.39475  -1.19863  -1.19661  -1.09201
 Alpha  occ. eigenvalues --   -1.09032  -1.05342  -1.05084  -0.95970  -0.95830
 Alpha  occ. eigenvalues --   -0.86727  -0.86481  -0.82824  -0.82650  -0.77834
 Alpha  occ. eigenvalues --   -0.77628  -0.72151  -0.72130  -0.71265  -0.71253
 Alpha  occ. eigenvalues --   -0.70973  -0.70777  -0.65568  -0.65473  -0.65307
 Alpha  occ. eigenvalues --   -0.64999  -0.62779  -0.62319  -0.55834  -0.55620
 Alpha  occ. eigenvalues --   -0.53607  -0.53496  -0.53398  -0.53126  -0.48937
 Alpha  occ. eigenvalues --   -0.48905  -0.48880  -0.48878  -0.44851  -0.44808
 Alpha  occ. eigenvalues --   -0.37866  -0.37660  -0.36951  -0.36675
 Alpha virt. eigenvalues --    0.04736   0.04873   0.10549   0.10943   0.16061
 Alpha virt. eigenvalues --    0.16308   0.19029   0.22092   0.25225   0.26676
 Alpha virt. eigenvalues --    0.28222   0.29147   0.29720   0.31121   0.31870

 Mulliken charges:
               1
     1  C   -0.171104
     2  C   -0.219675
     3  C   -0.172102
     4  C    0.158837
     5  C   -0.169751
     6  C   -0.218687
     7  H    0.224102
     8  H    0.212843
     9  H    0.276534
    10  H    0.277122
    11  H    0.224231
    12  N    0.487611
    13  O   -0.459680
    14  O   -0.456688
    15  C   -0.170505
    16  C   -0.217635
    17  C   -0.168263
    18  C    0.161287
    19  C   -0.173493
    20  C   -0.226799
    21  H    0.223073
    22  H    0.225598
    23  H    0.278960
    24  H    0.280627
    25  H    0.218612
    26  N    0.488627
    27  O   -0.454953
    28  O   -0.458730
 Sum of Mulliken charges =  -0.00000

 Dipole moment (field-independent basis, Debye):
    X=             -2.4990    Y=              9.6646    Z=              0.0122  Tot=              9.9824
 Quadrupole moment (field-independent basis, Debye-Ang):
   XX=           -106.6311   YY=           -110.8967   ZZ=           -101.8906
   XY=              0.9071   XZ=             -3.5437   YZ=             -1.1693

 Normal termination of Gaussian 16 at Fri May  7 01:51:20 2021.
