 Gaussian 16, Revision A.03,
 Gaussian 16:  EM64L-G16RevA.03 25-Dec-2016

 -------------
 #p 6-31g* mp2
 -------------

 ------------------------------------------------------
 Input file generated by CHIRIPA (05-May-2021 14:51:14)
 ------------------------------------------------------
 Symbolic Z-matrix:
 Charge =  0 Multiplicity = 1

                         Standard orientation:
 ---------------------------------------------------------------------
 Center     Atomic      Atomic             Coordinates (Angstroms)
 Number     Number       Type             X           Y           Z
 ---------------------------------------------------------------------
      1          6           0       -2.341565   -0.626641   -0.717529
      2          6           0       -2.589348   -1.697916    0.344996
      3          6           0       -2.659258   -3.107915   -0.242210
      4          1           0       -3.141291   -0.673040   -1.469346
      5          1           0       -1.403981   -0.852411   -1.244178
      6          1           0       -3.525479   -1.469429    0.870417
      7          1           0       -1.789043   -1.648835    1.094474
      8          1           0       -1.722835   -3.360614   -0.750005
      9          1           0       -3.469138   -3.180189   -0.975335
     10          1           0       -2.837007   -3.858006    0.534725
     11          6           0       -2.269138    0.788202   -0.145950
     12          6           0       -2.021355    1.859477   -1.208475
     13          6           0       -1.951445    3.269476   -0.621269
     14          1           0       -3.206722    1.013972    0.380699
     15          1           0       -1.469412    0.834601    0.605867
     16          1           0       -2.821660    1.810396   -1.957953
     17          1           0       -1.085224    1.630990   -1.733896
     18          1           0       -1.141565    3.341750    0.111856
     19          1           0       -2.887868    3.522175   -0.113474
     20          1           0       -1.773696    4.019567   -1.398204
     21          6           0        1.733428   -0.204500    0.922686
     22          6           0        1.924619    0.499848    2.266309
     23          6           0        0.772254    0.242770    3.237782
     24          1           0        0.789640    0.130719    0.471200
     25          1           0        1.631401   -1.285030    1.094269
     26          1           0        2.027639    1.578580    2.092122
     27          1           0        2.868154    0.163057    2.714560
     28          1           0        0.671243   -0.828285    3.440849
     29          1           0       -0.174048    0.595280    2.814875
     30          1           0        0.929436    0.755607    4.191801
     31          6           0        2.877276    0.042939   -0.059207
     32          6           0        2.686084   -0.661409   -1.402830
     33          6           0        3.838449   -0.404331   -2.374303
     34          1           0        2.979302    1.123470   -0.230790
     35          1           0        3.821062   -0.292280    0.392280
     36          1           0        1.742548   -0.324618   -1.851081
     37          1           0        2.583064   -1.740141   -1.228644
     38          1           0        4.784751   -0.756840   -1.951396
     39          1           0        3.939460    0.666725   -2.577370
     40          1           0        3.681267   -0.917167   -3.328323
 ---------------------------------------------------------------------

 SCF Done:  E(RHF) =  -470.733045511     A.U. after   11 cycles
 E2 =    -0.1584837778D+01 EUMP2 =    -0.47231788328858D+03

 The electronic state is 1-A.
 Alpha  occ. eigenvalues --  -11.21684 -11.21674 -11.21661 -11.21554 -11.21473
 Alpha  occ. eigenvalues --  -11.21413 -11.21411 -11.21346 -11.21132 -11.21129
 Alpha  occ. eigenvalues --  -11.21125 -11.21038  -1.08539  -1.08418  -1.03603
 Alpha  occ. eigenvalues --   -1.03539  -0.96049  -0.95992  -0.87064  -0.87008
 Alpha  occ. eigenvalues --   -0.79673  -0.79601  -0.78391  -0.78203  -0.65443
 Alpha  occ. eigenvalues --   -0.64814  -0.61037  -0.60901  -0.59419  -0.59357
 Alpha  occ. eigenvalues --   -0.57664  -0.57595  -0.55371  -0.55262  -0.52738
 Alpha  occ. eigenvalues --   -0.52685  -0.52471  -0.52418  -0.49995  -0.49945
 Alpha  occ. eigenvalues --   -0.48024  -0.47926  -0.46860  -0.46581  -0.46243
 Alpha  occ. eigenvalues --   -0.45797  -0.45700  -0.45194  -0.43853  -0.43791
 Alpha virt. eigenvalues --    0.19127   0.22194   0.23525   0.24067   0.25193
 Alpha virt. eigenvalues --    0.26541   0.26935   0.27763   0.28789   0.30475
 Alpha virt. eigenvalues --    0.30982   0.31518   0.31702   0.31948   0.32298

 Mulliken charges:
               1
     1  C   -0.299813
     2  C   -0.301758
     3  C   -0.475851
     4  H    0.149836
     5  H    0.151197
     6  H    0.151605
     7  H    0.154899
     8  H    0.155446
     9  H    0.154943
    10  H    0.160057
    11  C   -0.308128
    12  C   -0.300504
    13  C   -0.475598
    14  H    0.150432
    15  H    0.157367
    16  H    0.152720
    17  H    0.151447
    18  H    0.154355
    19  H    0.155683
    20  H    0.160491
    21  C   -0.307537
    22  C   -0.299479
    23  C   -0.481304
    24  H    0.158536
    25  H    0.149659
    26  H    0.151680
    27  H    0.152489
    28  H    0.155519
    29  H    0.159805
    30  H    0.160966
    31  C   -0.297738
    32  C   -0.301304
    33  C   -0.475748
    34  H    0.149643
    35  H    0.150112
    36  H    0.152308
    37  H    0.152076
    38  H    0.155510
    39  H    0.155422
    40  H    0.160558
 Sum of Mulliken charges =  -0.00000

 Dipole moment (field-independent basis, Debye):
    X=              0.0162    Y=              0.0006    Z=              0.0116  Tot=              0.0199
 Quadrupole moment (field-independent basis, Debye-Ang):
   XX=            -84.0373   YY=            -85.2735   ZZ=            -85.3350
   XY=             -0.7014   XZ=              0.9000   YZ=             -0.5349

 Normal termination of Gaussian 16 at Wed May  5 20:00:39 2021.
