 Gaussian 16, Revision A.03,
 Gaussian 16:  EM64L-G16RevA.03 25-Dec-2016

 -------------
 #p 6-31g* mp2
 -------------

 ------------------------------------------------------
 Input file generated by CHIRIPA (05-May-2021 14:53:17)
 ------------------------------------------------------
 Symbolic Z-matrix:
 Charge =  0 Multiplicity = 1

                         Standard orientation:
 ---------------------------------------------------------------------
 Center     Atomic      Atomic             Coordinates (Angstroms)
 Number     Number       Type             X           Y           Z
 ---------------------------------------------------------------------
      1          6           0        3.590622   -0.021584    0.330857
      2          6           0        3.133477    0.020288    1.789367
      3          6           0        1.623931    0.218292    1.930282
      4          1           0        3.293775    0.911811   -0.166737
      5          1           0        3.063291   -0.833909   -0.188225
      6          1           0        3.662539    0.831407    2.305889
      7          1           0        3.431616   -0.913235    2.283597
      8          1           0        1.081118   -0.596388    1.440127
      9          1           0        1.313353    1.158167    1.462546
     10          1           0        1.318919    0.245238    2.981045
     11          6           0        5.097288   -0.218999    0.173652
     12          6           0        5.554433   -0.260871   -1.284858
     13          6           0        7.063979   -0.458876   -1.425773
     14          1           0        5.624619    0.593325    0.692734
     15          1           0        5.394136   -1.152395    0.671246
     16          1           0        5.256294    0.672652   -1.779088
     17          1           0        5.025371   -1.071991   -1.801380
     18          1           0        7.374557   -1.398751   -0.958037
     19          1           0        7.606792    0.355804   -0.935618
     20          1           0        7.368991   -0.485821   -2.476536
     21          6           0       -4.872873   -1.950033   -0.203013
     22          6           0       -3.521792   -2.064684    0.140436
     23          6           0       -2.692891   -0.938883    0.147112
     24          6           0       -3.250716    0.291585   -0.196500
     25          6           0       -4.592944    0.438105   -0.543263
     26          6           0       -5.403201   -0.701207   -0.543166
     27          1           0       -5.509541   -2.829830   -0.205570
     28          1           0       -3.107207   -3.033265    0.405038
     29          1           0       -1.643500   -0.999148    0.408961
     30          1           0       -4.977526    1.417054   -0.802441
     31          1           0       -6.452109   -0.609181   -0.810316
     32          7           0       -2.383064    1.490572   -0.193016
     33          8           0       -2.898735    2.563287   -0.499614
     34          8           0       -1.203757    1.334919    0.116248
 ---------------------------------------------------------------------

 SCF Done:  E(RHF) =  -669.535655558     A.U. after   15 cycles
 E2 =    -0.2091158480D+01 EUMP2 =    -0.67162681403877D+03

 The electronic state is 1-A.
 Alpha  occ. eigenvalues --  -20.60814 -20.60808 -15.85857 -11.31208 -11.27780
 Alpha  occ. eigenvalues --  -11.27769 -11.27525 -11.26794 -11.26784 -11.21202
 Alpha  occ. eigenvalues --  -11.20925 -11.20911 -11.20751 -11.20749 -11.20107
 Alpha  occ. eigenvalues --   -1.59885  -1.39439  -1.19382  -1.08782  -1.07883
 Alpha  occ. eigenvalues --   -1.04783  -1.02954  -0.95630  -0.95376  -0.86399
 Alpha  occ. eigenvalues --   -0.86182  -0.82453  -0.79030  -0.77704  -0.77467
 Alpha  occ. eigenvalues --   -0.72086  -0.71202  -0.70493  -0.65039  -0.64791
 Alpha  occ. eigenvalues --   -0.64519  -0.62133  -0.60354  -0.58786  -0.56991
 Alpha  occ. eigenvalues --   -0.55290  -0.54670  -0.53114  -0.52878  -0.52094
 Alpha  occ. eigenvalues --   -0.51783  -0.49341  -0.48838  -0.48818  -0.47305
 Alpha  occ. eigenvalues --   -0.46066  -0.45220  -0.45147  -0.44831  -0.43221
 Alpha  occ. eigenvalues --   -0.37365  -0.36386
 Alpha virt. eigenvalues --    0.05030   0.11268   0.16520   0.20891   0.23337
 Alpha virt. eigenvalues --    0.24309   0.25908   0.27372   0.27636   0.28115
 Alpha virt. eigenvalues --    0.29329   0.30449   0.31533   0.32258   0.32554

 Mulliken charges:
               1
     1  C   -0.297368
     2  C   -0.300679
     3  C   -0.476255
     4  H    0.155523
     5  H    0.145771
     6  H    0.151122
     7  H    0.146104
     8  H    0.144001
     9  H    0.180277
    10  H    0.154170
    11  C   -0.297867
    12  C   -0.299250
    13  C   -0.475382
    14  H    0.149326
    15  H    0.147113
    16  H    0.153439
    17  H    0.150297
    18  H    0.153809
    19  H    0.155134
    20  H    0.159178
    21  C   -0.170456
    22  C   -0.219794
    23  C   -0.172673
    24  C    0.156735
    25  C   -0.170342
    26  C   -0.218842
    27  H    0.225652
    28  H    0.223697
    29  H    0.280429
    30  H    0.275614
    31  H    0.223474
    32  N    0.492775
    33  O   -0.460313
    34  O   -0.464415
 Sum of Mulliken charges =  -0.00000

 Dipole moment (field-independent basis, Debye):
    X=             -3.2155    Y=             -4.0646    Z=             -0.0565  Tot=              5.1830
 Quadrupole moment (field-independent basis, Debye-Ang):
   XX=            -73.9507   YY=            -95.0045   ZZ=            -95.5884
   XY=             11.2565   XZ=              2.1056   YZ=              0.0421

 Normal termination of Gaussian 16 at Thu May  6 20:32:13 2021.
