 Gaussian 16, Revision A.03,
 Gaussian 16:  EM64L-G16RevA.03 25-Dec-2016

 -------------
 #p 6-31g* mp2
 -------------

 ------------------------------------------------------
 Input file generated by CHIRIPA (05-May-2021 14:53:13)
 ------------------------------------------------------
 Symbolic Z-matrix:
 Charge =  0 Multiplicity = 1

                         Standard orientation:
 ---------------------------------------------------------------------
 Center     Atomic      Atomic             Coordinates (Angstroms)
 Number     Number       Type             X           Y           Z
 ---------------------------------------------------------------------
      1          6           0       -3.879474   -0.576171    0.313517
      2          6           0       -2.529046   -0.281951   -0.340519
      3          6           0       -1.353079   -0.866403    0.442622
      4          1           0       -3.880609   -0.172368    1.335225
      5          1           0       -4.004457   -1.663832    0.407153
      6          1           0       -2.407251    0.804794   -0.434153
      7          1           0       -2.531195   -0.686333   -1.360855
      8          1           0       -1.447321   -1.954064    0.524550
      9          1           0       -1.322674   -0.454464    1.456517
     10          1           0       -0.397542   -0.644259   -0.042622
     11          6           0       -5.064826    0.001655   -0.457707
     12          6           0       -6.415254   -0.292566    0.196329
     13          6           0       -7.591222    0.291886   -0.586812
     14          1           0       -4.939843    1.089316   -0.551342
     15          1           0       -5.063691   -0.402149   -1.479415
     16          1           0       -6.413106    0.111817    1.216666
     17          1           0       -6.537049   -1.379311    0.289964
     18          1           0       -7.621626   -0.120052   -1.600707
     19          1           0       -7.496979    1.379547   -0.668740
     20          1           0       -8.546759    0.069743   -0.101568
     21          6           0        1.844010    2.036723    0.655870
     22          6           0        2.835193    2.280881   -0.300405
     23          6           0        3.754641    1.284113   -0.640433
     24          6           0        3.653369    0.049214   -0.001638
     25          6           0        2.677171   -0.224613    0.955100
     26          6           0        1.768296    0.786959    1.279472
     27          1           0        1.133867    2.816786    0.913931
     28          1           0        2.896383    3.250513   -0.786320
     29          1           0        4.531989    1.446160   -1.377242
     30          1           0        2.641353   -1.201202    1.422442
     31          1           0        0.999580    0.594515    2.022496
     32          7           0        4.621151   -1.013856   -0.353323
     33          8           0        4.510674   -2.093351    0.223844
     34          8           0        5.471851   -0.747465   -1.199481
 ---------------------------------------------------------------------

 SCF Done:  E(RHF) =  -669.534718307     A.U. after   15 cycles
 E2 =    -0.2091968078D+01 EUMP2 =    -0.67162668638498D+03

 The electronic state is 1-A.
 Alpha  occ. eigenvalues --  -20.60759 -20.60753 -15.85811 -11.31188 -11.27732
 Alpha  occ. eigenvalues --  -11.27718 -11.27471 -11.26775 -11.26722 -11.22137
 Alpha  occ. eigenvalues --  -11.21936 -11.21845 -11.21754 -11.21642 -11.21360
 Alpha  occ. eigenvalues --   -1.59833  -1.39386  -1.19356  -1.08867  -1.08747
 Alpha  occ. eigenvalues --   -1.04762  -1.03968  -0.96429  -0.95580  -0.87465
 Alpha  occ. eigenvalues --   -0.86141  -0.82412  -0.80045  -0.78669  -0.77454
 Alpha  occ. eigenvalues --   -0.72028  -0.71157  -0.70452  -0.65511  -0.65001
 Alpha  occ. eigenvalues --   -0.64759  -0.62129  -0.61354  -0.59801  -0.58035
 Alpha  occ. eigenvalues --   -0.55747  -0.55243  -0.53493  -0.52998  -0.52755
 Alpha  occ. eigenvalues --   -0.52635  -0.50362  -0.48787  -0.48783  -0.48350
 Alpha  occ. eigenvalues --   -0.47073  -0.46212  -0.46133  -0.44790  -0.44224
 Alpha  occ. eigenvalues --   -0.37328  -0.36287
 Alpha virt. eigenvalues --    0.05059   0.11277   0.16532   0.20757   0.22555
 Alpha virt. eigenvalues --    0.23959   0.25658   0.26408   0.27214   0.28258
 Alpha virt. eigenvalues --    0.28545   0.29866   0.31198   0.31595   0.31976

 Mulliken charges:
               1
     1  C   -0.298474
     2  C   -0.298684
     3  C   -0.482907
     4  H    0.147713
     5  H    0.151596
     6  H    0.148179
     7  H    0.155608
     8  H    0.158836
     9  H    0.143950
    10  H    0.169408
    11  C   -0.298390
    12  C   -0.299873
    13  C   -0.475878
    14  H    0.148358
    15  H    0.151111
    16  H    0.151458
    17  H    0.153037
    18  H    0.156022
    19  H    0.154817
    20  H    0.161187
    21  C   -0.173084
    22  C   -0.218137
    23  C   -0.171680
    24  C    0.158912
    25  C   -0.173451
    26  C   -0.215411
    27  H    0.225424
    28  H    0.223387
    29  H    0.275479
    30  H    0.276321
    31  H    0.227765
    32  N    0.488063
    33  O   -0.460203
    34  O   -0.460460
 Sum of Mulliken charges =  -0.00000

 Dipole moment (field-independent basis, Debye):
    X=             -3.4678    Y=              3.7161    Z=              1.1923  Tot=              5.2208
 Quadrupole moment (field-independent basis, Debye-Ang):
   XX=           -120.0640   YY=            -92.2324   ZZ=            -93.0741
   XY=             15.6757   XZ=              2.6824   YZ=             -1.5861

 Normal termination of Gaussian 16 at Wed May  5 18:34:48 2021.
