 Gaussian 16, Revision A.03,
 Gaussian 16:  EM64L-G16RevA.03 25-Dec-2016

 -------------
 #p 6-31g* mp2
 -------------

 ------------------------------------------------------
 Input file generated by CHIRIPA (05-May-2021 14:51:08)
 ------------------------------------------------------
 Symbolic Z-matrix:
 Charge =  0 Multiplicity = 1

                         Standard orientation:
 ---------------------------------------------------------------------
 Center     Atomic      Atomic             Coordinates (Angstroms)
 Number     Number       Type             X           Y           Z
 ---------------------------------------------------------------------
      1          6           0        4.189625    0.296699   -0.272944
      2          6           0        5.562571    0.188941    0.391431
      3          6           0        6.587045    1.152184   -0.208910
      4          1           0        4.293497    0.099978   -1.348795
      5          1           0        3.823912    1.328486   -0.177735
      6          1           0        5.924972   -0.842666    0.296209
      7          1           0        5.455388    0.385753    1.465858
      8          1           0        6.251117    2.188525   -0.100508
      9          1           0        6.723370    0.953127   -1.276802
     10          1           0        7.561356    1.058385    0.280763
     11          6           0        3.154677   -0.660034    0.316356
     12          6           0        1.781732   -0.552277   -0.348019
     13          6           0        0.757258   -1.515519    0.252322
     14          1           0        3.520391   -1.691821    0.221147
     15          1           0        3.050805   -0.463314    1.392207
     16          1           0        1.888915   -0.749088   -1.422446
     17          1           0        1.419330    0.479331   -0.252797
     18          1           0        0.620933   -1.316462    1.320214
     19          1           0        1.093185   -2.551860    0.143920
     20          1           0       -0.217053   -1.421720   -0.237351
     21          6           0       -4.060720    0.812663    0.163473
     22          6           0       -3.333104    2.104470   -0.210420
     23          6           0       -4.123057    3.358185    0.166364
     24          1           0       -5.040153    0.793895   -0.333823
     25          1           0       -4.258857    0.811300    1.244276
     26          1           0       -3.135170    2.102767   -1.289973
     27          1           0       -2.355210    2.120074    0.287671
     28          1           0       -4.308413    3.387052    1.244979
     29          1           0       -5.092805    3.369646   -0.341629
     30          1           0       -3.584572    4.270104   -0.109858
     31          6           0       -3.283582   -0.449328   -0.206885
     32          6           0       -4.011198   -1.741134    0.167008
     33          6           0       -3.221246   -2.994850   -0.209777
     34          1           0       -3.085446   -0.447965   -1.287689
     35          1           0       -2.304149   -0.430560    0.290410
     36          1           0       -4.989093   -1.756740   -0.331083
     37          1           0       -4.209132   -1.739431    1.246562
     38          1           0       -2.251497   -3.006311    0.298216
     39          1           0       -3.035889   -3.023718   -1.288392
     40          1           0       -3.759729   -3.906769    0.066446
 ---------------------------------------------------------------------

 SCF Done:  E(RHF) =  -470.732881482     A.U. after   11 cycles
 E2 =    -0.1583078470D+01 EUMP2 =    -0.47231595995172D+03

 The electronic state is 1-A.
 Alpha  occ. eigenvalues --  -11.21602 -11.21599 -11.21595 -11.21573 -11.21400
 Alpha  occ. eigenvalues --  -11.21385 -11.21341 -11.21319 -11.21073 -11.21069
 Alpha  occ. eigenvalues --  -11.21023 -11.21010  -1.08437  -1.08408  -1.03546
 Alpha  occ. eigenvalues --   -1.03494  -0.95979  -0.95961  -0.87002  -0.86979
 Alpha  occ. eigenvalues --   -0.79657  -0.79519  -0.78259  -0.78220  -0.65084
 Alpha  occ. eigenvalues --   -0.65033  -0.60941  -0.60911  -0.59503  -0.59187
 Alpha  occ. eigenvalues --   -0.57600  -0.57562  -0.55308  -0.55207  -0.52750
 Alpha  occ. eigenvalues --   -0.52622  -0.52459  -0.52335  -0.49966  -0.49858
 Alpha  occ. eigenvalues --   -0.47986  -0.47816  -0.46639  -0.46590  -0.45782
 Alpha  occ. eigenvalues --   -0.45763  -0.45712  -0.45688  -0.43774  -0.43665
 Alpha virt. eigenvalues --    0.21862   0.23105   0.23562   0.24574   0.26354
 Alpha virt. eigenvalues --    0.26684   0.27003   0.27349   0.27885   0.29227
 Alpha virt. eigenvalues --    0.30632   0.30945   0.31442   0.31799   0.32288

 Mulliken charges:
               1
     1  C   -0.298232
     2  C   -0.299614
     3  C   -0.475695
     4  H    0.149680
     5  H    0.149480
     6  H    0.151942
     7  H    0.151873
     8  H    0.155165
     9  H    0.155192
    10  H    0.160236
    11  C   -0.298456
    12  C   -0.299777
    13  C   -0.484154
    14  H    0.149602
    15  H    0.149404
    16  H    0.152131
    17  H    0.151865
    18  H    0.153480
    19  H    0.155157
    20  H    0.170560
    21  C   -0.297673
    22  C   -0.299626
    23  C   -0.475693
    24  H    0.149618
    25  H    0.149432
    26  H    0.151940
    27  H    0.151612
    28  H    0.155150
    29  H    0.155250
    30  H    0.160174
    31  C   -0.304802
    32  C   -0.299056
    33  C   -0.480115
    34  H    0.148648
    35  H    0.156514
    36  H    0.151685
    37  H    0.151713
    38  H    0.160860
    39  H    0.154474
    40  H    0.160056
 Sum of Mulliken charges =  -0.00000

 Dipole moment (field-independent basis, Debye):
    X=              0.0006    Y=             -0.0075    Z=             -0.0021  Tot=              0.0078
 Quadrupole moment (field-independent basis, Debye-Ang):
   XX=            -85.5760   YY=            -85.6974   ZZ=            -83.6292
   XY=             -0.2914   XZ=              0.5518   YZ=              0.5036

 Normal termination of Gaussian 16 at Thu May  6 06:53:15 2021.
