 Gaussian 16, Revision A.03,
 Gaussian 16:  EM64L-G16RevA.03 25-Dec-2016

 -------------
 #p 6-31g* mp2
 -------------

 ------------------------------------------------------
 Input file generated by CHIRIPA (05-May-2021 14:51:09)
 ------------------------------------------------------
 Symbolic Z-matrix:
 Charge =  0 Multiplicity = 1

                         Standard orientation:
 ---------------------------------------------------------------------
 Center     Atomic      Atomic             Coordinates (Angstroms)
 Number     Number       Type             X           Y           Z
 ---------------------------------------------------------------------
      1          6           0       -3.574099   -0.031735   -0.304477
      2          6           0       -3.920111    1.194759    0.540494
      3          6           0       -4.953733    2.101173   -0.128710
      4          1           0       -3.196071    0.298860   -1.281588
      5          1           0       -4.491624   -0.603360   -0.501421
      6          1           0       -3.001992    1.763158    0.736950
      7          1           0       -4.297180    0.861208    1.515778
      8          1           0       -5.885086    1.555024   -0.310106
      9          1           0       -4.582538    2.462099   -1.093359
     10          1           0       -5.186405    2.971700    0.492505
     11          6           0       -2.542064   -0.947553    0.351197
     12          6           0       -2.196053   -2.174046   -0.493774
     13          6           0       -1.162431   -3.080460    0.175430
     14          1           0       -1.624539   -0.375927    0.548141
     15          1           0       -2.920093   -1.278148    1.328308
     16          1           0       -1.818984   -1.840495   -1.469058
     17          1           0       -3.114172   -2.742446   -0.690230
     18          1           0       -1.533625   -3.441386    1.140079
     19          1           0       -0.231078   -2.534311    0.356826
     20          1           0       -0.929759   -3.950987   -0.445784
     21          6           0        2.707468    1.110582   -0.297107
     22          6           0        3.200063    2.413061    0.334467
     23          6           0        2.489200    3.646428   -0.223453
     24          1           0        2.854236    1.159477   -1.384770
     25          1           0        1.625194    1.017356   -0.131624
     26          1           0        4.281329    2.503128    0.169041
     27          1           0        3.052282    2.360984    1.420775
     28          1           0        1.410879    3.583195   -0.045058
     29          1           0        2.646910    3.726148   -1.303904
     30          1           0        2.856676    4.566390    0.241832
     31          6           0        3.408695   -0.131295    0.250387
     32          6           0        2.916101   -1.433774   -0.381187
     33          6           0        3.626963   -2.667141    0.176733
     34          1           0        4.490970   -0.038069    0.084904
     35          1           0        3.261928   -0.180189    1.338051
     36          1           0        3.063882   -1.381696   -1.467495
     37          1           0        1.834834   -1.523841   -0.215762
     38          1           0        3.469254   -2.746860    1.257183
     39          1           0        4.705285   -2.603908   -0.001662
     40          1           0        3.259488   -3.587103   -0.288552
 ---------------------------------------------------------------------

 SCF Done:  E(RHF) =  -470.733360143     A.U. after   11 cycles
 E2 =    -0.1582776212D+01 EUMP2 =    -0.47231613635547D+03

 The electronic state is 1-A.
 Alpha  occ. eigenvalues --  -11.21634 -11.21624 -11.21620 -11.21609 -11.21442
 Alpha  occ. eigenvalues --  -11.21436 -11.21378 -11.21375 -11.21104 -11.21083
 Alpha  occ. eigenvalues --  -11.21076 -11.21064  -1.08467  -1.08449  -1.03570
 Alpha  occ. eigenvalues --   -1.03532  -0.96016  -0.95983  -0.87027  -0.87004
 Alpha  occ. eigenvalues --   -0.79660  -0.79571  -0.78301  -0.78243  -0.65173
 Alpha  occ. eigenvalues --   -0.65016  -0.61099  -0.60821  -0.59369  -0.59364
 Alpha  occ. eigenvalues --   -0.57645  -0.57577  -0.55381  -0.55199  -0.52699
 Alpha  occ. eigenvalues --   -0.52679  -0.52447  -0.52404  -0.50054  -0.49857
 Alpha  occ. eigenvalues --   -0.48023  -0.47853  -0.46813  -0.46492  -0.45929
 Alpha  occ. eigenvalues --   -0.45790  -0.45776  -0.45521  -0.43810  -0.43802
 Alpha virt. eigenvalues --    0.20448   0.23263   0.23519   0.24672   0.25646
 Alpha virt. eigenvalues --    0.26960   0.27225   0.27278   0.28356   0.29189
 Alpha virt. eigenvalues --    0.30366   0.31580   0.31655   0.31878   0.32083

 Mulliken charges:
               1
     1  C   -0.298392
     2  C   -0.299560
     3  C   -0.475750
     4  H    0.149976
     5  H    0.149713
     6  H    0.151554
     7  H    0.151958
     8  H    0.155238
     9  H    0.155356
    10  H    0.160328
    11  C   -0.298462
    12  C   -0.299548
    13  C   -0.482467
    14  H    0.148475
    15  H    0.149806
    16  H    0.152414
    17  H    0.152130
    18  H    0.155290
    19  H    0.161473
    20  H    0.160505
    21  C   -0.298425
    22  C   -0.299707
    23  C   -0.475661
    24  H    0.149810
    25  H    0.148531
    26  H    0.152174
    27  H    0.152136
    28  H    0.154857
    29  H    0.155215
    30  H    0.160477
    31  C   -0.297767
    32  C   -0.307537
    33  C   -0.475314
    34  H    0.149765
    35  H    0.149719
    36  H    0.152090
    37  H    0.158252
    38  H    0.155276
    39  H    0.155157
    40  H    0.160913
 Sum of Mulliken charges =  -0.00000

 Dipole moment (field-independent basis, Debye):
    X=              0.0043    Y=             -0.0100    Z=             -0.0050  Tot=              0.0119
 Quadrupole moment (field-independent basis, Debye-Ang):
   XX=            -84.3363   YY=            -86.0082   ZZ=            -84.2545
   XY=              1.4293   XZ=             -1.2546   YZ=              0.2646

 Normal termination of Gaussian 16 at Wed May  5 16:37:36 2021.
