 Gaussian 16, Revision A.03,
 Gaussian 16:  EM64L-G16RevA.03 25-Dec-2016

 -------------
 #p 6-31g* mp2
 -------------

 ------------------------------------------------------
 Input file generated by CHIRIPA (05-May-2021 14:53:12)
 ------------------------------------------------------
 Symbolic Z-matrix:
 Charge =  0 Multiplicity = 1

                         Standard orientation:
 ---------------------------------------------------------------------
 Center     Atomic      Atomic             Coordinates (Angstroms)
 Number     Number       Type             X           Y           Z
 ---------------------------------------------------------------------
      1          6           0        2.238719    1.125781    0.536020
      2          6           0        1.613575    2.435804    0.055376
      3          6           0        0.713776    3.082865    1.108689
      4          1           0        1.439131    0.426650    0.816768
      5          1           0        2.820288    1.318138    1.448255
      6          1           0        1.034491    2.241287   -0.856458
      7          1           0        2.414741    3.131829   -0.224441
      8          1           0        1.282697    3.305360    2.017219
      9          1           0       -0.105395    2.409758    1.381611
     10          1           0        0.277338    4.018010    0.744155
     11          6           0        3.140925    0.466925   -0.505931
     12          6           0        3.766069   -0.843098   -0.025286
     13          6           0        4.665867   -1.490159   -1.078599
     14          1           0        2.559355    0.274568   -1.418165
     15          1           0        3.940513    1.166057   -0.786679
     16          1           0        2.964903   -1.539123    0.254531
     17          1           0        4.345153   -0.648581    0.886548
     18          1           0        5.485039   -0.817051   -1.351521
     19          1           0        4.096946   -1.712654   -1.987129
     20          1           0        5.102306   -2.425304   -0.714065
     21          6           0       -0.382618   -1.912860    1.309497
     22          6           0       -1.537843   -1.438177    1.939300
     23          6           0       -2.496929   -0.721860    1.217089
     24          6           0       -2.267591   -0.497370   -0.139488
     25          6           0       -1.126762   -0.957349   -0.795398
     26          6           0       -0.181120   -1.671355   -0.053440
     27          1           0        0.357202   -2.468415    1.878197
     28          1           0       -1.696972   -1.624240    2.997650
     29          1           0       -3.400222   -0.342942    1.679583
     30          1           0       -0.995989   -0.756155   -1.851731
     31          1           0        0.715104   -2.038802   -0.545182
     32          7           0       -3.275817    0.259740   -0.914513
     33          8           0       -3.050254    0.444247   -2.108546
     34          8           0       -4.272536    0.654320   -0.313270
 ---------------------------------------------------------------------

 SCF Done:  E(RHF) =  -669.534317878     A.U. after   15 cycles
 E2 =    -0.2095052179D+01 EUMP2 =    -0.67162937005745D+03

 The electronic state is 1-A.
 Alpha  occ. eigenvalues --  -20.60861 -20.60856 -15.85916 -11.31340 -11.27892
 Alpha  occ. eigenvalues --  -11.27877 -11.27611 -11.26917 -11.26877 -11.22449
 Alpha  occ. eigenvalues --  -11.21947 -11.21809 -11.21732 -11.21547 -11.21121
 Alpha  occ. eigenvalues --   -1.59935  -1.39487  -1.19510  -1.08968  -1.08821
 Alpha  occ. eigenvalues --   -1.04912  -1.03968  -0.96392  -0.95714  -0.87413
 Alpha  occ. eigenvalues --   -0.86311  -0.82541  -0.80082  -0.78660  -0.77587
 Alpha  occ. eigenvalues --   -0.72132  -0.71259  -0.70591  -0.65744  -0.65150
 Alpha  occ. eigenvalues --   -0.64785  -0.62263  -0.61348  -0.59786  -0.57998
 Alpha  occ. eigenvalues --   -0.55716  -0.55389  -0.53304  -0.53122  -0.52976
 Alpha  occ. eigenvalues --   -0.52773  -0.50346  -0.48899  -0.48885  -0.48367
 Alpha  occ. eigenvalues --   -0.47152  -0.46182  -0.46083  -0.44881  -0.44194
 Alpha  occ. eigenvalues --   -0.37409  -0.36451
 Alpha virt. eigenvalues --    0.04919   0.11032   0.16347   0.19422   0.23071
 Alpha virt. eigenvalues --    0.23633   0.25780   0.25903   0.27464   0.28652
 Alpha virt. eigenvalues --    0.29022   0.30112   0.31152   0.31563   0.31737

 Mulliken charges:
               1
     1  C   -0.307468
     2  C   -0.299550
     3  C   -0.476639
     4  H    0.159435
     5  H    0.147323
     6  H    0.153413
     7  H    0.152049
     8  H    0.153355
     9  H    0.155503
    10  H    0.163814
    11  C   -0.298335
    12  C   -0.301109
    13  C   -0.475927
    14  H    0.145021
    15  H    0.153640
    16  H    0.138391
    17  H    0.155491
    18  H    0.159920
    19  H    0.153389
    20  H    0.160631
    21  C   -0.172085
    22  C   -0.217473
    23  C   -0.171823
    24  C    0.159278
    25  C   -0.171061
    26  C   -0.221337
    27  H    0.227342
    28  H    0.224589
    29  H    0.276450
    30  H    0.276064
    31  H    0.229397
    32  N    0.488062
    33  O   -0.460001
    34  O   -0.459751
 Sum of Mulliken charges =  -0.00000

 Dipole moment (field-independent basis, Debye):
    X=              3.4918    Y=             -2.6356    Z=              2.7440  Tot=              5.1641
 Quadrupole moment (field-independent basis, Debye-Ang):
   XX=           -109.3922   YY=            -92.8223   ZZ=            -92.6345
   XY=              4.9159   XZ=             -8.7827   YZ=             -0.8954

 Normal termination of Gaussian 16 at Wed May  5 17:01:48 2021.
