 Gaussian 16, Revision A.03,
 Gaussian 16:  EM64L-G16RevA.03 25-Dec-2016

 -------------
 #p 6-31g* mp2
 -------------

 ------------------------------------------------------
 Input file generated by CHIRIPA (05-May-2021 14:53:13)
 ------------------------------------------------------
 Symbolic Z-matrix:
 Charge =  0 Multiplicity = 1

                         Standard orientation:
 ---------------------------------------------------------------------
 Center     Atomic      Atomic             Coordinates (Angstroms)
 Number     Number       Type             X           Y           Z
 ---------------------------------------------------------------------
      1          6           0       -3.120361    1.168532    0.085126
      2          6           0       -2.194714    1.878137   -0.903623
      3          6           0       -1.669506    3.211056   -0.369510
      4          1           0       -3.965800    1.828086    0.324220
      5          1           0       -2.579544    0.999822    1.026640
      6          1           0       -2.736677    2.044220   -1.843468
      7          1           0       -1.351480    1.216742   -1.140538
      8          1           0       -1.105403    3.059632    0.556482
      9          1           0       -2.498470    3.891812   -0.150442
     10          1           0       -1.009872    3.701287   -1.092294
     11          6           0       -3.653532   -0.165421   -0.434513
     12          6           0       -4.579179   -0.875026    0.554236
     13          6           0       -5.104387   -2.207945    0.020123
     14          1           0       -4.194349    0.003289   -1.376027
     15          1           0       -2.808093   -0.824975   -0.673607
     16          1           0       -5.422413   -0.213631    0.791152
     17          1           0       -4.037216   -1.041109    1.494081
     18          1           0       -4.275423   -2.888700   -0.198945
     19          1           0       -5.668490   -2.056521   -0.905868
     20          1           0       -5.764021   -2.698176    0.742908
     21          6           0        0.200131   -0.872761    0.526496
     22          6           0        0.927479   -1.641366   -0.388237
     23          6           0        2.283210   -1.383833   -0.612331
     24          6           0        2.882515   -0.345347    0.098774
     25          6           0        2.184737    0.438105    1.016706
     26          6           0        0.829972    0.162695    1.224816
     27          1           0       -0.852658   -1.079762    0.694368
     28          1           0        0.440947   -2.446147   -0.931982
     29          1           0        2.870030   -1.963268   -1.314695
     30          1           0        2.697238    1.233691    1.543777
     31          1           0        0.267593    0.761239    1.935816
     32          7           0        4.317254   -0.063246   -0.130003
     33          8           0        4.822024    0.857286    0.509110
     34          8           0        4.909868   -0.768008   -0.944102
 ---------------------------------------------------------------------

 SCF Done:  E(RHF) =  -669.534897867     A.U. after   15 cycles
 E2 =    -0.2093783857D+01 EUMP2 =    -0.67162868172384D+03

 The electronic state is 1-A.
 Alpha  occ. eigenvalues --  -20.60794 -20.60788 -15.85849 -11.31235 -11.27813
 Alpha  occ. eigenvalues --  -11.27809 -11.27529 -11.26833 -11.26823 -11.22628
 Alpha  occ. eigenvalues --  -11.22502 -11.22417 -11.22270 -11.21973 -11.21723
 Alpha  occ. eigenvalues --   -1.59869  -1.39422  -1.19419  -1.09444  -1.08799
 Alpha  occ. eigenvalues --   -1.04824  -1.04392  -0.96867  -0.95638  -0.87870
 Alpha  occ. eigenvalues --   -0.86219  -0.82471  -0.80461  -0.79239  -0.77510
 Alpha  occ. eigenvalues --   -0.72067  -0.71193  -0.70609  -0.66112  -0.65067
 Alpha  occ. eigenvalues --   -0.64775  -0.62198  -0.61774  -0.60216  -0.58459
 Alpha  occ. eigenvalues --   -0.56323  -0.55163  -0.53498  -0.53277  -0.53131
 Alpha  occ. eigenvalues --   -0.52913  -0.50826  -0.48836  -0.48820  -0.48758
 Alpha  occ. eigenvalues --   -0.47514  -0.46750  -0.46719  -0.44823  -0.44688
 Alpha  occ. eigenvalues --   -0.37348  -0.36420
 Alpha virt. eigenvalues --    0.04993   0.11127   0.16356   0.18395   0.22261
 Alpha virt. eigenvalues --    0.23546   0.25078   0.25853   0.26618   0.28291
 Alpha virt. eigenvalues --    0.29509   0.30486   0.31081   0.31409   0.32256

 Mulliken charges:
               1
     1  C   -0.299756
     2  C   -0.304681
     3  C   -0.474729
     4  H    0.155249
     5  H    0.138870
     6  H    0.154628
     7  H    0.157940
     8  H    0.149195
     9  H    0.156601
    10  H    0.165404
    11  C   -0.301916
    12  C   -0.301221
    13  C   -0.475174
    14  H    0.156480
    15  H    0.140470
    16  H    0.156884
    17  H    0.147723
    18  H    0.151551
    19  H    0.158509
    20  H    0.163785
    21  C   -0.173469
    22  C   -0.221571
    23  C   -0.170280
    24  C    0.158339
    25  C   -0.170617
    26  C   -0.220039
    27  H    0.234153
    28  H    0.223701
    29  H    0.275935
    30  H    0.276013
    31  H    0.224437
    32  N    0.488054
    33  O   -0.460176
    34  O   -0.460291
 Sum of Mulliken charges =  -0.00000

 Dipole moment (field-independent basis, Debye):
    X=             -5.1753    Y=             -0.9373    Z=              0.7131  Tot=              5.3076
 Quadrupole moment (field-independent basis, Debye-Ang):
   XX=           -123.2299   YY=            -92.1617   ZZ=            -92.7266
   XY=             -2.2022   XZ=              2.1285   YZ=              1.9247

 Normal termination of Gaussian 16 at Thu May  6 05:47:34 2021.
