 Gaussian 16, Revision A.03,
 Gaussian 16:  EM64L-G16RevA.03 25-Dec-2016

 -------------
 #p 6-31g* mp2
 -------------

 ------------------------------------------------------
 Input file generated by CHIRIPA (05-May-2021 14:57:23)
 ------------------------------------------------------
 Symbolic Z-matrix:
 Charge =  0 Multiplicity = 1

                         Standard orientation:
 ---------------------------------------------------------------------
 Center     Atomic      Atomic             Coordinates (Angstroms)
 Number     Number       Type             X           Y           Z
 ---------------------------------------------------------------------
      1          6           0        1.749890    1.111362   -0.544636
      2          6           0        1.920868   -0.253860   -0.292728
      3          6           0        3.182166   -0.764008    0.028868
      4          6           0        4.255400    0.123523    0.090095
      5          6           0        4.117079    1.488729   -0.155607
      6          6           0        2.846608    1.976773   -0.475393
      7          1           0        0.766521    1.499072   -0.793757
      8          1           0        1.070942   -0.928289   -0.345785
      9          1           0        3.342793   -1.816503    0.228546
     10          1           0        4.983286    2.136378   -0.095153
     11          1           0        2.716787    3.037485   -0.670540
     12          7           0        5.595536   -0.404848    0.429596
     13          8           0        6.525050    0.397884    0.477150
     14          8           0        5.691044   -1.611712    0.641715
     15          6           0       -5.647056    1.573981    0.728050
     16          6           0       -4.532468    1.920620   -0.042699
     17          6           0       -3.632380    0.940149   -0.470560
     18          6           0       -3.878636   -0.383132   -0.107827
     19          6           0       -4.980024   -0.760038    0.659101
     20          6           0       -5.866890    0.237116    1.075877
     21          1           0       -6.341131    2.342115    1.056117
     22          1           0       -4.359223    2.958046   -0.314324
     23          1           0       -2.761468    1.180674   -1.068122
     24          1           0       -5.126183   -1.802647    0.914095
     25          1           0       -6.731652   -0.035006    1.674360
     26          7           0       -2.932753   -1.429943   -0.554916
     27          8           0       -3.172112   -2.588619   -0.222030
     28          8           0       -1.969920   -1.071936   -1.229765
 ---------------------------------------------------------------------

 SCF Done:  E(RHF) =  -868.339614825     A.U. after   16 cycles
 E2 =    -0.2598675981D+01 EUMP2 =    -0.87093829080613D+03

 The electronic state is 1-A.
 Alpha  occ. eigenvalues --  -20.61907 -20.61837 -20.60257 -20.60245 -15.86898
 Alpha  occ. eigenvalues --  -15.85299 -11.32061 -11.30562 -11.28658 -11.28558
 Alpha  occ. eigenvalues --  -11.28273 -11.27582 -11.27523 -11.27148 -11.27015
 Alpha  occ. eigenvalues --  -11.26812 -11.26189 -11.25884  -1.60929  -1.59331
 Alpha  occ. eigenvalues --   -1.40492  -1.38887  -1.20205  -1.18704  -1.09630
 Alpha  occ. eigenvalues --   -1.08119  -1.05580  -1.04071  -0.96504  -0.94980
 Alpha  occ. eigenvalues --   -0.86986  -0.85467  -0.83347  -0.81802  -0.78428
 Alpha  occ. eigenvalues --   -0.76861  -0.73124  -0.72232  -0.71520  -0.71307
 Alpha  occ. eigenvalues --   -0.70652  -0.69827  -0.65861  -0.65576  -0.64346
 Alpha  occ. eigenvalues --   -0.64027  -0.62939  -0.61397  -0.56069  -0.54597
 Alpha  occ. eigenvalues --   -0.53911  -0.53668  -0.52435  -0.52130  -0.49895
 Alpha  occ. eigenvalues --   -0.49849  -0.48283  -0.48266  -0.45933  -0.44315
 Alpha  occ. eigenvalues --   -0.38156  -0.37172  -0.36696  -0.35674
 Alpha virt. eigenvalues --    0.04067   0.05635   0.10481   0.11977   0.15591
 Alpha virt. eigenvalues --    0.17165   0.20096   0.22034   0.25692   0.27015
 Alpha virt. eigenvalues --    0.28268   0.28825   0.30642   0.31146   0.33141

 Mulliken charges:
               1
     1  C   -0.171627
     2  C   -0.224700
     3  C   -0.172663
     4  C    0.158603
     5  C   -0.172807
     6  C   -0.218664
     7  H    0.221651
     8  H    0.244749
     9  H    0.276216
    10  H    0.272843
    11  H    0.218649
    12  N    0.488027
    13  O   -0.462894
    14  O   -0.460539
    15  C   -0.169749
    16  C   -0.217915
    17  C   -0.171554
    18  C    0.158706
    19  C   -0.169944
    20  C   -0.218118
    21  H    0.228566
    22  H    0.224423
    23  H    0.269648
    24  H    0.277706
    25  H    0.226617
    26  N    0.489461
    27  O   -0.453846
    28  O   -0.470843
 Sum of Mulliken charges =  -0.00000

 Dipole moment (field-independent basis, Debye):
    X=             -8.5856    Y=              5.3786    Z=              0.4550  Tot=             10.1414
 Quadrupole moment (field-independent basis, Debye-Ang):
   XX=           -117.3064   YY=           -100.8214   ZZ=           -105.8541
   XY=             -1.9712   XZ=            -13.4879   YZ=             -3.1909

 Normal termination of Gaussian 16 at Fri May  7 09:27:25 2021.
