 Gaussian 16, Revision A.03,
 Gaussian 16:  EM64L-G16RevA.03 25-Dec-2016

 -------------
 #p 6-31g* mp2
 -------------

 ------------------------------------------------------
 Input file generated by CHIRIPA (05-May-2021 14:51:08)
 ------------------------------------------------------
 Symbolic Z-matrix:
 Charge =  0 Multiplicity = 1

                         Standard orientation:
 ---------------------------------------------------------------------
 Center     Atomic      Atomic             Coordinates (Angstroms)
 Number     Number       Type             X           Y           Z
 ---------------------------------------------------------------------
      1          6           0        3.683691    0.416946   -0.209033
      2          6           0        2.240416   -0.083610   -0.142797
      3          6           0        1.218792    1.019541   -0.420532
      4          1           0        3.815986    1.232067    0.515550
      5          1           0        3.869544    0.848473   -1.202329
      6          1           0        2.057754   -0.515316    0.849614
      7          1           0        2.111592   -0.897763   -0.867487
      8          1           0        1.372557    1.444870   -1.417554
      9          1           0        1.318413    1.829489    0.309303
     10          1           0        0.193653    0.639802   -0.368096
     11          6           0        4.716626   -0.674338    0.066414
     12          6           0        6.159901   -0.173782    0.000179
     13          6           0        7.181524   -1.276933    0.277914
     14          1           0        4.530772   -1.105866    1.059710
     15          1           0        4.584330   -1.489460   -0.658169
     16          1           0        6.288725    0.640371    0.724868
     17          1           0        6.342563    0.257924   -0.992233
     18          1           0        7.081904   -2.086882   -0.451922
     19          1           0        7.027760   -1.702262    1.274936
     20          1           0        8.206663   -0.897195    0.225478
     21          6           0       -3.805106    0.685748   -0.270830
     22          6           0       -3.019521    1.560495    0.706749
     23          6           0       -2.234325    2.670416    0.007224
     24          1           0       -3.109767    0.243143   -0.997156
     25          1           0       -4.495720    1.318829   -0.844986
     26          1           0       -2.331580    0.925752    1.279859
     27          1           0       -3.716786    2.000916    1.430948
     28          1           0       -2.909636    3.327432   -0.550349
     29          1           0       -1.516559    2.246159   -0.702297
     30          1           0       -1.680139    3.283589    0.724689
     31          6           0       -4.595210   -0.428355    0.413449
     32          6           0       -5.380796   -1.303102   -0.564130
     33          6           0       -6.165991   -2.413024    0.135395
     34          1           0       -3.904596   -1.061437    0.987605
     35          1           0       -5.290549    0.014250    1.139775
     36          1           0       -4.683530   -1.743523   -1.288329
     37          1           0       -6.068736   -0.668360   -1.137241
     38          1           0       -6.883757   -1.988766    0.844916
     39          1           0       -5.490680   -3.070039    0.692968
     40          1           0       -6.720178   -3.026197   -0.582071
 ---------------------------------------------------------------------

 SCF Done:  E(RHF) =  -470.732845551     A.U. after   11 cycles
 E2 =    -0.1582690370D+01 EUMP2 =    -0.47231553592104D+03

 The electronic state is 1-A.
 Alpha  occ. eigenvalues --  -11.21620 -11.21611 -11.21591 -11.21552 -11.21420
 Alpha  occ. eigenvalues --  -11.21388 -11.21360 -11.21329 -11.21085 -11.21080
 Alpha  occ. eigenvalues --  -11.21063 -11.20912  -1.08449  -1.08403  -1.03568
 Alpha  occ. eigenvalues --   -1.03472  -0.96048  -0.95889  -0.87088  -0.86885
 Alpha  occ. eigenvalues --   -0.79660  -0.79508  -0.78261  -0.78215  -0.65079
 Alpha  occ. eigenvalues --   -0.65047  -0.60990  -0.60923  -0.59350  -0.59298
 Alpha  occ. eigenvalues --   -0.57622  -0.57532  -0.55315  -0.55225  -0.52744
 Alpha  occ. eigenvalues --   -0.52622  -0.52410  -0.52296  -0.49942  -0.49834
 Alpha  occ. eigenvalues --   -0.47943  -0.47850  -0.46642  -0.46591  -0.45803
 Alpha  occ. eigenvalues --   -0.45756  -0.45725  -0.45686  -0.43760  -0.43740
 Alpha virt. eigenvalues --    0.21229   0.23005   0.23683   0.25064   0.26378
 Alpha virt. eigenvalues --    0.26622   0.27104   0.27496   0.27777   0.29052
 Alpha virt. eigenvalues --    0.30164   0.31284   0.31397   0.31993   0.32133

 Mulliken charges:
               1
     1  C   -0.298586
     2  C   -0.300394
     3  C   -0.477731
     4  H    0.149738
     5  H    0.149593
     6  H    0.151786
     7  H    0.151658
     8  H    0.154981
     9  H    0.156766
    10  H    0.162591
    11  C   -0.298272
    12  C   -0.299629
    13  C   -0.475708
    14  H    0.149505
    15  H    0.149611
    16  H    0.151983
    17  H    0.151963
    18  H    0.155172
    19  H    0.155183
    20  H    0.160302
    21  C   -0.298756
    22  C   -0.301072
    23  C   -0.479279
    24  H    0.149103
    25  H    0.149775
    26  H    0.151876
    27  H    0.151906
    28  H    0.153990
    29  H    0.162580
    30  H    0.159481
    31  C   -0.298201
    32  C   -0.299627
    33  C   -0.475695
    34  H    0.149356
    35  H    0.149702
    36  H    0.151865
    37  H    0.151946
    38  H    0.155173
    39  H    0.155152
    40  H    0.160212
 Sum of Mulliken charges =  -0.00000

 Dipole moment (field-independent basis, Debye):
    X=              0.0268    Y=              0.0093    Z=             -0.0076  Tot=              0.0294
 Quadrupole moment (field-independent basis, Debye-Ang):
   XX=            -85.3567   YY=            -85.5924   ZZ=            -83.9367
   XY=             -0.3982   XZ=             -0.0194   YZ=              0.7020

 Normal termination of Gaussian 16 at Thu May  6 05:17:21 2021.
