 Gaussian 16, Revision A.03,
 Gaussian 16:  EM64L-G16RevA.03 25-Dec-2016

 -------------
 #p 6-31g* mp2
 -------------

 ------------------------------------------------------
 Input file generated by CHIRIPA (05-May-2021 14:51:13)
 ------------------------------------------------------
 Symbolic Z-matrix:
 Charge =  0 Multiplicity = 1

                         Standard orientation:
 ---------------------------------------------------------------------
 Center     Atomic      Atomic             Coordinates (Angstroms)
 Number     Number       Type             X           Y           Z
 ---------------------------------------------------------------------
      1          6           0        3.782515   -0.073100    0.121764
      2          6           0        4.807023   -0.417334   -0.959842
      3          6           0        5.953249    0.592065   -1.031080
      4          1           0        3.378161    0.930017   -0.071107
      5          1           0        4.289888   -0.023743    1.095177
      6          1           0        4.297619   -0.467387   -1.930727
      7          1           0        5.208845   -1.419825   -0.764481
      8          1           0        6.487245    0.636597   -0.076372
      9          1           0        5.570842    1.594447   -1.249245
     10          1           0        6.673952    0.326753   -1.810860
     11          6           0        2.630555   -1.072971    0.205264
     12          6           0        1.606047   -0.728736    1.286870
     13          6           0        0.459821   -1.738135    1.358108
     14          1           0        2.123182   -1.122327   -0.768149
     15          1           0        3.034909   -2.076087    0.398135
     16          1           0        1.204225    0.273755    1.091509
     17          1           0        2.115451   -0.678683    2.257755
     18          1           0        0.842228   -2.740517    1.576273
     19          1           0       -0.074175   -1.782667    0.403400
     20          1           0       -0.260882   -1.472824    2.137888
     21          6           0       -3.439395   -0.147757   -0.065191
     22          6           0       -4.648220   -0.517165   -0.925579
     23          6           0       -5.102278   -1.962304   -0.717738
     24          1           0       -2.610524   -0.830840   -0.296090
     25          1           0       -3.689262   -0.305966    0.993078
     26          1           0       -4.396609   -0.356991   -1.981823
     27          1           0       -5.474249    0.166997   -0.692742
     28          1           0       -5.379962   -2.132312    0.327533
     29          1           0       -4.296200   -2.659277   -0.968873
     30          1           0       -5.967557   -2.205037   -1.342423
     31          6           0       -2.973674    1.293827   -0.261837
     32          6           0       -1.764850    1.663235    0.598551
     33          6           0       -1.310793    3.108374    0.390710
     34          1           0       -2.723808    1.452036   -1.320105
     35          1           0       -3.802546    1.976909   -0.030937
     36          1           0       -0.938821    0.979072    0.365714
     37          1           0       -2.016461    1.503059    1.654795
     38          1           0       -2.116870    3.805347    0.641845
     39          1           0       -1.033108    3.278382   -0.654561
     40          1           0       -0.445513    3.351106    1.015395
 ---------------------------------------------------------------------

 SCF Done:  E(RHF) =  -470.732970392     A.U. after   11 cycles
 E2 =    -0.1583616662D+01 EUMP2 =    -0.47231658705389D+03

 The electronic state is 1-A.
 Alpha  occ. eigenvalues --  -11.21611 -11.21588 -11.21581 -11.21572 -11.21416
 Alpha  occ. eigenvalues --  -11.21391 -11.21357 -11.21329 -11.21093 -11.21077
 Alpha  occ. eigenvalues --  -11.21062 -11.21054  -1.08459  -1.08403  -1.03573
 Alpha  occ. eigenvalues --   -1.03491  -0.95986  -0.95976  -0.87000  -0.86991
 Alpha  occ. eigenvalues --   -0.79660  -0.79533  -0.78280  -0.78210  -0.65224
 Alpha  occ. eigenvalues --   -0.64934  -0.61128  -0.60762  -0.59423  -0.59262
 Alpha  occ. eigenvalues --   -0.57656  -0.57521  -0.55297  -0.55259  -0.52708
 Alpha  occ. eigenvalues --   -0.52633  -0.52443  -0.52364  -0.49992  -0.49868
 Alpha  occ. eigenvalues --   -0.47991  -0.47874  -0.46822  -0.46434  -0.45924
 Alpha  occ. eigenvalues --   -0.45740  -0.45708  -0.45487  -0.43785  -0.43775
 Alpha virt. eigenvalues --    0.20698   0.23120   0.23739   0.24225   0.25902
 Alpha virt. eigenvalues --    0.26421   0.26659   0.27396   0.28470   0.29678
 Alpha virt. eigenvalues --    0.30835   0.31001   0.31641   0.31978   0.32105

 Mulliken charges:
               1
     1  C   -0.298371
     2  C   -0.299626
     3  C   -0.475732
     4  H    0.149733
     5  H    0.149637
     6  H    0.151796
     7  H    0.151974
     8  H    0.155220
     9  H    0.155242
    10  H    0.160264
    11  C   -0.298025
    12  C   -0.305866
    13  C   -0.477595
    14  H    0.148710
    15  H    0.149822
    16  H    0.156982
    17  H    0.152253
    18  H    0.155223
    19  H    0.155656
    20  H    0.162194
    21  C   -0.301048
    22  C   -0.299619
    23  C   -0.475623
    24  H    0.152822
    25  H    0.149474
    26  H    0.151624
    27  H    0.151910
    28  H    0.155276
    29  H    0.155257
    30  H    0.160131
    31  C   -0.297738
    32  C   -0.307123
    33  C   -0.476321
    34  H    0.148892
    35  H    0.149562
    36  H    0.160839
    37  H    0.151687
    38  H    0.155555
    39  H    0.154713
    40  H    0.160237
 Sum of Mulliken charges =  -0.00000

 Dipole moment (field-independent basis, Debye):
    X=              0.0041    Y=             -0.0078    Z=              0.0194  Tot=              0.0213
 Quadrupole moment (field-independent basis, Debye-Ang):
   XX=            -85.1674   YY=            -85.8876   ZZ=            -83.7778
   XY=             -1.4894   XZ=              0.0389   YZ=             -0.0055

 Normal termination of Gaussian 16 at Thu May  6 02:23:19 2021.
