 Gaussian 16, Revision A.03,
 Gaussian 16:  EM64L-G16RevA.03 25-Dec-2016

 -------------
 #p 6-31g* mp2
 -------------

 ------------------------------------------------------
 Input file generated by CHIRIPA (05-May-2021 14:51:09)
 ------------------------------------------------------
 Symbolic Z-matrix:
 Charge =  0 Multiplicity = 1

                         Standard orientation:
 ---------------------------------------------------------------------
 Center     Atomic      Atomic             Coordinates (Angstroms)
 Number     Number       Type             X           Y           Z
 ---------------------------------------------------------------------
      1          6           0        3.180392   -0.318595    0.441224
      2          6           0        1.906458   -0.015528   -0.348224
      3          6           0        0.634407   -0.282638    0.456968
      4          1           0        3.162910   -1.368485    0.764290
      5          1           0        3.189926    0.289856    1.356152
      6          1           0        1.899997   -0.623351   -1.262076
      7          1           0        1.927064    1.033710   -0.669611
      8          1           0        0.614087    0.334412    1.361090
      9          1           0        0.586867   -1.332065    0.765260
     10          1           0       -0.264302   -0.059377   -0.126415
     11          6           0        4.460408   -0.056485   -0.350346
     12          6           0        5.734342   -0.359552    0.439102
     13          6           0        7.006393   -0.092442   -0.366089
     14          1           0        4.450874   -0.664936   -1.265273
     15          1           0        4.477890    0.993404   -0.673411
     16          1           0        5.713737   -1.408791    0.760490
     17          1           0        5.740803    0.248271    1.352954
     18          1           0        7.053933    0.956985   -0.674381
     19          1           0        7.026713   -0.709492   -1.270212
     20          1           0        7.905102   -0.315703    0.217294
     21          6           0       -3.273150    0.714681   -0.123370
     22          6           0       -3.768517    2.142184    0.110789
     23          6           0       -2.662194    3.185456   -0.048681
     24          1           0       -2.457403    0.496517    0.579414
     25          1           0       -2.843789    0.643871   -1.132344
     26          1           0       -4.198070    2.209928    1.118514
     27          1           0       -4.583309    2.356909   -0.592505
     28          1           0       -2.238922    3.146971   -1.057622
     29          1           0       -1.851496    2.999154    0.663120
     30          1           0       -3.038237    4.198848    0.123039
     31          6           0       -4.367649   -0.339600    0.032492
     32          6           0       -3.872284   -1.767105   -0.201667
     33          6           0       -4.978606   -2.810375   -0.042197
     34          1           0       -4.797012   -0.268791    1.041466
     35          1           0       -5.183398   -0.121436   -0.670291
     36          1           0       -3.057492   -1.981829    0.501628
     37          1           0       -3.442730   -1.834847   -1.209393
     38          1           0       -5.789305   -2.624074   -0.753998
     39          1           0       -5.401877   -2.771890    0.966743
     40          1           0       -4.602563   -3.823768   -0.213918
 ---------------------------------------------------------------------

 SCF Done:  E(RHF) =  -470.733022477     A.U. after   11 cycles
 E2 =    -0.1582882390D+01 EUMP2 =    -0.47231590486676D+03

 The electronic state is 1-A.
 Alpha  occ. eigenvalues --  -11.21588 -11.21585 -11.21576 -11.21559 -11.21378
 Alpha  occ. eigenvalues --  -11.21375 -11.21318 -11.21311 -11.21064 -11.21058
 Alpha  occ. eigenvalues --  -11.21055 -11.20973  -1.08425  -1.08393  -1.03520
 Alpha  occ. eigenvalues --   -1.03491  -0.95989  -0.95926  -0.87017  -0.86937
 Alpha  occ. eigenvalues --   -0.79616  -0.79539  -0.78262  -0.78188  -0.65054
 Alpha  occ. eigenvalues --   -0.65027  -0.60933  -0.60874  -0.59409  -0.59266
 Alpha  occ. eigenvalues --   -0.57664  -0.57474  -0.55258  -0.55232  -0.52806
 Alpha  occ. eigenvalues --   -0.52624  -0.52411  -0.52257  -0.49916  -0.49883
 Alpha  occ. eigenvalues --   -0.47951  -0.47827  -0.46648  -0.46557  -0.45780
 Alpha  occ. eigenvalues --   -0.45769  -0.45699  -0.45668  -0.43781  -0.43627
 Alpha virt. eigenvalues --    0.22051   0.23054   0.23843   0.24680   0.25982
 Alpha virt. eigenvalues --    0.26458   0.26669   0.27594   0.27891   0.29264
 Alpha virt. eigenvalues --    0.30680   0.31260   0.31609   0.31921   0.32120

 Mulliken charges:
               1
     1  C   -0.298417
     2  C   -0.299593
     3  C   -0.482497
     4  H    0.149465
     5  H    0.149303
     6  H    0.151679
     7  H    0.152069
     8  H    0.153304
     9  H    0.154370
    10  H    0.169518
    11  C   -0.298225
    12  C   -0.299586
    13  C   -0.475682
    14  H    0.149434
    15  H    0.149638
    16  H    0.151871
    17  H    0.151869
    18  H    0.155172
    19  H    0.155144
    20  H    0.160182
    21  C   -0.304982
    22  C   -0.299018
    23  C   -0.476372
    24  H    0.158112
    25  H    0.148533
    26  H    0.151830
    27  H    0.151726
    28  H    0.154923
    29  H    0.155761
    30  H    0.160252
    31  C   -0.297617
    32  C   -0.300499
    33  C   -0.475627
    34  H    0.149421
    35  H    0.149368
    36  H    0.153198
    37  H    0.151551
    38  H    0.155089
    39  H    0.155173
    40  H    0.160160
 Sum of Mulliken charges =  -0.00000

 Dipole moment (field-independent basis, Debye):
    X=             -0.0241    Y=              0.0021    Z=              0.0031  Tot=              0.0244
 Quadrupole moment (field-independent basis, Debye-Ang):
   XX=            -86.3710   YY=            -84.6526   ZZ=            -83.8970
   XY=             -0.7349   XZ=              0.6775   YZ=              0.3984

 Normal termination of Gaussian 16 at Thu May  6 05:19:51 2021.
