 Gaussian 16, Revision A.03,
 Gaussian 16:  EM64L-G16RevA.03 25-Dec-2016

 -------------
 #p 6-31g* mp2
 -------------

 ------------------------------------------------------
 Input file generated by CHIRIPA (05-May-2021 14:57:22)
 ------------------------------------------------------
 Symbolic Z-matrix:
 Charge =  0 Multiplicity = 1

                         Standard orientation:
 ---------------------------------------------------------------------
 Center     Atomic      Atomic             Coordinates (Angstroms)
 Number     Number       Type             X           Y           Z
 ---------------------------------------------------------------------
      1          6           0        2.168168    2.444006    1.101969
      2          6           0        1.227100    1.415541    0.987193
      3          6           0        1.580107    0.191051    0.412251
      4          6           0        2.888891    0.028613   -0.039399
      5          6           0        3.849165    1.034153    0.060866
      6          6           0        3.473894    2.250371    0.639256
      7          1           0        1.885296    3.392006    1.549937
      8          1           0        0.212329    1.563101    1.345676
      9          1           0        0.871563   -0.622045    0.310963
     10          1           0        4.853083    0.857347   -0.305613
     11          1           0        4.206836    3.047319    0.727090
     12          7           0        3.274388   -1.263322   -0.649889
     13          8           0        4.433893   -1.381347   -1.040090
     14          8           0        2.409737   -2.133452   -0.726630
     15          6           0       -2.032874   -2.054817    1.504005
     16          6           0       -2.955241   -1.101269    1.947297
     17          6           0       -3.401304   -0.092095    1.088727
     18          6           0       -2.901971   -0.066238   -0.212537
     19          6           0       -1.982380   -1.001971   -0.683756
     20          6           0       -1.550239   -2.002216    0.192206
     21          1           0       -1.691768   -2.835299    2.177719
     22          1           0       -3.331770   -1.139663    2.965530
     23          1           0       -4.114827    0.658736    1.405830
     24          1           0       -1.625038   -0.937823   -1.704349
     25          1           0       -0.833859   -2.741431   -0.154795
     26          7           0       -3.366829    0.997404   -1.130673
     27          8           0       -2.911717    0.998339   -2.272386
     28          8           0       -4.177495    1.810010   -0.691209
 ---------------------------------------------------------------------

 SCF Done:  E(RHF) =  -868.339169729     A.U. after   16 cycles
 E2 =    -0.2601608388D+01 EUMP2 =    -0.87094077811649D+03

 The electronic state is 1-A.
 Alpha  occ. eigenvalues --  -20.61217 -20.61200 -20.61198 -20.61147 -15.86265
 Alpha  occ. eigenvalues --  -15.86216 -11.31714 -11.31319 -11.28300 -11.28197
 Alpha  occ. eigenvalues --  -11.27947 -11.27878 -11.27780 -11.27574 -11.27286
 Alpha  occ. eigenvalues --  -11.27085 -11.26846 -11.26812  -1.60290  -1.60240
 Alpha  occ. eigenvalues --   -1.39837  -1.39807  -1.19892  -1.19479  -1.09241
 Alpha  occ. eigenvalues --   -1.08924  -1.05279  -1.04836  -0.96061  -0.95799
 Alpha  occ. eigenvalues --   -0.86628  -0.86262  -0.82868  -0.82647  -0.77947
 Alpha  occ. eigenvalues --   -0.77700  -0.72468  -0.72453  -0.71629  -0.71550
 Alpha  occ. eigenvalues --   -0.70905  -0.70604  -0.65491  -0.65196  -0.65118
 Alpha  occ. eigenvalues --   -0.64846  -0.62575  -0.62205  -0.55689  -0.55397
 Alpha  occ. eigenvalues --   -0.53652  -0.53270  -0.53187  -0.52867  -0.49253
 Alpha  occ. eigenvalues --   -0.49225  -0.49198  -0.49161  -0.45268  -0.45222
 Alpha  occ. eigenvalues --   -0.37880  -0.37455  -0.36911  -0.36391
 Alpha virt. eigenvalues --    0.04497   0.04850   0.10610   0.11264   0.15974
 Alpha virt. eigenvalues --    0.16346   0.20960   0.21639   0.26689   0.27291
 Alpha virt. eigenvalues --    0.28034   0.28679   0.30456   0.31308   0.32167

 Mulliken charges:
               1
     1  C   -0.169234
     2  C   -0.224117
     3  C   -0.177451
     4  C    0.157137
     5  C   -0.169550
     6  C   -0.219048
     7  H    0.227346
     8  H    0.225426
     9  H    0.282050
    10  H    0.275512
    11  H    0.224270
    12  N    0.488990
    13  O   -0.456993
    14  O   -0.471420
    15  C   -0.172083
    16  C   -0.220223
    17  C   -0.175025
    18  C    0.156957
    19  C   -0.175682
    20  C   -0.238821
    21  H    0.231157
    22  H    0.225177
    23  H    0.276241
    24  H    0.282738
    25  H    0.246810
    26  N    0.487642
    27  O   -0.456861
    28  O   -0.460944
 Sum of Mulliken charges =  -0.00000

 Dipole moment (field-independent basis, Debye):
    X=              0.2087    Y=              0.7527    Z=              5.3498  Tot=              5.4065
 Quadrupole moment (field-independent basis, Debye-Ang):
   XX=           -116.5725   YY=           -103.3542   ZZ=           -104.5668
   XY=             25.1683   XZ=             -6.6246   YZ=              1.7234

 Normal termination of Gaussian 16 at Thu May  6 03:20:43 2021.
