 Gaussian 16, Revision A.03,
 Gaussian 16:  EM64L-G16RevA.03 25-Dec-2016

 -------------
 #p 6-31g* mp2
 -------------

 ------------------------------------------------------
 Input file generated by CHIRIPA (05-May-2021 14:51:09)
 ------------------------------------------------------
 Symbolic Z-matrix:
 Charge =  0 Multiplicity = 1

                         Standard orientation:
 ---------------------------------------------------------------------
 Center     Atomic      Atomic             Coordinates (Angstroms)
 Number     Number       Type             X           Y           Z
 ---------------------------------------------------------------------
      1          6           0       -2.053251   -1.058622    0.533856
      2          6           0       -1.588720   -2.498237    0.310909
      3          6           0       -0.512742   -2.933084    1.306386
      4          1           0       -1.188481   -0.385223    0.458672
      5          1           0       -2.438485   -0.959486    1.558142
      6          1           0       -1.205754   -2.594970   -0.713101
      7          1           0       -2.454727   -3.168267    0.386443
      8          1           0       -0.887452   -2.865038    2.332818
      9          1           0        0.368617   -2.288484    1.227027
     10          1           0       -0.195197   -3.965323    1.128880
     11          6           0       -3.128797   -0.609309   -0.453588
     12          6           0       -3.593329    0.830306   -0.230641
     13          6           0       -4.669306    1.265153   -1.226118
     14          1           0       -2.743563   -0.708445   -1.477874
     15          1           0       -3.993567   -1.282707   -0.378404
     16          1           0       -2.727321    1.500337   -0.306175
     17          1           0       -3.976294    0.927040    0.793369
     18          1           0       -5.550665    0.620553   -1.146759
     19          1           0       -4.294596    1.197107   -2.252550
     20          1           0       -4.986851    2.297392   -1.048612
     21          6           0        2.485027    1.526160    0.264931
     22          6           0        1.010787    1.897577    0.428173
     23          6           0        0.814966    3.285182    1.039728
     24          1           0        2.978169    1.569093    1.245703
     25          1           0        2.977885    2.278801   -0.365953
     26          1           0        0.520542    1.143708    1.057426
     27          1           0        0.521053    1.853567   -0.553071
     28          1           0        1.278322    4.052237    0.410814
     29          1           0        1.277808    3.338344    2.030462
     30          1           0       -0.246243    3.530322    1.147441
     31          6           0        2.697021    0.141772   -0.345199
     32          6           0        4.171262   -0.229646   -0.508442
     33          6           0        4.367082   -1.617252   -1.119995
     34          1           0        2.204164   -0.610871    0.285686
     35          1           0        2.203879    0.098838   -1.325970
     36          1           0        4.660995   -0.185637    0.472803
     37          1           0        4.661506    0.524223   -1.137694
     38          1           0        3.904241   -1.670413   -2.110729
     39          1           0        3.903727   -2.384306   -0.491082
     40          1           0        5.428291   -1.862391   -1.227710
 ---------------------------------------------------------------------

 SCF Done:  E(RHF) =  -470.733097800     A.U. after   11 cycles
 E2 =    -0.1584115615D+01 EUMP2 =    -0.47231721341519D+03

 The electronic state is 1-A.
 Alpha  occ. eigenvalues --  -11.21666 -11.21652 -11.21572 -11.21559 -11.21480
 Alpha  occ. eigenvalues --  -11.21419 -11.21343 -11.21255 -11.21119 -11.21100
 Alpha  occ. eigenvalues --  -11.21074 -11.21053  -1.08509  -1.08377  -1.03588
 Alpha  occ. eigenvalues --   -1.03501  -0.96035  -0.95949  -0.87056  -0.86963
 Alpha  occ. eigenvalues --   -0.79677  -0.79562  -0.78428  -0.78091  -0.65186
 Alpha  occ. eigenvalues --   -0.64970  -0.60993  -0.60894  -0.59409  -0.59319
 Alpha  occ. eigenvalues --   -0.57678  -0.57536  -0.55371  -0.55194  -0.52728
 Alpha  occ. eigenvalues --   -0.52649  -0.52506  -0.52336  -0.50046  -0.49835
 Alpha  occ. eigenvalues --   -0.48037  -0.47888  -0.46789  -0.46624  -0.46195
 Alpha  occ. eigenvalues --   -0.45791  -0.45697  -0.45085  -0.43839  -0.43744
 Alpha virt. eigenvalues --    0.20335   0.22175   0.23602   0.24115   0.25581
 Alpha virt. eigenvalues --    0.26261   0.27047   0.27622   0.28138   0.29582
 Alpha virt. eigenvalues --    0.30588   0.31574   0.31697   0.31743   0.32301

 Mulliken charges:
               1
     1  C   -0.308384
     2  C   -0.298488
     3  C   -0.480720
     4  H    0.160984
     5  H    0.148296
     6  H    0.152077
     7  H    0.151683
     8  H    0.155030
     9  H    0.158165
    10  H    0.160426
    11  C   -0.297393
    12  C   -0.301411
    13  C   -0.475615
    14  H    0.149103
    15  H    0.149372
    16  H    0.153466
    17  H    0.151698
    18  H    0.155208
    19  H    0.155007
    20  H    0.160060
    21  C   -0.297560
    22  C   -0.306460
    23  C   -0.475840
    24  H    0.149972
    25  H    0.149872
    26  H    0.158263
    27  H    0.151540
    28  H    0.155302
    29  H    0.155505
    30  H    0.161126
    31  C   -0.304743
    32  C   -0.299329
    33  C   -0.475962
    34  H    0.154589
    35  H    0.149438
    36  H    0.152226
    37  H    0.152230
    38  H    0.155101
    39  H    0.155684
    40  H    0.160482
 Sum of Mulliken charges =  -0.00000

 Dipole moment (field-independent basis, Debye):
    X=              0.0460    Y=              0.0282    Z=              0.0052  Tot=              0.0542
 Quadrupole moment (field-independent basis, Debye-Ang):
   XX=            -84.9866   YY=            -85.7122   ZZ=            -84.0948
   XY=              0.8888   XZ=             -0.8296   YZ=             -0.6771

 Normal termination of Gaussian 16 at Wed May  5 16:39:56 2021.
