 Gaussian 16, Revision A.03,
 Gaussian 16:  EM64L-G16RevA.03 25-Dec-2016

 -------------
 #p 6-31g* mp2
 -------------

 ------------------------------------------------------
 Input file generated by CHIRIPA (05-May-2021 14:57:27)
 ------------------------------------------------------
 Symbolic Z-matrix:
 Charge =  0 Multiplicity = 1

                         Standard orientation:
 ---------------------------------------------------------------------
 Center     Atomic      Atomic             Coordinates (Angstroms)
 Number     Number       Type             X           Y           Z
 ---------------------------------------------------------------------
      1          6           0        2.091377    2.115628   -0.063534
      2          6           0        1.588847    0.811289   -0.115321
      3          6           0        2.456912   -0.284617   -0.113922
      4          6           0        3.827973   -0.038556   -0.059731
      5          6           0        4.359292    1.249174   -0.007378
      6          6           0        3.472561    2.330030   -0.009822
      7          1           0        1.409793    2.961109   -0.065026
      8          1           0        0.516669    0.641780   -0.157097
      9          1           0        2.094902   -1.304819   -0.153348
     10          1           0        5.433011    1.386527    0.033606
     11          1           0        3.865666    3.341905    0.030466
     12          7           0        4.756835   -1.190776   -0.057697
     13          8           0        5.960588   -0.947299   -0.009396
     14          8           0        4.263535   -2.315546   -0.104441
     15          6           0       -3.754265    2.370422    0.042159
     16          6           0       -4.852783    1.632264   -0.410501
     17          6           0       -4.819904    0.234610   -0.405114
     18          6           0       -3.667211   -0.395139    0.061797
     19          6           0       -2.556613    0.312417    0.519212
     20          6           0       -2.611700    1.709307    0.504755
     21          1           0       -3.788432    3.455857    0.034451
     22          1           0       -5.741439    2.143018   -0.770316
     23          1           0       -5.656120   -0.361456   -0.749885
     24          1           0       -1.684720   -0.224927    0.872031
     25          1           0       -1.757086    2.279992    0.856890
     26          7           0       -3.620648   -1.874369    0.072301
     27          8           0       -2.593335   -2.405370    0.488599
     28          8           0       -4.612346   -2.474779   -0.335962
 ---------------------------------------------------------------------

 SCF Done:  E(RHF) =  -868.336498273     A.U. after   16 cycles
 E2 =    -0.2600440307D+01 EUMP2 =    -0.87093693858028D+03

 The electronic state is 1-A.
 Alpha  occ. eigenvalues --  -20.61406 -20.61394 -20.60848 -20.60832 -15.86465
 Alpha  occ. eigenvalues --  -15.85902 -11.32010 -11.31415 -11.28686 -11.28542
 Alpha  occ. eigenvalues --  -11.28350 -11.28021 -11.27991 -11.27900 -11.27748
 Alpha  occ. eigenvalues --  -11.27576 -11.27135 -11.27085  -1.60474  -1.59917
 Alpha  occ. eigenvalues --   -1.40024  -1.39464  -1.20200  -1.19628  -1.09549
 Alpha  occ. eigenvalues --   -1.09019  -1.05650  -1.05052  -0.96359  -0.95816
 Alpha  occ. eigenvalues --   -0.87024  -0.86465  -0.83203  -0.82641  -0.78238
 Alpha  occ. eigenvalues --   -0.77635  -0.72676  -0.72119  -0.71801  -0.71301
 Alpha  occ. eigenvalues --   -0.71243  -0.70778  -0.65866  -0.65656  -0.65288
 Alpha  occ. eigenvalues --   -0.65113  -0.63039  -0.62319  -0.56106  -0.55626
 Alpha  occ. eigenvalues --   -0.53949  -0.53748  -0.53377  -0.53127  -0.49448
 Alpha  occ. eigenvalues --   -0.49424  -0.48894  -0.48860  -0.45391  -0.44836
 Alpha  occ. eigenvalues --   -0.38158  -0.37654  -0.37248  -0.36650
 Alpha virt. eigenvalues --    0.04281   0.04892   0.10384   0.10952   0.15621
 Alpha virt. eigenvalues --    0.16304   0.18475   0.22109   0.25116   0.25324
 Alpha virt. eigenvalues --    0.27962   0.29292   0.30457   0.30958   0.32844

 Mulliken charges:
               1
     1  C   -0.172420
     2  C   -0.224440
     3  C   -0.171024
     4  C    0.158993
     5  C   -0.170138
     6  C   -0.218178
     7  H    0.219299
     8  H    0.221581
     9  H    0.282790
    10  H    0.276834
    11  H    0.223465
    12  N    0.487805
    13  O   -0.460398
    14  O   -0.456675
    15  C   -0.170210
    16  C   -0.217569
    17  C   -0.169463
    18  C    0.160573
    19  C   -0.176481
    20  C   -0.219893
    21  H    0.227150
    22  H    0.226812
    23  H    0.278878
    24  H    0.273040
    25  H    0.218226
    26  N    0.488124
    27  O   -0.460007
    28  O   -0.456674
 Sum of Mulliken charges =  -0.00000

 Dipole moment (field-independent basis, Debye):
    X=             -3.6002    Y=              9.1117    Z=             -0.1029  Tot=              9.7977
 Quadrupole moment (field-independent basis, Debye-Ang):
   XX=           -119.5664   YY=           -108.1396   ZZ=           -105.7697
   XY=             -0.7265   XZ=              2.6545   YZ=              0.2859

 Normal termination of Gaussian 16 at Fri May  7 03:34:55 2021.
