 Gaussian 16, Revision A.03,
 Gaussian 16:  EM64L-G16RevA.03 25-Dec-2016

 -------------
 #p 6-31g* mp2
 -------------

 ------------------------------------------------------
 Input file generated by CHIRIPA (05-May-2021 14:51:08)
 ------------------------------------------------------
 Symbolic Z-matrix:
 Charge =  0 Multiplicity = 1

                         Standard orientation:
 ---------------------------------------------------------------------
 Center     Atomic      Atomic             Coordinates (Angstroms)
 Number     Number       Type             X           Y           Z
 ---------------------------------------------------------------------
      1          6           0       -3.411649    0.740590   -0.130414
      2          6           0       -4.723869    1.393029    0.305921
      3          6           0       -4.715244    2.912071    0.132052
      4          1           0       -2.584279    1.172707    0.448964
      5          1           0       -3.219099    0.988977   -1.183326
      6          1           0       -4.914586    1.142342    1.357301
      7          1           0       -5.548235    0.959172   -0.274427
      8          1           0       -4.549663    3.178841   -0.916766
      9          1           0       -3.912413    3.363051    0.724234
     10          1           0       -5.662863    3.357935    0.449990
     11          6           0       -3.404880   -0.777803    0.037405
     12          6           0       -2.092660   -1.430242   -0.398930
     13          6           0       -2.101285   -2.949284   -0.225060
     14          1           0       -3.597430   -1.026190    1.090317
     15          1           0       -4.232251   -1.209920   -0.541972
     16          1           0       -1.268294   -0.996385    0.181419
     17          1           0       -1.901944   -1.179555   -1.450309
     18          1           0       -2.904116   -3.400265   -0.817242
     19          1           0       -2.266866   -3.216054    0.823757
     20          1           0       -1.153667   -3.395149   -0.542998
     21          6           0        3.809292    0.593239    0.350488
     22          6           0        3.974779    1.783744   -0.594657
     23          6           0        4.779284    2.925306    0.027756
     24          1           0        3.316434    0.930905    1.272452
     25          1           0        4.802526    0.225823    0.643554
     26          1           0        2.981528    2.147935   -0.886947
     27          1           0        4.467129    1.443166   -1.514557
     28          1           0        5.782343    2.584056    0.303478
     29          1           0        4.288302    3.292829    0.934655
     30          1           0        4.885413    3.765943   -0.665011
     31          6           0        3.007237   -0.556026   -0.257480
     32          6           0        2.841750   -1.746529    0.687665
     33          6           0        2.037245   -2.888093    0.065252
     34          1           0        2.014004   -0.188609   -0.550545
     35          1           0        3.500096   -0.893691   -1.179444
     36          1           0        2.349402   -1.405952    1.607565
     37          1           0        3.835001   -2.110722    0.979956
     38          1           0        2.528227   -3.255616   -0.841647
     39          1           0        1.034187   -2.546843   -0.210471
     40          1           0        1.931115   -3.728729    0.758019
 ---------------------------------------------------------------------

 SCF Done:  E(RHF) =  -470.733120667     A.U. after   11 cycles
 E2 =    -0.1582810507D+01 EUMP2 =    -0.47231593117422D+03

 The electronic state is 1-A.
 Alpha  occ. eigenvalues --  -11.21653 -11.21628 -11.21594 -11.21592 -11.21442
 Alpha  occ. eigenvalues --  -11.21396 -11.21382 -11.21336 -11.21095 -11.21067
 Alpha  occ. eigenvalues --  -11.21040 -11.21022  -1.08467  -1.08418  -1.03578
 Alpha  occ. eigenvalues --   -1.03501  -0.96042  -0.95931  -0.87062  -0.86943
 Alpha  occ. eigenvalues --   -0.79623  -0.79584  -0.78288  -0.78226  -0.65123
 Alpha  occ. eigenvalues --   -0.65030  -0.61054  -0.60862  -0.59394  -0.59331
 Alpha  occ. eigenvalues --   -0.57750  -0.57477  -0.55344  -0.55176  -0.52813
 Alpha  occ. eigenvalues --   -0.52616  -0.52510  -0.52236  -0.49945  -0.49864
 Alpha  occ. eigenvalues --   -0.47959  -0.47867  -0.46683  -0.46579  -0.45856
 Alpha  occ. eigenvalues --   -0.45771  -0.45746  -0.45649  -0.43834  -0.43742
 Alpha virt. eigenvalues --    0.21116   0.23123   0.23461   0.24904   0.26147
 Alpha virt. eigenvalues --    0.26709   0.26893   0.27314   0.28125   0.29029
 Alpha virt. eigenvalues --    0.30714   0.30904   0.31484   0.31766   0.32217

 Mulliken charges:
               1
     1  C   -0.298331
     2  C   -0.299691
     3  C   -0.475726
     4  H    0.149260
     5  H    0.149610
     6  H    0.151993
     7  H    0.152090
     8  H    0.155241
     9  H    0.155097
    10  H    0.160383
    11  C   -0.298224
    12  C   -0.301828
    13  C   -0.480093
    14  H    0.149729
    15  H    0.150079
    16  H    0.151914
    17  H    0.152225
    18  H    0.155363
    19  H    0.155246
    20  H    0.165335
    21  C   -0.298211
    22  C   -0.299700
    23  C   -0.475685
    24  H    0.149385
    25  H    0.149535
    26  H    0.152094
    27  H    0.151941
    28  H    0.155159
    29  H    0.155094
    30  H    0.160268
    31  C   -0.299262
    32  C   -0.299091
    33  C   -0.483947
    34  H    0.150365
    35  H    0.149661
    36  H    0.151399
    37  H    0.151848
    38  H    0.154853
    39  H    0.164393
    40  H    0.160228
 Sum of Mulliken charges =  -0.00000

 Dipole moment (field-independent basis, Debye):
    X=             -0.0207    Y=             -0.0087    Z=             -0.0110  Tot=              0.0250
 Quadrupole moment (field-independent basis, Debye-Ang):
   XX=            -84.2571   YY=            -86.6409   ZZ=            -83.8428
   XY=             -0.6435   XZ=             -0.1611   YZ=              0.0652

 Normal termination of Gaussian 16 at Wed May  5 15:05:21 2021.
