 Gaussian 16, Revision A.03,
 Gaussian 16:  EM64L-G16RevA.03 25-Dec-2016

 -------------
 #p 6-31g* mp2
 -------------

 ------------------------------------------------------
 Input file generated by CHIRIPA (05-May-2021 14:53:17)
 ------------------------------------------------------
 Symbolic Z-matrix:
 Charge =  0 Multiplicity = 1

                         Standard orientation:
 ---------------------------------------------------------------------
 Center     Atomic      Atomic             Coordinates (Angstroms)
 Number     Number       Type             X           Y           Z
 ---------------------------------------------------------------------
      1          6           0        3.459515    0.253652   -0.203775
      2          6           0        3.533595   -1.125497    0.452308
      3          6           0        4.970229   -1.612048    0.645037
      4          1           0        3.969630    0.217985   -1.176121
      5          1           0        4.012493    0.975588    0.413006
      6          1           0        2.979475   -1.844338   -0.164811
      7          1           0        3.023078   -1.086592    1.423119
      8          1           0        5.530508   -0.917207    1.278981
      9          1           0        5.486658   -1.679258   -0.317971
     10          1           0        4.999864   -2.599770    1.115555
     11          6           0        2.029844    0.753681   -0.403128
     12          6           0        1.955764    2.132830   -1.059211
     13          6           0        0.519130    2.619381   -1.251940
     14          1           0        1.476867    0.031745   -1.019909
     15          1           0        1.519729    0.789348    0.569218
     16          1           0        2.466282    2.093925   -2.030022
     17          1           0        2.509884    2.851670   -0.442092
     18          1           0        0.002701    2.686591   -0.288932
     19          1           0       -0.041149    1.924540   -1.885884
     20          1           0        0.489495    3.607103   -1.722459
     21          6           0       -2.190214   -2.437511   -1.241370
     22          6           0       -1.659152   -2.519473    0.050054
     23          6           0       -1.628566   -1.393343    0.877969
     24          6           0       -2.139840   -0.195881    0.380002
     25          6           0       -2.675474   -0.082372   -0.901990
     26          6           0       -2.695788   -1.221365   -1.712440
     27          1           0       -2.209985   -3.317312   -1.877731
     28          1           0       -1.265818   -3.462634    0.418541
     29          1           0       -1.223192   -1.428696    1.881882
     30          1           0       -3.060203    0.871668   -1.241415
     31          1           0       -3.108821   -1.154767   -2.714944
     32          7           0       -2.112897    1.003111    1.247234
     33          8           0       -2.569549    2.046383    0.784969
     34          8           0       -1.635636    0.876907    2.372814
 ---------------------------------------------------------------------

 SCF Done:  E(RHF) =  -669.536317593     A.U. after   15 cycles
 E2 =    -0.2093033494D+01 EUMP2 =    -0.67162935108665D+03

 The electronic state is 1-A.
 Alpha  occ. eigenvalues --  -20.60897 -20.60888 -15.85906 -11.31217 -11.27790
 Alpha  occ. eigenvalues --  -11.27783 -11.27534 -11.26800 -11.26790 -11.21615
 Alpha  occ. eigenvalues --  -11.21261 -11.21237 -11.21121 -11.21100 -11.20505
 Alpha  occ. eigenvalues --   -1.59951  -1.39507  -1.19391  -1.08800  -1.08248
 Alpha  occ. eigenvalues --   -1.04789  -1.03326  -0.95762  -0.95642  -0.86778
 Alpha  occ. eigenvalues --   -0.86187  -0.82481  -0.79408  -0.78069  -0.77528
 Alpha  occ. eigenvalues --   -0.72139  -0.71269  -0.70506  -0.65051  -0.64873
 Alpha  occ. eigenvalues --   -0.64795  -0.62138  -0.60715  -0.59158  -0.57381
 Alpha  occ. eigenvalues --   -0.55302  -0.55040  -0.53124  -0.52884  -0.52451
 Alpha  occ. eigenvalues --   -0.52197  -0.49707  -0.48903  -0.48895  -0.47730
 Alpha  occ. eigenvalues --   -0.46450  -0.45598  -0.45504  -0.44826  -0.43580
 Alpha  occ. eigenvalues --   -0.37356  -0.36374
 Alpha virt. eigenvalues --    0.04967   0.11208   0.16463   0.21318   0.23006
 Alpha virt. eigenvalues --    0.24369   0.26587   0.27198   0.27254   0.28169
 Alpha virt. eigenvalues --    0.28587   0.30936   0.31402   0.31911   0.32200

 Mulliken charges:
               1
     1  C   -0.297701
     2  C   -0.299430
     3  C   -0.475409
     4  H    0.148314
     5  H    0.151547
     6  H    0.147593
     7  H    0.152412
     8  H    0.156925
     9  H    0.154696
    10  H    0.158267
    11  C   -0.302240
    12  C   -0.299023
    13  C   -0.483356
    14  H    0.146859
    15  H    0.153776
    16  H    0.148355
    17  H    0.153845
    18  H    0.171732
    19  H    0.146685
    20  H    0.160141
    21  C   -0.170764
    22  C   -0.218625
    23  C   -0.169661
    24  C    0.160577
    25  C   -0.170240
    26  C   -0.219673
    27  H    0.225696
    28  H    0.223752
    29  H    0.275519
    30  H    0.276547
    31  H    0.223610
    32  N    0.487039
    33  O   -0.457598
    34  O   -0.460169
 Sum of Mulliken charges =  -0.00000

 Dipole moment (field-independent basis, Debye):
    X=             -0.2062    Y=             -4.1599    Z=             -2.9568  Tot=              5.1078
 Quadrupole moment (field-independent basis, Debye-Ang):
   XX=            -95.1708   YY=            -92.0015   ZZ=            -94.1349
   XY=              8.4067   XZ=              8.3851   YZ=             -2.5100

 Normal termination of Gaussian 16 at Thu May  6 17:17:12 2021.
