 Gaussian 16, Revision A.03,
 Gaussian 16:  EM64L-G16RevA.03 25-Dec-2016

 -------------
 #p 6-31g* mp2
 -------------

 ------------------------------------------------------
 Input file generated by CHIRIPA (05-May-2021 14:53:18)
 ------------------------------------------------------
 Symbolic Z-matrix:
 Charge =  0 Multiplicity = 1

                         Standard orientation:
 ---------------------------------------------------------------------
 Center     Atomic      Atomic             Coordinates (Angstroms)
 Number     Number       Type             X           Y           Z
 ---------------------------------------------------------------------
      1          6           0        2.225619    1.063196   -0.057776
      2          6           0        2.864829    2.452115   -0.075079
      3          6           0        1.879255    3.561094    0.294518
      4          1           0        1.376657    1.048538   -0.754908
      5          1           0        1.812554    0.869736    0.941897
      6          1           0        3.277786    2.642340   -1.074027
      7          1           0        3.712487    2.463411    0.622033
      8          1           0        1.475679    3.398731    1.299190
      9          1           0        1.038508    3.578676   -0.406507
     10          1           0        2.357154    4.545536    0.275887
     11          6           0        3.198346   -0.055984   -0.425156
     12          6           0        2.559137   -1.444903   -0.407852
     13          6           0        3.544711   -2.553882   -0.777449
     14          1           0        3.611412    0.137476   -1.424828
     15          1           0        4.047309   -0.041326    0.271976
     16          1           0        1.711479   -1.456199   -1.104964
     17          1           0        2.146180   -1.635128    0.591096
     18          1           0        4.385458   -2.571464   -0.076424
     19          1           0        3.948287   -2.391519   -1.782121
     20          1           0        3.066811   -3.538324   -0.758818
     21          6           0       -0.553576   -1.970332    1.384310
     22          6           0       -0.841554   -0.717711    1.936154
     23          6           0       -1.707336    0.164096    1.282410
     24          6           0       -2.270050   -0.240994    0.073053
     25          6           0       -2.002753   -1.482318   -0.502238
     26          6           0       -1.134071   -2.347971    0.169018
     27          1           0        0.120111   -2.649067    1.898955
     28          1           0       -0.392180   -0.421765    2.879830
     29          1           0       -1.947592    1.139740    1.687151
     30          1           0       -2.465960   -1.749225   -1.444372
     31          1           0       -0.912240   -3.320154   -0.261908
     32          7           0       -3.188150    0.683986   -0.628307
     33          8           0       -3.671028    0.303371   -1.692543
     34          8           0       -3.407496    1.772085   -0.100515
 ---------------------------------------------------------------------

 SCF Done:  E(RHF) =  -669.534160525     A.U. after   15 cycles
 E2 =    -0.2094435616D+01 EUMP2 =    -0.67162859614091D+03

 The electronic state is 1-A.
 Alpha  occ. eigenvalues --  -20.60780 -20.60775 -15.85836 -11.31197 -11.27793
 Alpha  occ. eigenvalues --  -11.27790 -11.27517 -11.26783 -11.26766 -11.22021
 Alpha  occ. eigenvalues --  -11.21757 -11.21719 -11.21620 -11.21579 -11.21153
 Alpha  occ. eigenvalues --   -1.59858  -1.39411  -1.19387  -1.08834  -1.08683
 Alpha  occ. eigenvalues --   -1.04792  -1.03846  -0.96290  -0.95618  -0.87302
 Alpha  occ. eigenvalues --   -0.86190  -0.82452  -0.79920  -0.78543  -0.77487
 Alpha  occ. eigenvalues --   -0.72054  -0.71183  -0.70517  -0.65377  -0.65041
 Alpha  occ. eigenvalues --   -0.64792  -0.62140  -0.61250  -0.59696  -0.57905
 Alpha  occ. eigenvalues --   -0.55587  -0.55295  -0.53298  -0.52888  -0.52874
 Alpha  occ. eigenvalues --   -0.52713  -0.50226  -0.48814  -0.48808  -0.48238
 Alpha  occ. eigenvalues --   -0.46958  -0.46044  -0.45993  -0.44818  -0.44088
 Alpha  occ. eigenvalues --   -0.37225  -0.36349
 Alpha virt. eigenvalues --    0.05019   0.11153   0.16396   0.20526   0.22940
 Alpha virt. eigenvalues --    0.23727   0.25985   0.26896   0.27273   0.27914
 Alpha virt. eigenvalues --    0.28483   0.30189   0.31348   0.31496   0.32096

 Mulliken charges:
               1
     1  C   -0.297872
     2  C   -0.300201
     3  C   -0.475649
     4  H    0.152802
     5  H    0.145126
     6  H    0.153367
     7  H    0.150298
     8  H    0.150589
     9  H    0.160694
    10  H    0.161582
    11  C   -0.298851
    12  C   -0.299395
    13  C   -0.475515
    14  H    0.151220
    15  H    0.148225
    16  H    0.154774
    17  H    0.144634
    18  H    0.155368
    19  H    0.158249
    20  H    0.154155
    21  C   -0.166686
    22  C   -0.217981
    23  C   -0.168676
    24  C    0.157750
    25  C   -0.172316
    26  C   -0.216270
    27  H    0.225661
    28  H    0.222887
    29  H    0.275991
    30  H    0.275591
    31  H    0.223555
    32  N    0.487942
    33  O   -0.460738
    34  O   -0.460308
 Sum of Mulliken charges =  -0.00000

 Dipole moment (field-independent basis, Debye):
    X=              3.1780    Y=             -3.2073    Z=              2.4256  Tot=              5.1254
 Quadrupole moment (field-independent basis, Debye-Ang):
   XX=           -110.7982   YY=            -92.1301   ZZ=            -91.1484
   XY=              7.8078   XZ=             -4.6770   YZ=              1.5108

 Normal termination of Gaussian 16 at Thu May  6 07:36:15 2021.
