 Gaussian 16, Revision A.03,
 Gaussian 16:  EM64L-G16RevA.03 25-Dec-2016

 -------------
 #p 6-31g* mp2
 -------------

 ------------------------------------------------------
 Input file generated by CHIRIPA (05-May-2021 14:53:15)
 ------------------------------------------------------
 Symbolic Z-matrix:
 Charge =  0 Multiplicity = 1

                         Standard orientation:
 ---------------------------------------------------------------------
 Center     Atomic      Atomic             Coordinates (Angstroms)
 Number     Number       Type             X           Y           Z
 ---------------------------------------------------------------------
      1          6           0        3.121795    0.989474    0.122986
      2          6           0        3.188476    2.267960   -0.713083
      3          6           0        2.259521    3.364606   -0.191351
      4          1           0        2.087097    0.620426    0.135117
      5          1           0        3.381325    1.226531    1.164064
      6          1           0        2.930244    2.028308   -1.752553
      7          1           0        4.223173    2.633902   -0.723383
      8          1           0        2.519564    3.632341    0.837871
      9          1           0        1.219289    3.023306   -0.197147
     10          1           0        2.323092    4.269515   -0.803689
     11          6           0        4.044908   -0.116148   -0.386124
     12          6           0        3.978227   -1.394634    0.449945
     13          6           0        4.907182   -2.491280   -0.071787
     14          1           0        3.785378   -0.353205   -1.427202
     15          1           0        5.079606    0.252900   -0.398255
     16          1           0        2.943530   -1.760576    0.460245
     17          1           0        4.236459   -1.154982    1.489415
     18          1           0        5.947414   -2.149980   -0.065991
     19          1           0        4.647139   -2.759015   -1.101008
     20          1           0        4.843611   -3.396189    0.540551
     21          6           0       -0.441200   -1.131826    0.526104
     22          6           0       -0.904283    0.042875    1.127894
     23          6           0       -2.209084    0.490448    0.900468
     24          6           0       -3.027485   -0.264702    0.061863
     25          6           0       -2.595271   -1.439156   -0.552255
     26          6           0       -1.286682   -1.867794   -0.310575
     27          1           0        0.573872   -1.472157    0.708309
     28          1           0       -0.249888    0.616463    1.778132
     29          1           0       -2.593324    1.396271    1.353525
     30          1           0       -3.270969   -1.989606   -1.195571
     31          1           0       -0.929742   -2.780460   -0.779280
     32          7           0       -4.410824    0.199100   -0.186446
     33          8           0       -5.112111   -0.484196   -0.929373
     34          8           0       -4.767605    1.237143    0.366556
 ---------------------------------------------------------------------

 SCF Done:  E(RHF) =  -669.535327127     A.U. after   15 cycles
 E2 =    -0.2092756079D+01 EUMP2 =    -0.67162808320670D+03

 The electronic state is 1-A.
 Alpha  occ. eigenvalues --  -20.60770 -20.60765 -15.85824 -11.31202 -11.27773
 Alpha  occ. eigenvalues --  -11.27764 -11.27475 -11.26780 -11.26764 -11.22763
 Alpha  occ. eigenvalues --  -11.22348 -11.22302 -11.22262 -11.21979 -11.21696
 Alpha  occ. eigenvalues --   -1.59846  -1.39399  -1.19375  -1.09360  -1.08762
 Alpha  occ. eigenvalues --   -1.04776  -1.04394  -0.96818  -0.95600  -0.87836
 Alpha  occ. eigenvalues --   -0.86171  -0.82433  -0.80483  -0.79199  -0.77472
 Alpha  occ. eigenvalues --   -0.72041  -0.71169  -0.70507  -0.65995  -0.65021
 Alpha  occ. eigenvalues --   -0.64754  -0.62127  -0.61789  -0.60200  -0.58440
 Alpha  occ. eigenvalues --   -0.56099  -0.55299  -0.53495  -0.53262  -0.53093
 Alpha  occ. eigenvalues --   -0.52859  -0.50766  -0.48838  -0.48797  -0.48748
 Alpha  occ. eigenvalues --   -0.47522  -0.46699  -0.46610  -0.44802  -0.44652
 Alpha  occ. eigenvalues --   -0.37323  -0.36374
 Alpha virt. eigenvalues --    0.05026   0.11144   0.16436   0.19490   0.22736
 Alpha virt. eigenvalues --    0.22901   0.25192   0.26147   0.26660   0.27517
 Alpha virt. eigenvalues --    0.29543   0.30150   0.30928   0.31312   0.31944

 Mulliken charges:
               1
     1  C   -0.305796
     2  C   -0.299260
     3  C   -0.477949
     4  H    0.147657
     5  H    0.148799
     6  H    0.154861
     7  H    0.154340
     8  H    0.154214
     9  H    0.155213
    10  H    0.164604
    11  C   -0.298517
    12  C   -0.304584
    13  C   -0.475719
    14  H    0.151820
    15  H    0.154090
    16  H    0.142385
    17  H    0.154670
    18  H    0.159438
    19  H    0.156528
    20  H    0.161612
    21  C   -0.177479
    22  C   -0.222542
    23  C   -0.171459
    24  C    0.158350
    25  C   -0.170612
    26  C   -0.222447
    27  H    0.238449
    28  H    0.226702
    29  H    0.275935
    30  H    0.275695
    31  H    0.223671
    32  N    0.487982
    33  O   -0.460403
    34  O   -0.460245
 Sum of Mulliken charges =  -0.00000

 Dipole moment (field-independent basis, Debye):
    X=              5.0452    Y=             -1.5802    Z=              0.8082  Tot=              5.3483
 Quadrupole moment (field-independent basis, Debye-Ang):
   XX=           -123.7070   YY=            -91.4395   ZZ=            -93.0978
   XY=              5.2260   XZ=             -1.4338   YZ=              2.3157

 Normal termination of Gaussian 16 at Wed May  5 18:40:36 2021.
