 Gaussian 16, Revision A.03,
 Gaussian 16:  EM64L-G16RevA.03 25-Dec-2016

 -------------
 #p 6-31g* mp2
 -------------

 ------------------------------------------------------
 Input file generated by CHIRIPA (05-May-2021 14:51:07)
 ------------------------------------------------------
 Symbolic Z-matrix:
 Charge =  0 Multiplicity = 1

                         Standard orientation:
 ---------------------------------------------------------------------
 Center     Atomic      Atomic             Coordinates (Angstroms)
 Number     Number       Type             X           Y           Z
 ---------------------------------------------------------------------
      1          6           0       -2.651935    0.597892   -0.613879
      2          6           0       -3.869486   -0.216936   -0.176147
      3          6           0       -4.599306   -0.867297   -1.351812
      4          1           0       -2.973291    1.373693   -1.322263
      5          1           0       -1.958683   -0.056502   -1.160290
      6          1           0       -4.559592    0.438483    0.370475
      7          1           0       -3.545223   -0.990766    0.531425
      8          1           0       -3.930392   -1.543420   -1.894043
      9          1           0       -4.950524   -0.106050   -2.055907
     10          1           0       -5.466308   -1.444837   -1.016232
     11          6           0       -1.911854    1.254238    0.550260
     12          6           0       -0.694303    2.069066    0.112528
     13          6           0        0.035517    2.719427    1.288193
     14          1           0       -2.605106    1.908632    1.096671
     15          1           0       -1.590498    0.478437    1.258644
     16          1           0       -1.018565    2.842896   -0.595044
     17          1           0       -0.004197    1.413647   -0.434094
     18          1           0        0.386735    1.958180    1.992288
     19          1           0       -0.633397    3.395550    1.830424
     20          1           0        0.902519    3.296967    0.952612
     21          6           0        1.811296   -1.106454    0.605769
     22          6           0        0.805334   -2.199781    0.244297
     23          6           0       -0.129191   -2.549678    1.402757
     24          1           0        2.404043   -1.433916    1.470850
     25          1           0        1.266163   -0.206662    0.922944
     26          1           0        1.352185   -3.096789   -0.073424
     27          1           0        0.215043   -1.869758   -0.620143
     28          1           0       -0.700251   -1.669799    1.716292
     29          1           0        0.443352   -2.903802    2.266118
     30          1           0       -0.840019   -3.333295    1.122525
     31          6           0        2.752493   -0.745676   -0.542149
     32          6           0        3.758454    0.347650   -0.180678
     33          6           0        4.692980    0.697548   -1.339138
     34          1           0        3.297626   -1.645468   -0.859325
     35          1           0        2.159746   -0.418215   -1.407231
     36          1           0        4.348746    0.017628    0.683762
     37          1           0        3.211603    1.244658    0.137043
     38          1           0        4.120437    1.051672   -2.202499
     39          1           0        5.264041   -0.182331   -1.652672
     40          1           0        5.403807    1.481164   -1.058906
 ---------------------------------------------------------------------

 SCF Done:  E(RHF) =  -470.732390096     A.U. after   11 cycles
 E2 =    -0.1586035924D+01 EUMP2 =    -0.47231842601995D+03

 The electronic state is 1-A.
 Alpha  occ. eigenvalues --  -11.21675 -11.21672 -11.21616 -11.21608 -11.21461
 Alpha  occ. eigenvalues --  -11.21431 -11.21401 -11.21365 -11.21156 -11.21140
 Alpha  occ. eigenvalues --  -11.21084 -11.21077  -1.08564  -1.08406  -1.03597
 Alpha  occ. eigenvalues --   -1.03565  -0.96086  -0.95977  -0.87054  -0.87039
 Alpha  occ. eigenvalues --   -0.79660  -0.79628  -0.78355  -0.78245  -0.65710
 Alpha  occ. eigenvalues --   -0.64625  -0.61048  -0.60888  -0.59442  -0.59345
 Alpha  occ. eigenvalues --   -0.57712  -0.57581  -0.55656  -0.55011  -0.52734
 Alpha  occ. eigenvalues --   -0.52706  -0.52539  -0.52360  -0.50076  -0.49898
 Alpha  occ. eigenvalues --   -0.48053  -0.47909  -0.46771  -0.46654  -0.46041
 Alpha  occ. eigenvalues --   -0.45891  -0.45607  -0.45402  -0.43838  -0.43819
 Alpha virt. eigenvalues --    0.18469   0.21732   0.23269   0.24720   0.25228
 Alpha virt. eigenvalues --    0.25923   0.26919   0.28451   0.29149   0.29867
 Alpha virt. eigenvalues --    0.30475   0.31287   0.31553   0.31929   0.32329

 Mulliken charges:
               1
     1  C   -0.300203
     2  C   -0.301002
     3  C   -0.475742
     4  H    0.149954
     5  H    0.151226
     6  H    0.151949
     7  H    0.153762
     8  H    0.155174
     9  H    0.155118
    10  H    0.160437
    11  C   -0.305048
    12  C   -0.305260
    13  C   -0.478716
    14  H    0.150450
    15  H    0.155324
    16  H    0.153370
    17  H    0.155206
    18  H    0.156840
    19  H    0.156112
    20  H    0.160835
    21  C   -0.307898
    22  C   -0.301520
    23  C   -0.481777
    24  H    0.150038
    25  H    0.159515
    26  H    0.152678
    27  H    0.152941
    28  H    0.159801
    29  H    0.155827
    30  H    0.160575
    31  C   -0.298958
    32  C   -0.301920
    33  C   -0.475748
    34  H    0.149926
    35  H    0.149548
    36  H    0.152048
    37  H    0.154389
    38  H    0.155241
    39  H    0.155174
    40  H    0.160333
 Sum of Mulliken charges =  -0.00000

 Dipole moment (field-independent basis, Debye):
    X=             -0.0062    Y=              0.0144    Z=              0.0179  Tot=              0.0238
 Quadrupole moment (field-independent basis, Debye-Ang):
   XX=            -84.9084   YY=            -83.9738   ZZ=            -85.7665
   XY=             -1.5757   XZ=              0.3522   YZ=             -0.4190

 Normal termination of Gaussian 16 at Wed May  5 15:02:56 2021.
