 Gaussian 16, Revision A.03,
 Gaussian 16:  EM64L-G16RevA.03 25-Dec-2016

 -------------
 #p 6-31g* mp2
 -------------

 ------------------------------------------------------
 Input file generated by CHIRIPA (05-May-2021 14:53:13)
 ------------------------------------------------------
 Symbolic Z-matrix:
 Charge =  0 Multiplicity = 1

                         Standard orientation:
 ---------------------------------------------------------------------
 Center     Atomic      Atomic             Coordinates (Angstroms)
 Number     Number       Type             X           Y           Z
 ---------------------------------------------------------------------
      1          6           0       -3.263026   -0.257546   -0.276758
      2          6           0       -2.568172   -1.507595    0.264111
      3          6           0       -1.096019   -1.587674   -0.141040
      4          1           0       -3.181571   -0.245525   -1.372279
      5          1           0       -2.732944    0.634024    0.085888
      6          1           0       -3.100233   -2.396512   -0.098319
      7          1           0       -2.651457   -1.516739    1.358459
      8          1           0       -0.545480   -0.718778    0.233829
      9          1           0       -0.996805   -1.603549   -1.231226
     10          1           0       -0.618751   -2.488930    0.256216
     11          6           0       -4.735282   -0.163284    0.119859
     12          6           0       -5.430135    1.086766   -0.421010
     13          6           0       -6.902288    1.166844   -0.015859
     14          1           0       -5.265364   -1.054853   -0.242786
     15          1           0       -4.816737   -0.175304    1.215380
     16          1           0       -5.346850    1.095909   -1.515357
     17          1           0       -4.898075    1.975682   -0.058579
     18          1           0       -7.001502    1.182719    1.074327
     19          1           0       -7.452828    0.297948   -0.390727
     20          1           0       -7.379556    2.068100   -0.413115
     21          6           0        2.751797   -2.331034    0.057397
     22          6           0        3.407447   -1.719483   -1.016218
     23          6           0        3.619339   -0.337608   -1.024711
     24          6           0        3.160355    0.405635    0.061665
     25          6           0        2.503809   -0.174455    1.145978
     26          6           0        2.302862   -1.557930    1.133172
     27          1           0        2.591445   -3.405128    0.055723
     28          1           0        3.757177   -2.317386   -1.853025
     29          1           0        4.124005    0.161610   -1.842948
     30          1           0        2.166583    0.447895    1.965963
     31          1           0        1.793371   -2.030167    1.968311
     32          7           0        3.378882    1.869410    0.063947
     33          8           0        2.964890    2.501978    1.033022
     34          8           0        3.960018    2.356434   -0.903382
 ---------------------------------------------------------------------

 SCF Done:  E(RHF) =  -669.534840107     A.U. after   15 cycles
 E2 =    -0.2092171575D+01 EUMP2 =    -0.67162701168242D+03

 The electronic state is 1-A.
 Alpha  occ. eigenvalues --  -20.60766 -20.60761 -15.85819 -11.31186 -11.27725
 Alpha  occ. eigenvalues --  -11.27721 -11.27465 -11.26765 -11.26751 -11.21879
 Alpha  occ. eigenvalues --  -11.21653 -11.21555 -11.21483 -11.21394 -11.21113
 Alpha  occ. eigenvalues --   -1.59842  -1.39395  -1.19348  -1.08747  -1.08589
 Alpha  occ. eigenvalues --   -1.04756  -1.03706  -0.96161  -0.95580  -0.87185
 Alpha  occ. eigenvalues --   -0.86145  -0.82414  -0.79773  -0.78390  -0.77462
 Alpha  occ. eigenvalues --   -0.72038  -0.71164  -0.70453  -0.65224  -0.65003
 Alpha  occ. eigenvalues --   -0.64762  -0.62107  -0.61109  -0.59553  -0.57769
 Alpha  occ. eigenvalues --   -0.55476  -0.55247  -0.53370  -0.52866  -0.52676
 Alpha  occ. eigenvalues --   -0.52467  -0.50079  -0.48796  -0.48792  -0.48083
 Alpha  occ. eigenvalues --   -0.46801  -0.45934  -0.45851  -0.44801  -0.43975
 Alpha  occ. eigenvalues --   -0.37287  -0.36283
 Alpha virt. eigenvalues --    0.05046   0.11257   0.16531   0.20969   0.22781
 Alpha virt. eigenvalues --    0.24145   0.26491   0.26839   0.27298   0.27991
 Alpha virt. eigenvalues --    0.28435   0.30843   0.31224   0.31406   0.31829

 Mulliken charges:
               1
     1  C   -0.298934
     2  C   -0.300415
     3  C   -0.473450
     4  H    0.150356
     5  H    0.151999
     6  H    0.151021
     7  H    0.149645
     8  H    0.159039
     9  H    0.155993
    10  H    0.149315
    11  C   -0.298282
    12  C   -0.300062
    13  C   -0.475820
    14  H    0.148926
    15  H    0.149359
    16  H    0.152299
    17  H    0.153742
    18  H    0.155178
    19  H    0.154668
    20  H    0.161157
    21  C   -0.169888
    22  C   -0.218127
    23  C   -0.171458
    24  C    0.159348
    25  C   -0.174286
    26  C   -0.211171
    27  H    0.225288
    28  H    0.223389
    29  H    0.275420
    30  H    0.275127
    31  H    0.223614
    32  N    0.488057
    33  O   -0.460759
    34  O   -0.460288
 Sum of Mulliken charges =  -0.00000

 Dipole moment (field-independent basis, Debye):
    X=             -0.7567    Y=             -5.1247    Z=             -0.0350  Tot=              5.1804
 Quadrupole moment (field-independent basis, Debye-Ang):
   XX=           -100.3162   YY=            -99.5201   ZZ=            -90.3156
   XY=            -16.8816   XZ=             -1.9371   YZ=              0.4473

 Normal termination of Gaussian 16 at Thu May  6 12:03:33 2021.
