 Gaussian 16, Revision A.03,
 Gaussian 16:  EM64L-G16RevA.03 25-Dec-2016

 -------------
 #p 6-31g* mp2
 -------------

 ------------------------------------------------------
 Input file generated by CHIRIPA (05-May-2021 14:53:16)
 ------------------------------------------------------
 Symbolic Z-matrix:
 Charge =  0 Multiplicity = 1

                         Standard orientation:
 ---------------------------------------------------------------------
 Center     Atomic      Atomic             Coordinates (Angstroms)
 Number     Number       Type             X           Y           Z
 ---------------------------------------------------------------------
      1          6           0       -2.947712   -0.458066   -0.450772
      2          6           0       -3.974513   -1.533354   -0.093812
      3          6           0       -3.479119   -2.947705   -0.397110
      4          1           0       -2.696724   -0.539382   -1.517232
      5          1           0       -2.018908   -0.649174    0.104382
      6          1           0       -4.901570   -1.339480   -0.648423
      7          1           0       -4.223228   -1.449346    0.971880
      8          1           0       -2.566790   -3.165680    0.167464
      9          1           0       -3.248986   -3.055189   -1.462046
     10          1           0       -4.228736   -3.700622   -0.134335
     11          6           0       -3.428397    0.961153   -0.153301
     12          6           0       -2.401596    2.036441   -0.510261
     13          6           0       -2.896989    3.450792   -0.206962
     14          1           0       -4.357201    1.152261   -0.708455
     15          1           0       -3.679384    1.042468    0.913159
     16          1           0       -2.152880    1.952433   -1.575953
     17          1           0       -1.474539    1.842566    0.044350
     18          1           0       -3.127123    3.558276    0.857973
     19          1           0       -3.809318    3.668767   -0.771537
     20          1           0       -2.147373    4.203709   -0.469738
     21          6           0        4.688703    0.321423   -0.889336
     22          6           0        4.123267   -0.952203   -1.010506
     23          6           0        2.905810   -1.250383   -0.391288
     24          6           0        2.278169   -0.246591    0.344756
     25          6           0        2.816158    1.031868    0.484048
     26          6           0        4.034496    1.307654   -0.143760
     27          1           0        5.634795    0.544358   -1.373695
     28          1           0        4.629098   -1.720082   -1.588902
     29          1           0        2.445684   -2.227987   -0.468712
     30          1           0        2.288374    1.776682    1.067239
     31          1           0        4.471274    2.297649   -0.047939
     32          7           0        0.988835   -0.550407    1.004841
     33          8           0        0.455764    0.351366    1.647708
     34          8           0        0.535739   -1.684559    0.866849
 ---------------------------------------------------------------------

 SCF Done:  E(RHF) =  -669.537296718     A.U. after   15 cycles
 E2 =    -0.2092784532D+01 EUMP2 =    -0.67163008125017D+03

 The electronic state is 1-A.
 Alpha  occ. eigenvalues --  -20.61237 -20.61222 -15.86194 -11.31414 -11.27960
 Alpha  occ. eigenvalues --  -11.27956 -11.27683 -11.26942 -11.26933 -11.20466
 Alpha  occ. eigenvalues --  -11.20331 -11.20249 -11.20149 -11.19847 -11.19803
 Alpha  occ. eigenvalues --   -1.60250  -1.39809  -1.19568  -1.08995  -1.07153
 Alpha  occ. eigenvalues --   -1.04947  -1.02362  -0.95854  -0.94819  -0.86353
 Alpha  occ. eigenvalues --   -0.85843  -0.82696  -0.78445  -0.77762  -0.76968
 Alpha  occ. eigenvalues --   -0.72419  -0.71542  -0.70679  -0.65227  -0.64953
 Alpha  occ. eigenvalues --   -0.63750  -0.62295  -0.59748  -0.58215  -0.56443
 Alpha  occ. eigenvalues --   -0.55462  -0.54090  -0.53283  -0.53038  -0.51575
 Alpha  occ. eigenvalues --   -0.51261  -0.49246  -0.49198  -0.48733  -0.46803
 Alpha  occ. eigenvalues --   -0.45665  -0.44944  -0.44540  -0.44254  -0.42586
 Alpha  occ. eigenvalues --   -0.37535  -0.36540
 Alpha virt. eigenvalues --    0.04680   0.11114   0.16160   0.21219   0.24229
 Alpha virt. eigenvalues --    0.25413   0.27149   0.27672   0.28150   0.29024
 Alpha virt. eigenvalues --    0.29100   0.30983   0.31963   0.32599   0.32757

 Mulliken charges:
               1
     1  C   -0.310925
     2  C   -0.297104
     3  C   -0.478846
     4  H    0.140246
     5  H    0.176492
     6  H    0.145187
     7  H    0.152365
     8  H    0.169009
     9  H    0.148915
    10  H    0.154019
    11  C   -0.294653
    12  C   -0.307671
    13  C   -0.474297
    14  H    0.142838
    15  H    0.151590
    16  H    0.144253
    17  H    0.166021
    18  H    0.156093
    19  H    0.151860
    20  H    0.153657
    21  C   -0.170122
    22  C   -0.218688
    23  C   -0.170309
    24  C    0.160357
    25  C   -0.170382
    26  C   -0.218648
    27  H    0.226515
    28  H    0.224326
    29  H    0.276264
    30  H    0.276128
    31  H    0.224354
    32  N    0.488216
    33  O   -0.458843
    34  O   -0.458215
 Sum of Mulliken charges =  -0.00000

 Dipole moment (field-independent basis, Debye):
    X=              5.0028    Y=              0.9437    Z=             -2.0993  Tot=              5.5068
 Quadrupole moment (field-independent basis, Debye-Ang):
   XX=            -75.6634   YY=            -92.8604   ZZ=            -95.7921
   XY=              1.4924   XZ=             -4.3234   YZ=              2.7018

 Normal termination of Gaussian 16 at Wed May  5 18:44:47 2021.
