 Gaussian 16, Revision A.03,
 Gaussian 16:  EM64L-G16RevA.03 25-Dec-2016

 -------------
 #p 6-31g* mp2
 -------------

 ------------------------------------------------------
 Input file generated by CHIRIPA (05-May-2021 14:57:26)
 ------------------------------------------------------
 Symbolic Z-matrix:
 Charge =  0 Multiplicity = 1

                         Standard orientation:
 ---------------------------------------------------------------------
 Center     Atomic      Atomic             Coordinates (Angstroms)
 Number     Number       Type             X           Y           Z
 ---------------------------------------------------------------------
      1          6           0       -2.992936    2.211097    1.223591
      2          6           0       -3.426752    1.098506    1.951920
      3          6           0       -3.457401   -0.168506    1.361760
      4          6           0       -3.045349   -0.287219    0.035332
      5          6           0       -2.607952    0.802145   -0.716506
      6          6           0       -2.585638    2.059633   -0.105953
      7          1           0       -2.972364    3.191644    1.689962
      8          1           0       -3.743643    1.213157    2.984625
      9          1           0       -3.788682   -1.046725    1.902503
     10          1           0       -2.298152    0.656479   -1.744233
     11          1           0       -2.248251    2.921917   -0.674005
     12          7           0       -3.073384   -1.623506   -0.600238
     13          8           0       -2.705222   -1.701602   -1.770279
     14          8           0       -3.462989   -2.567490    0.083677
     15          6           0        1.353516    1.414274   -1.445470
     16          6           0        1.091286    0.075871   -1.134934
     17          6           0        2.018909   -0.680203   -0.412149
     18          6           0        3.203842   -0.063269   -0.013882
     19          6           0        3.494039    1.268139   -0.307868
     20          6           0        2.551942    2.005095   -1.031676
     21          1           0        0.627295    1.994185   -2.007345
     22          1           0        0.161413   -0.385584   -1.454997
     23          1           0        1.841428   -1.718182   -0.158145
     24          1           0        4.429840    1.700577    0.024836
     25          1           0        2.758269    3.044325   -1.271418
     26          7           0        4.193536   -0.853570    0.751839
     27          8           0        5.229986   -0.286780    1.091189
     28          8           0        3.914068   -2.024835    0.998164
 ---------------------------------------------------------------------

 SCF Done:  E(RHF) =  -868.337655536     A.U. after   16 cycles
 E2 =    -0.2601336520D+01 EUMP2 =    -0.87093899205609D+03

 The electronic state is 1-A.
 Alpha  occ. eigenvalues --  -20.61753 -20.61708 -20.60731 -20.60716 -15.86749
 Alpha  occ. eigenvalues --  -15.85777 -11.32058 -11.31183 -11.28715 -11.28540
 Alpha  occ. eigenvalues --  -11.28289 -11.27771 -11.27672 -11.27669 -11.27588
 Alpha  occ. eigenvalues --  -11.27524 -11.26857 -11.26687  -1.60787  -1.59801
 Alpha  occ. eigenvalues --   -1.40346  -1.39352  -1.20216  -1.19358  -1.09608
 Alpha  occ. eigenvalues --   -1.08773  -1.05621  -1.04748  -0.96460  -0.95599
 Alpha  occ. eigenvalues --   -0.87025  -0.86161  -0.83299  -0.82411  -0.78380
 Alpha  occ. eigenvalues --   -0.77431  -0.72961  -0.72110  -0.71996  -0.71324
 Alpha  occ. eigenvalues --   -0.71124  -0.70530  -0.65870  -0.65641  -0.65016
 Alpha  occ. eigenvalues --   -0.64756  -0.62984  -0.62060  -0.56082  -0.55349
 Alpha  occ. eigenvalues --   -0.53962  -0.53717  -0.53071  -0.52812  -0.49741
 Alpha  occ. eigenvalues --   -0.49708  -0.48760  -0.48747  -0.45740  -0.44748
 Alpha  occ. eigenvalues --   -0.38159  -0.37606  -0.37020  -0.36279
 Alpha virt. eigenvalues --    0.04123   0.05077   0.10269   0.11379   0.15607
 Alpha virt. eigenvalues --    0.16570   0.19100   0.22008   0.25338   0.26458
 Alpha virt. eigenvalues --    0.27698   0.29444   0.29940   0.31494   0.31953

 Mulliken charges:
               1
     1  C   -0.169290
     2  C   -0.217187
     3  C   -0.169242
     4  C    0.159618
     5  C   -0.176462
     6  C   -0.215772
     7  H    0.228635
     8  H    0.227609
     9  H    0.278882
    10  H    0.268878
    11  H    0.220289
    12  N    0.487771
    13  O   -0.465773
    14  O   -0.452808
    15  C   -0.171558
    16  C   -0.222863
    17  C   -0.172498
    18  C    0.159002
    19  C   -0.171915
    20  C   -0.218660
    21  H    0.215571
    22  H    0.233749
    23  H    0.279986
    24  H    0.275021
    25  H    0.220956
    26  N    0.487779
    27  O   -0.461399
    28  O   -0.458320
 Sum of Mulliken charges =  -0.00000

 Dipole moment (field-independent basis, Debye):
    X=             -3.6251    Y=              7.3504    Z=             -0.1751  Tot=              8.1976
 Quadrupole moment (field-independent basis, Debye-Ang):
   XX=           -125.8805   YY=           -104.4973   ZZ=           -101.9094
   XY=             -1.8861   XZ=            -17.7143   YZ=             -1.8180

 Normal termination of Gaussian 16 at Thu May  6 14:45:04 2021.
