 Gaussian 16, Revision A.03,
 Gaussian 16:  EM64L-G16RevA.03 25-Dec-2016

 -------------
 #p 6-31g* mp2
 -------------

 ------------------------------------------------------
 Input file generated by CHIRIPA (05-May-2021 14:51:09)
 ------------------------------------------------------
 Symbolic Z-matrix:
 Charge =  0 Multiplicity = 1

                         Standard orientation:
 ---------------------------------------------------------------------
 Center     Atomic      Atomic             Coordinates (Angstroms)
 Number     Number       Type             X           Y           Z
 ---------------------------------------------------------------------
      1          6           0        3.793074    0.259655   -0.540320
      2          6           0        4.612774   -0.806673    0.187021
      3          6           0        5.610171   -1.513860   -0.731064
      4          1           0        3.255917   -0.207377   -1.377152
      5          1           0        4.475561    0.999536   -0.980981
      6          1           0        3.928882   -1.543568    0.627354
      7          1           0        5.147891   -0.337083    1.022335
      8          1           0        6.315394   -0.794844   -1.160339
      9          1           0        5.089458   -2.008184   -1.557565
     10          1           0        6.185465   -2.272049   -0.190651
     11          6           0        2.791527    0.975459    0.364255
     12          6           0        1.971828    2.041787   -0.363086
     13          6           0        0.974430    2.748974    0.554999
     14          1           0        2.109040    0.235578    0.804916
     15          1           0        3.328684    1.442491    1.201087
     16          1           0        1.436710    1.572197   -1.198401
     17          1           0        2.655720    2.778682   -0.803419
     18          1           0        1.495143    3.243298    1.381500
     19          1           0        0.269207    2.029958    0.984274
     20          1           0        0.399136    3.507163    0.014586
     21          6           0       -3.850256   -0.102882    0.173044
     22          6           0       -5.069275   -0.379029   -0.707706
     23          6           0       -6.176965    0.659210   -0.526396
     24          1           0       -4.164086   -0.079444    1.225614
     25          1           0       -3.458237    0.897151   -0.058581
     26          1           0       -5.458046   -1.378798   -0.475467
     27          1           0       -4.752472   -0.402003   -1.758291
     28          1           0       -5.811530    1.660246   -0.777368
     29          1           0       -6.521113    0.677900    0.512744
     30          1           0       -7.038754    0.442581   -1.165344
     31          6           0       -2.734345   -1.132232    0.003021
     32          6           0       -1.515327   -0.856085    0.883772
     33          6           0       -0.407636   -1.894324    0.702461
     34          1           0       -3.126365   -2.132265    0.234646
     35          1           0       -2.420514   -1.155670   -1.049549
     36          1           0       -1.832128   -0.833112    1.934356
     37          1           0       -1.126555    0.143683    0.651532
     38          1           0       -0.063489   -1.913013   -0.336679
     39          1           0       -0.773072   -2.895359    0.953433
     40          1           0        0.454152   -1.677695    1.341410
 ---------------------------------------------------------------------

 SCF Done:  E(RHF) =  -470.733054680     A.U. after   11 cycles
 E2 =    -0.1583623067D+01 EUMP2 =    -0.47231667774699D+03

 The electronic state is 1-A.
 Alpha  occ. eigenvalues --  -11.21667 -11.21622 -11.21602 -11.21577 -11.21446
 Alpha  occ. eigenvalues --  -11.21382 -11.21373 -11.21311 -11.21172 -11.21083
 Alpha  occ. eigenvalues --  -11.21059 -11.21049  -1.08482  -1.08404  -1.03596
 Alpha  occ. eigenvalues --   -1.03505  -0.96034  -0.95965  -0.87065  -0.86967
 Alpha  occ. eigenvalues --   -0.79666  -0.79564  -0.78297  -0.78217  -0.65222
 Alpha  occ. eigenvalues --   -0.64955  -0.61146  -0.60767  -0.59419  -0.59308
 Alpha  occ. eigenvalues --   -0.57642  -0.57578  -0.55315  -0.55282  -0.52747
 Alpha  occ. eigenvalues --   -0.52658  -0.52502  -0.52352  -0.50087  -0.49828
 Alpha  occ. eigenvalues --   -0.48003  -0.47849  -0.46778  -0.46504  -0.45847
 Alpha  occ. eigenvalues --   -0.45789  -0.45730  -0.45569  -0.43821  -0.43764
 Alpha virt. eigenvalues --    0.19967   0.23116   0.23669   0.24610   0.25941
 Alpha virt. eigenvalues --    0.26430   0.26659   0.27313   0.28742   0.29448
 Alpha virt. eigenvalues --    0.30413   0.31274   0.31685   0.31820   0.32297

 Mulliken charges:
               1
     1  C   -0.297753
     2  C   -0.300091
     3  C   -0.475665
     4  H    0.149457
     5  H    0.149348
     6  H    0.152374
     7  H    0.151770
     8  H    0.155064
     9  H    0.155232
    10  H    0.160217
    11  C   -0.304590
    12  C   -0.299087
    13  C   -0.482284
    14  H    0.156435
    15  H    0.149327
    16  H    0.151176
    17  H    0.152074
    18  H    0.155575
    19  H    0.161022
    20  H    0.159810
    21  C   -0.298563
    22  C   -0.299700
    23  C   -0.475755
    24  H    0.149805
    25  H    0.149947
    26  H    0.151953
    27  H    0.151947
    28  H    0.155344
    29  H    0.155252
    30  H    0.160305
    31  C   -0.297541
    32  C   -0.308690
    33  C   -0.478259
    34  H    0.149771
    35  H    0.149537
    36  H    0.152425
    37  H    0.159743
    38  H    0.154949
    39  H    0.156045
    40  H    0.162075
 Sum of Mulliken charges =  -0.00000

 Dipole moment (field-independent basis, Debye):
    X=             -0.0282    Y=             -0.0156    Z=              0.0131  Tot=              0.0347
 Quadrupole moment (field-independent basis, Debye-Ang):
   XX=            -85.5058   YY=            -84.8182   ZZ=            -84.4562
   XY=              1.7703   XZ=              0.2881   YZ=             -0.6044

 Normal termination of Gaussian 16 at Wed May  5 16:37:16 2021.
