 Gaussian 16, Revision A.03,
 Gaussian 16:  EM64L-G16RevA.03 25-Dec-2016

 -------------
 #p 6-31g* mp2
 -------------

 ------------------------------------------------------
 Input file generated by CHIRIPA (05-May-2021 14:51:12)
 ------------------------------------------------------
 Symbolic Z-matrix:
 Charge =  0 Multiplicity = 1

                         Standard orientation:
 ---------------------------------------------------------------------
 Center     Atomic      Atomic             Coordinates (Angstroms)
 Number     Number       Type             X           Y           Z
 ---------------------------------------------------------------------
      1          6           0       -2.333976   -0.615773    0.524898
      2          6           0       -1.572813   -1.939845    0.451080
      3          6           0       -0.254628   -1.907886    1.225136
      4          1           0       -1.696489    0.188647    0.133155
      5          1           0       -2.531938   -0.372881    1.578088
      6          1           0       -1.377558   -2.180860   -0.601727
      7          1           0       -2.212257   -2.741237    0.842868
      8          1           0       -0.434375   -1.691932    2.283274
      9          1           0        0.405067   -1.128371    0.830471
     10          1           0        0.273075   -2.864449    1.158984
     11          6           0       -3.653879   -0.632073   -0.244075
     12          6           0       -4.415043    0.691999   -0.170257
     13          6           0       -5.733227    0.660039   -0.944313
     14          1           0       -3.455917   -0.874966   -1.297265
     15          1           0       -4.291366   -1.436493    0.147669
     16          1           0       -3.775598    1.493391   -0.562045
     17          1           0       -4.610298    0.933013    0.882550
     18          1           0       -6.392922   -0.119476   -0.549648
     19          1           0       -5.553481    0.444086   -2.002451
     20          1           0       -6.260931    1.616602   -0.878161
     21          6           0        3.551789    0.208552   -0.456150
     22          6           0        3.398533   -1.293920   -0.217247
     23          6           0        4.522172   -2.111546   -0.854992
     24          1           0        3.578636    0.400572   -1.537516
     25          1           0        4.520062    0.539532   -0.055784
     26          1           0        2.430236   -1.621710   -0.616709
     27          1           0        3.371856   -1.482366    0.863676
     28          1           0        5.494104   -1.812796   -0.449164
     29          1           0        4.547134   -1.952932   -1.937960
     30          1           0        4.392859   -3.182816   -0.671906
     31          6           0        2.436067    1.039294    0.175326
     32          6           0        2.589322    2.541766   -0.063576
     33          6           0        1.465684    3.359393    0.574169
     34          1           0        1.467793    0.708314   -0.225039
     35          1           0        2.409220    0.847275    1.256693
     36          1           0        2.616000    2.730212   -1.144499
     37          1           0        3.557619    2.869556    0.335885
     38          1           0        1.440721    3.200778    1.657137
     39          1           0        0.493751    3.060643    0.168341
     40          1           0        1.594997    4.430662    0.391082
 ---------------------------------------------------------------------

 SCF Done:  E(RHF) =  -470.732400964     A.U. after   11 cycles
 E2 =    -0.1583991818D+01 EUMP2 =    -0.47231639278190D+03

 The electronic state is 1-A.
 Alpha  occ. eigenvalues --  -11.21640 -11.21594 -11.21555 -11.21547 -11.21446
 Alpha  occ. eigenvalues --  -11.21391 -11.21378 -11.21331 -11.21101 -11.21065
 Alpha  occ. eigenvalues --  -11.21054 -11.20869  -1.08477  -1.08394  -1.03547
 Alpha  occ. eigenvalues --   -1.03482  -0.96008  -0.95927  -0.87017  -0.86951
 Alpha  occ. eigenvalues --   -0.79639  -0.79552  -0.78364  -0.78130  -0.65173
 Alpha  occ. eigenvalues --   -0.64971  -0.60959  -0.60878  -0.59407  -0.59267
 Alpha  occ. eigenvalues --   -0.57708  -0.57458  -0.55318  -0.55212  -0.52729
 Alpha  occ. eigenvalues --   -0.52620  -0.52443  -0.52304  -0.49942  -0.49924
 Alpha  occ. eigenvalues --   -0.47957  -0.47872  -0.46772  -0.46641  -0.45966
 Alpha  occ. eigenvalues --   -0.45772  -0.45703  -0.45187  -0.43805  -0.43734
 Alpha virt. eigenvalues --    0.20906   0.23270   0.23704   0.23988   0.25934
 Alpha virt. eigenvalues --    0.26206   0.27205   0.27321   0.28110   0.29851
 Alpha virt. eigenvalues --    0.30878   0.31260   0.31638   0.31789   0.32283

 Mulliken charges:
               1
     1  C   -0.299097
     2  C   -0.299912
     3  C   -0.485079
     4  H    0.149207
     5  H    0.149914
     6  H    0.150624
     7  H    0.151667
     8  H    0.153741
     9  H    0.168334
    10  H    0.159523
    11  C   -0.298235
    12  C   -0.299540
    13  C   -0.475690
    14  H    0.149202
    15  H    0.149823
    16  H    0.151627
    17  H    0.152097
    18  H    0.155202
    19  H    0.155065
    20  H    0.160272
    21  C   -0.298024
    22  C   -0.302460
    23  C   -0.475629
    24  H    0.149224
    25  H    0.149644
    26  H    0.155341
    27  H    0.153328
    28  H    0.154973
    29  H    0.154800
    30  H    0.160241
    31  C   -0.303129
    32  C   -0.298938
    33  C   -0.475872
    34  H    0.151194
    35  H    0.151413
    36  H    0.151821
    37  H    0.152284
    38  H    0.155702
    39  H    0.154900
    40  H    0.160442
 Sum of Mulliken charges =  -0.00000

 Dipole moment (field-independent basis, Debye):
    X=              0.0454    Y=              0.0240    Z=              0.0137  Tot=              0.0532
 Quadrupole moment (field-independent basis, Debye-Ang):
   XX=            -85.7754   YY=            -85.2949   ZZ=            -83.7661
   XY=              0.8590   XZ=             -0.0948   YZ=             -0.3933

 Normal termination of Gaussian 16 at Thu May  6 00:44:26 2021.
