 Gaussian 16, Revision A.03,
 Gaussian 16:  EM64L-G16RevA.03 25-Dec-2016

 -------------
 #p 6-31g* mp2
 -------------

 ------------------------------------------------------
 Input file generated by CHIRIPA (05-May-2021 14:51:13)
 ------------------------------------------------------
 Symbolic Z-matrix:
 Charge =  0 Multiplicity = 1

                         Standard orientation:
 ---------------------------------------------------------------------
 Center     Atomic      Atomic             Coordinates (Angstroms)
 Number     Number       Type             X           Y           Z
 ---------------------------------------------------------------------
      1          6           0       -3.694375    0.321197   -0.351106
      2          6           0       -4.665644   -0.362664    0.611679
      3          6           0       -5.809240   -1.076224   -0.109995
      4          1           0       -4.247014    1.042567   -0.968487
      5          1           0       -3.282758   -0.429231   -1.040180
      6          1           0       -5.074256    0.388593    1.299623
      7          1           0       -4.110595   -1.082352    1.226972
      8          1           0       -5.418938   -1.846178   -0.783372
      9          1           0       -6.388075   -0.366876   -0.710308
     10          1           0       -6.491547   -1.558151    0.597157
     11          6           0       -2.545653    1.038867    0.355375
     12          6           0       -1.574383    1.722728   -0.607409
     13          6           0       -0.430787    2.436288    0.114265
     14          1           0       -2.957270    1.789295    1.044450
     15          1           0       -1.993013    0.317496    0.972757
     16          1           0       -2.129433    2.442416   -1.222702
     17          1           0       -1.165772    0.971471   -1.295353
     18          1           0        0.148047    1.726939    0.714578
     19          1           0       -0.821089    3.206242    0.787642
     20          1           0        0.251520    2.918215   -0.592887
     21          6           0        2.686231   -1.306284   -0.057554
     22          6           0        1.186665   -1.011470   -0.008853
     23          6           0        0.331979   -2.274306   -0.120873
     24          1           0        2.920715   -1.827421   -0.995839
     25          1           0        2.943534   -1.997723    0.756758
     26          1           0        0.932508   -0.319708   -0.822171
     27          1           0        0.955753   -0.490805    0.929338
     28          1           0        0.556696   -2.965451    0.697920
     29          1           0        0.533320   -2.793381   -1.063541
     30          1           0       -0.736576   -2.040469   -0.083848
     31          6           0        3.553797   -0.053779    0.053284
     32          6           0        5.053363   -0.348595    0.004584
     33          6           0        5.908049    0.914243    0.116602
     34          1           0        3.296493    0.637658   -0.761028
     35          1           0        3.319311    0.467357    0.991570
     36          1           0        5.284274   -0.869259   -0.933608
     37          1           0        5.307519   -1.040357    0.817902
     38          1           0        5.706708    1.433317    1.059271
     39          1           0        5.683331    1.605387   -0.702191
     40          1           0        6.976604    0.680405    0.079579
 ---------------------------------------------------------------------

 SCF Done:  E(RHF) =  -470.732206330     A.U. after   11 cycles
 E2 =    -0.1584702755D+01 EUMP2 =    -0.47231690908472D+03

 The electronic state is 1-A.
 Alpha  occ. eigenvalues --  -11.21647 -11.21618 -11.21595 -11.21531 -11.21438
 Alpha  occ. eigenvalues --  -11.21385 -11.21376 -11.21321 -11.21160 -11.21076
 Alpha  occ. eigenvalues --  -11.21062 -11.20909  -1.08500  -1.08378  -1.03627
 Alpha  occ. eigenvalues --   -1.03441  -0.96025  -0.95936  -0.87057  -0.86935
 Alpha  occ. eigenvalues --   -0.79669  -0.79549  -0.78308  -0.78211  -0.65131
 Alpha  occ. eigenvalues --   -0.65051  -0.61047  -0.60916  -0.59328  -0.59292
 Alpha  occ. eigenvalues --   -0.57605  -0.57549  -0.55318  -0.55261  -0.52727
 Alpha  occ. eigenvalues --   -0.52620  -0.52481  -0.52324  -0.50013  -0.49872
 Alpha  occ. eigenvalues --   -0.48084  -0.47699  -0.46949  -0.46422  -0.45911
 Alpha  occ. eigenvalues --   -0.45846  -0.45592  -0.45436  -0.43825  -0.43744
 Alpha virt. eigenvalues --    0.19744   0.22810   0.23733   0.24900   0.25090
 Alpha virt. eigenvalues --    0.26216   0.26499   0.27579   0.29051   0.29454
 Alpha virt. eigenvalues --    0.30345   0.30855   0.31717   0.31923   0.32527

 Mulliken charges:
               1
     1  C   -0.299505
     2  C   -0.299719
     3  C   -0.475690
     4  H    0.149858
     5  H    0.149895
     6  H    0.152011
     7  H    0.151744
     8  H    0.155254
     9  H    0.155169
    10  H    0.160259
    11  C   -0.300867
    12  C   -0.301704
    13  C   -0.480043
    14  H    0.149628
    15  H    0.151777
    16  H    0.151728
    17  H    0.153666
    18  H    0.161879
    19  H    0.153974
    20  H    0.158854
    21  C   -0.297848
    22  C   -0.305681
    23  C   -0.479003
    24  H    0.149649
    25  H    0.149407
    26  H    0.157944
    27  H    0.153539
    28  H    0.155630
    29  H    0.155536
    30  H    0.162115
    31  C   -0.298790
    32  C   -0.299639
    33  C   -0.475707
    34  H    0.150083
    35  H    0.149813
    36  H    0.151945
    37  H    0.151920
    38  H    0.155380
    39  H    0.155275
    40  H    0.160263
 Sum of Mulliken charges =  -0.00000

 Dipole moment (field-independent basis, Debye):
    X=              0.0404    Y=             -0.0208    Z=              0.0016  Tot=              0.0455
 Quadrupole moment (field-independent basis, Debye-Ang):
   XX=            -85.8363   YY=            -85.1713   ZZ=            -83.8696
   XY=             -1.5589   XZ=             -0.4053   YZ=             -0.3206

 Normal termination of Gaussian 16 at Thu May  6 02:23:17 2021.
