 Gaussian 16, Revision A.03,
 Gaussian 16:  EM64L-G16RevA.03 25-Dec-2016

 -------------
 #p 6-31g* mp2
 -------------

 ------------------------------------------------------
 Input file generated by CHIRIPA (05-May-2021 14:55:25)
 ------------------------------------------------------
 Symbolic Z-matrix:
 Charge =  0 Multiplicity = 1

                         Standard orientation:
 ---------------------------------------------------------------------
 Center     Atomic      Atomic             Coordinates (Angstroms)
 Number     Number       Type             X           Y           Z
 ---------------------------------------------------------------------
      1          6           0       -1.555869    1.275153   -0.487490
      2          6           0       -2.693427    2.088998   -0.475632
      3          6           0       -3.953312    1.544409   -0.209814
      4          6           0       -4.039517    0.175855    0.041022
      5          6           0       -2.924739   -0.661126    0.036293
      6          6           0       -1.674946   -0.094896   -0.231940
      7          1           0       -0.581080    1.706609   -0.694922
      8          1           0       -2.603950    3.153324   -0.673746
      9          1           0       -4.850381    2.151407   -0.194382
     10          1           0       -3.045544   -1.718650    0.237462
     11          1           0       -0.793225   -0.729356   -0.240494
     12          7           0       -5.367959   -0.412133    0.323711
     13          8           0       -5.417220   -1.620743    0.541592
     14          8           0       -6.334777    0.346746    0.322048
     15          6           0        5.272165    0.239334    0.309352
     16          6           0        6.767453    0.219969   -0.009589
     17          6           0        7.517714    1.403588    0.601924
     18          1           0        4.837722    1.179517   -0.057064
     19          1           0        5.136876    0.236562    1.399804
     20          1           0        6.899861    0.221381   -1.099123
     21          1           0        7.198350   -0.720360    0.357458
     22          1           0        7.415241    1.403042    1.691923
     23          1           0        7.115055    2.350134    0.227067
     24          1           0        8.584914    1.369953    0.361481
     25          6           0        4.508504   -0.937607   -0.295098
     26          6           0        3.013217   -0.918241    0.023844
     27          6           0        2.262955   -2.101860   -0.587669
     28          1           0        4.643793   -0.934833   -1.385549
     29          1           0        4.942948   -1.877789    0.071318
     30          1           0        2.582320    0.022088   -0.343204
     31          1           0        2.880808   -0.919652    1.113377
     32          1           0        2.665614   -3.048405   -0.212812
     33          1           0        2.365429   -2.101314   -1.677669
     34          1           0        1.195754   -2.068224   -0.347226
 ---------------------------------------------------------------------

 SCF Done:  E(RHF) =  -669.535480996     A.U. after   15 cycles
 E2 =    -0.2090857470D+01 EUMP2 =    -0.67162633846555D+03

 The electronic state is 1-A.
 Alpha  occ. eigenvalues --  -20.60730 -20.60725 -15.85783 -11.31145 -11.27715
 Alpha  occ. eigenvalues --  -11.27707 -11.27455 -11.26733 -11.26702 -11.22627
 Alpha  occ. eigenvalues --  -11.22193 -11.22173 -11.22147 -11.22036 -11.21542
 Alpha  occ. eigenvalues --   -1.59806  -1.39359  -1.19317  -1.09191  -1.08712
 Alpha  occ. eigenvalues --   -1.04721  -1.04311  -0.96756  -0.95548  -0.87773
 Alpha  occ. eigenvalues --   -0.86119  -0.82382  -0.80382  -0.78971  -0.77432
 Alpha  occ. eigenvalues --   -0.72002  -0.71129  -0.70426  -0.65816  -0.64969
 Alpha  occ. eigenvalues --   -0.64760  -0.62116  -0.61692  -0.60145  -0.58361
 Alpha  occ. eigenvalues --   -0.56017  -0.55226  -0.53538  -0.53228  -0.53049
 Alpha  occ. eigenvalues --   -0.52683  -0.50676  -0.48774  -0.48757  -0.48678
 Alpha  occ. eigenvalues --   -0.47408  -0.46520  -0.46418  -0.44766  -0.44560
 Alpha  occ. eigenvalues --   -0.37298  -0.36323
 Alpha virt. eigenvalues --    0.05106   0.11330   0.16601   0.19083   0.22459
 Alpha virt. eigenvalues --    0.23720   0.25449   0.25774   0.26498   0.28007
 Alpha virt. eigenvalues --    0.28672   0.29611   0.30848   0.31529   0.32100

 Mulliken charges:
               1
     1  C   -0.173678
     2  C   -0.218508
     3  C   -0.171232
     4  C    0.158882
     5  C   -0.173698
     6  C   -0.226323
     7  H    0.226091
     8  H    0.223185
     9  H    0.275428
    10  H    0.275910
    11  H    0.235865
    12  N    0.488080
    13  O   -0.460437
    14  O   -0.460663
    15  C   -0.298586
    16  C   -0.300259
    17  C   -0.476060
    18  H    0.148192
    19  H    0.150820
    20  H    0.152617
    21  H    0.153402
    22  H    0.155995
    23  H    0.154968
    24  H    0.162042
    25  C   -0.298856
    26  C   -0.300062
    27  C   -0.480435
    28  H    0.150977
    29  H    0.152724
    30  H    0.144717
    31  H    0.154912
    32  H    0.162123
    33  H    0.159069
    34  H    0.152799
 Sum of Mulliken charges =  -0.00000

 Dipole moment (field-independent basis, Debye):
    X=              4.9372    Y=              2.0270    Z=             -0.9895  Tot=              5.4280
 Quadrupole moment (field-independent basis, Debye-Ang):
   XX=           -131.6930   YY=            -90.2184   ZZ=            -95.0767
   XY=            -10.6662   XZ=              4.4019   YZ=             -1.3973

 Normal termination of Gaussian 16 at Thu May  6 01:37:01 2021.
