 Gaussian 16, Revision A.03,
 Gaussian 16:  EM64L-G16RevA.03 25-Dec-2016

 -------------
 #p 6-31g* mp2
 -------------

 ------------------------------------------------------
 Input file generated by CHIRIPA (05-May-2021 14:57:26)
 ------------------------------------------------------
 Symbolic Z-matrix:
 Charge =  0 Multiplicity = 1

                         Standard orientation:
 ---------------------------------------------------------------------
 Center     Atomic      Atomic             Coordinates (Angstroms)
 Number     Number       Type             X           Y           Z
 ---------------------------------------------------------------------
      1          6           0       -6.022611    1.526476    0.195581
      2          6           0       -6.155125    0.338874   -0.531443
      3          6           0       -5.061776   -0.515839   -0.700567
      4          6           0       -3.845192   -0.150247   -0.126498
      5          6           0       -3.681512    1.026134    0.603315
      6          6           0       -4.788404    1.865717    0.759645
      7          1           0       -6.877211    2.184561    0.321992
      8          1           0       -7.112416    0.072862   -0.970619
      9          1           0       -5.136434   -1.441289   -1.258586
     10          1           0       -2.714482    1.264412    1.029337
     11          1           0       -4.682564    2.787390    1.324767
     12          7           0       -2.680544   -1.047085   -0.298770
     13          8           0       -1.619500   -0.702292    0.216924
     14          8           0       -2.850790   -2.077838   -0.946228
     15          6           0        2.400970   -1.118350    1.657818
     16          6           0        3.498908   -0.423886    2.176251
     17          6           0        4.411868    0.200926    1.321462
     18          6           0        4.195319    0.110792   -0.052682
     19          6           0        3.111101   -0.573703   -0.599703
     20          6           0        2.210906   -1.190913    0.273937
     21          1           0        1.696719   -1.600767    2.329161
     22          1           0        3.649030   -0.365883    3.250563
     23          1           0        5.270401    0.745102    1.695908
     24          1           0        2.987946   -0.614139   -1.675163
     25          1           0        1.359129   -1.729557   -0.131505
     26          7           0        5.155072    0.768229   -0.967587
     27          8           0        4.941926    0.674143   -2.174382
     28          8           0        6.102298    1.365165   -0.460570
 ---------------------------------------------------------------------

 SCF Done:  E(RHF) =  -868.340313567     A.U. after   16 cycles
 E2 =    -0.2598257886D+01 EUMP2 =    -0.87093857145343D+03

 The electronic state is 1-A.
 Alpha  occ. eigenvalues --  -20.61684 -20.61668 -20.60033 -20.60023 -15.86695
 Alpha  occ. eigenvalues --  -15.85072 -11.31791 -11.30230 -11.28330 -11.28320
 Alpha  occ. eigenvalues --  -11.28017 -11.27280 -11.27270 -11.26803 -11.26659
 Alpha  occ. eigenvalues --  -11.26370 -11.25804 -11.25476  -1.60742  -1.59110
 Alpha  occ. eigenvalues --   -1.40300  -1.38669  -1.19938  -1.18350  -1.09385
 Alpha  occ. eigenvalues --   -1.07771  -1.05299  -1.03700  -0.96265  -0.94653
 Alpha  occ. eigenvalues --   -0.86710  -0.85094  -0.83105  -0.81483  -0.78182
 Alpha  occ. eigenvalues --   -0.76569  -0.72935  -0.72037  -0.71295  -0.71041
 Alpha  occ. eigenvalues --   -0.70431  -0.69439  -0.65594  -0.65299  -0.63984
 Alpha  occ. eigenvalues --   -0.63648  -0.62648  -0.61035  -0.55809  -0.54180
 Alpha  occ. eigenvalues --   -0.53643  -0.53386  -0.52067  -0.51760  -0.49696
 Alpha  occ. eigenvalues --   -0.49664  -0.48064  -0.48027  -0.45762  -0.44122
 Alpha  occ. eigenvalues --   -0.37901  -0.36890  -0.36310  -0.35298
 Alpha virt. eigenvalues --    0.04333   0.05923   0.10769   0.12352   0.15885
 Alpha virt. eigenvalues --    0.17499   0.20941   0.22596   0.26870   0.27800
 Alpha virt. eigenvalues --    0.28598   0.29349   0.30538   0.32004   0.32242

 Mulliken charges:
               1
     1  C   -0.169754
     2  C   -0.218544
     3  C   -0.170353
     4  C    0.157625
     5  C   -0.170657
     6  C   -0.218484
     7  H    0.227818
     8  H    0.225396
     9  H    0.276314
    10  H    0.275460
    11  H    0.225366
    12  N    0.489766
    13  O   -0.468884
    14  O   -0.458909
    15  C   -0.172287
    16  C   -0.219609
    17  C   -0.173909
    18  C    0.157834
    19  C   -0.174592
    20  C   -0.217257
    21  H    0.227241
    22  H    0.218708
    23  H    0.271388
    24  H    0.274138
    25  H    0.244130
    26  N    0.488082
    27  O   -0.462072
    28  O   -0.463955
 Sum of Mulliken charges =  -0.00000

 Dipole moment (field-independent basis, Debye):
    X=             -8.0722    Y=              0.7617    Z=              3.7782  Tot=              8.9451
 Quadrupole moment (field-independent basis, Debye-Ang):
   XX=           -100.1539   YY=           -104.6995   ZZ=           -101.9126
   XY=            -19.4060   XZ=             15.9337   YZ=              3.4825

 Normal termination of Gaussian 16 at Thu May  6 09:53:50 2021.
