 Gaussian 16, Revision A.03,
 Gaussian 16:  EM64L-G16RevA.03 25-Dec-2016

 -------------
 #p 6-31g* mp2
 -------------

 ------------------------------------------------------
 Input file generated by CHIRIPA (05-May-2021 14:57:21)
 ------------------------------------------------------
 Symbolic Z-matrix:
 Charge =  0 Multiplicity = 1

                         Standard orientation:
 ---------------------------------------------------------------------
 Center     Atomic      Atomic             Coordinates (Angstroms)
 Number     Number       Type             X           Y           Z
 ---------------------------------------------------------------------
      1          6           0       -6.284938    0.375655    0.559466
      2          6           0       -5.939736   -0.134134   -0.696508
      3          6           0       -4.612146   -0.459221   -0.990399
      4          6           0       -3.651000   -0.260934   -0.000364
      5          6           0       -3.963511    0.245179    1.260380
      6          6           0       -5.297465    0.563354    1.532187
      7          1           0       -7.318714    0.625506    0.779189
      8          1           0       -6.704522   -0.280947   -1.453868
      9          1           0       -4.317176   -0.855473   -1.954450
     10          1           0       -3.179014    0.380538    1.994996
     11          1           0       -5.562647    0.959097    2.508461
     12          7           0       -2.242171   -0.601430   -0.299803
     13          8           0       -1.414075   -0.417460    0.589607
     14          8           0       -1.992703   -1.045833   -1.418243
     15          6           0        2.373513    2.117872   -0.702449
     16          6           0        3.646062    2.376465   -0.182574
     17          6           0        4.491012    1.324291    0.182854
     18          6           0        4.029141    0.019869    0.014187
     19          6           0        2.766683   -0.270052   -0.501014
     20          6           0        1.938651    0.797766   -0.859732
     21          1           0        1.723706    2.941301   -0.983716
     22          1           0        3.986426    3.400674   -0.059320
     23          1           0        5.480952    1.496006    0.587762
     24          1           0        2.455268   -1.301590   -0.612223
     25          1           0        0.950873    0.593953   -1.263218
     26          7           0        4.914697   -1.102300    0.397498
     27          8           0        4.484252   -2.242586    0.239060
     28          8           0        6.022472   -0.820324    0.849117
 ---------------------------------------------------------------------

 SCF Done:  E(RHF) =  -868.340229455     A.U. after   16 cycles
 E2 =    -0.2598704070D+01 EUMP2 =    -0.87093893352564D+03

 The electronic state is 1-A.
 Alpha  occ. eigenvalues --  -20.61762 -20.61754 -20.59806 -20.59788 -15.86757
 Alpha  occ. eigenvalues --  -15.84841 -11.31858 -11.30017 -11.28391 -11.28384
 Alpha  occ. eigenvalues --  -11.28082 -11.27341 -11.27331 -11.26620 -11.26406
 Alpha  occ. eigenvalues --  -11.26280 -11.25664 -11.25319  -1.60825  -1.58878
 Alpha  occ. eigenvalues --   -1.40375  -1.38435  -1.20005  -1.18157  -1.09452
 Alpha  occ. eigenvalues --   -1.07607  -1.05362  -1.03495  -0.96328  -0.94475
 Alpha  occ. eigenvalues --   -0.86772  -0.84924  -0.83162  -0.81284  -0.78245
 Alpha  occ. eigenvalues --   -0.76346  -0.72970  -0.72126  -0.71103  -0.71068
 Alpha  occ. eigenvalues --   -0.70196  -0.69305  -0.65655  -0.65360  -0.63803
 Alpha  occ. eigenvalues --   -0.63481  -0.62708  -0.60829  -0.55872  -0.54079
 Alpha  occ. eigenvalues --   -0.53710  -0.53446  -0.51883  -0.51584  -0.49755
 Alpha  occ. eigenvalues --   -0.49710  -0.47830  -0.47804  -0.45832  -0.43882
 Alpha  occ. eigenvalues --   -0.37970  -0.36953  -0.36175  -0.35072
 Alpha virt. eigenvalues --    0.04241   0.06134   0.10706   0.12552   0.15799
 Alpha virt. eigenvalues --    0.17676   0.20889   0.22679   0.26822   0.27748
 Alpha virt. eigenvalues --    0.28727   0.29428   0.30489   0.31978   0.32221

 Mulliken charges:
               1
     1  C   -0.169737
     2  C   -0.218648
     3  C   -0.170693
     4  C    0.157823
     5  C   -0.170833
     6  C   -0.218677
     7  H    0.227933
     8  H    0.225486
     9  H    0.276197
    10  H    0.276843
    11  H    0.225641
    12  N    0.487252
    13  O   -0.460907
    14  O   -0.463890
    15  C   -0.173429
    16  C   -0.218853
    17  C   -0.173869
    18  C    0.157259
    19  C   -0.170877
    20  C   -0.215492
    21  H    0.220345
    22  H    0.217816
    23  H    0.271083
    24  H    0.280036
    25  H    0.239561
    26  N    0.488048
    27  O   -0.460461
    28  O   -0.464956
 Sum of Mulliken charges =  -0.00000

 Dipole moment (field-independent basis, Debye):
    X=             -8.7012    Y=              5.0191    Z=             -0.2965  Tot=             10.0494
 Quadrupole moment (field-independent basis, Debye-Ang):
   XX=            -92.2669   YY=           -104.3681   ZZ=           -101.0352
   XY=             15.2971   XZ=             -7.1776   YZ=              2.4533

 Normal termination of Gaussian 16 at Thu May  6 03:19:21 2021.
