 Gaussian 16, Revision A.03,
 Gaussian 16:  EM64L-G16RevA.03 25-Dec-2016

 -------------
 #p 6-31g* mp2
 -------------

 ------------------------------------------------------
 Input file generated by CHIRIPA (05-May-2021 14:55:24)
 ------------------------------------------------------
 Symbolic Z-matrix:
 Charge =  0 Multiplicity = 1

                         Standard orientation:
 ---------------------------------------------------------------------
 Center     Atomic      Atomic             Coordinates (Angstroms)
 Number     Number       Type             X           Y           Z
 ---------------------------------------------------------------------
      1          6           0       -4.015263   -2.389261    0.238787
      2          6           0       -2.873929   -1.918681   -0.418810
      3          6           0       -2.641030   -0.545710   -0.542325
      4          6           0       -3.574493    0.332475    0.006062
      5          6           0       -4.721093   -0.105452    0.666984
      6          6           0       -4.933583   -1.482743    0.778633
      7          1           0       -4.188258   -3.457496    0.330127
      8          1           0       -2.159037   -2.620383   -0.839035
      9          1           0       -1.765796   -0.154117   -1.046347
     10          1           0       -5.415685    0.618405    1.075629
     11          1           0       -5.820833   -1.845341    1.289862
     12          7           0       -3.338735    1.788265   -0.118417
     13          8           0       -4.176354    2.541377    0.373371
     14          8           0       -2.320795    2.148636   -0.705415
     15          6           0        4.062365   -0.425417   -0.449412
     16          6           0        2.667775    0.003727    0.007689
     17          6           0        1.552564   -0.618607   -0.833025
     18          1           0        4.197395   -0.147517   -1.503681
     19          1           0        4.134833   -1.520865   -0.403171
     20          1           0        2.598417    1.098127   -0.038084
     21          1           0        2.536119   -0.275056    1.061047
     22          1           0        1.593254   -1.711310   -0.778750
     23          1           0        1.655906   -0.330325   -1.884127
     24          1           0        0.564133   -0.298414   -0.489021
     25          6           0        5.187807    0.188506    0.381374
     26          6           0        6.582396   -0.240640   -0.075727
     27          6           0        7.697607    0.381695    0.764987
     28          1           0        5.115338    1.283953    0.335132
     29          1           0        5.052776   -0.089395    1.435643
     30          1           0        6.714052    0.038144   -1.129084
     31          1           0        6.651753   -1.335039   -0.029954
     32          1           0        7.594265    0.093413    1.816088
     33          1           0        7.656918    1.474397    0.710713
     34          1           0        8.686039    0.061502    0.420983
 ---------------------------------------------------------------------

 SCF Done:  E(RHF) =  -669.535600478     A.U. after   15 cycles
 E2 =    -0.2090934478D+01 EUMP2 =    -0.67162653495607D+03

 The electronic state is 1-A.
 Alpha  occ. eigenvalues --  -20.60756 -20.60751 -15.85808 -11.31165 -11.27739
 Alpha  occ. eigenvalues --  -11.27703 -11.27480 -11.26760 -11.26738 -11.21693
 Alpha  occ. eigenvalues --  -11.21611 -11.21459 -11.21424 -11.21373 -11.21056
 Alpha  occ. eigenvalues --   -1.59831  -1.39385  -1.19340  -1.08738  -1.08485
 Alpha  occ. eigenvalues --   -1.04742  -1.03618  -0.96098  -0.95572  -0.87127
 Alpha  occ. eigenvalues --   -0.86139  -0.82402  -0.79684  -0.78284  -0.77451
 Alpha  occ. eigenvalues --   -0.72027  -0.71154  -0.70458  -0.65109  -0.64992
 Alpha  occ. eigenvalues --   -0.64752  -0.62131  -0.61007  -0.59450  -0.57689
 Alpha  occ. eigenvalues --   -0.55378  -0.55250  -0.53120  -0.52990  -0.52638
 Alpha  occ. eigenvalues --   -0.52464  -0.50028  -0.48785  -0.48782  -0.47997
 Alpha  occ. eigenvalues --   -0.46692  -0.45835  -0.45743  -0.44792  -0.43875
 Alpha  occ. eigenvalues --   -0.37324  -0.36337
 Alpha virt. eigenvalues --    0.05050   0.11262   0.16562   0.20852   0.22870
 Alpha virt. eigenvalues --    0.24093   0.26198   0.26598   0.27409   0.27932
 Alpha virt. eigenvalues --    0.28917   0.30263   0.31447   0.31539   0.31977

 Mulliken charges:
               1
     1  C   -0.170895
     2  C   -0.219924
     3  C   -0.176736
     4  C    0.159008
     5  C   -0.170877
     6  C   -0.218475
     7  H    0.225498
     8  H    0.224493
     9  H    0.282619
    10  H    0.275492
    11  H    0.223363
    12  N    0.487711
    13  O   -0.460407
    14  O   -0.460786
    15  C   -0.298989
    16  C   -0.298787
    17  C   -0.482170
    18  H    0.150484
    19  H    0.147647
    20  H    0.159150
    21  H    0.152167
    22  H    0.150275
    23  H    0.158213
    24  H    0.160063
    25  C   -0.298636
    26  C   -0.299684
    27  C   -0.475805
    28  H    0.151694
    29  H    0.149601
    30  H    0.152296
    31  H    0.151021
    32  H    0.155075
    33  H    0.156154
    34  H    0.160146
 Sum of Mulliken charges =  -0.00000

 Dipole moment (field-independent basis, Debye):
    X=             -0.7610    Y=             -5.0738    Z=              0.4509  Tot=              5.1503
 Quadrupole moment (field-independent basis, Debye-Ang):
   XX=            -86.0022   YY=            -98.1676   ZZ=            -94.0869
   XY=             17.3583   XZ=             -4.5570   YZ=             -0.1251

 Normal termination of Gaussian 16 at Thu May  6 19:20:29 2021.
