 Gaussian 16, Revision A.03,
 Gaussian 16:  EM64L-G16RevA.03 25-Dec-2016

 -------------
 #p 6-31g* mp2
 -------------

 ------------------------------------------------------
 Input file generated by CHIRIPA (05-May-2021 14:57:26)
 ------------------------------------------------------
 Symbolic Z-matrix:
 Charge =  0 Multiplicity = 1

                         Standard orientation:
 ---------------------------------------------------------------------
 Center     Atomic      Atomic             Coordinates (Angstroms)
 Number     Number       Type             X           Y           Z
 ---------------------------------------------------------------------
      1          6           0       -0.999097   -0.654057    0.547041
      2          6           0       -1.402260   -0.155741   -0.696206
      3          6           0       -2.756116    0.061747   -0.968822
      4          6           0       -3.684140   -0.231269    0.029277
      5          6           0       -3.313795   -0.728727    1.277745
      6          6           0       -1.954467   -0.938458    1.528318
      7          1           0        0.054737   -0.819994    0.750254
      8          1           0       -0.662511    0.066022   -1.460168
      9          1           0       -3.095882    0.446668   -1.922663
     10          1           0       -4.074442   -0.940377    2.019391
     11          1           0       -1.644263   -1.325547    2.494745
     12          7           0       -5.120304   -0.005130   -0.247661
     13          8           0       -5.918284   -0.271226    0.648474
     14          8           0       -5.420796    0.433931   -1.355618
     15          6           0        4.863035   -1.793707   -0.405317
     16          6           0        4.935496   -1.079918    0.795423
     17          6           0        4.155748    0.064146    0.989480
     18          6           0        3.310589    0.467910   -0.042978
     19          6           0        3.216126   -0.221945   -1.250648
     20          6           0        4.005094   -1.363201   -1.422727
     21          1           0        5.472344   -2.681353   -0.547528
     22          1           0        5.600893   -1.411927    1.587295
     23          1           0        4.192195    0.635542    1.909044
     24          1           0        2.543439    0.133538   -2.021715
     25          1           0        3.946761   -1.915569   -2.356286
     26          7           0        2.480224    1.677593    0.150826
     27          8           0        1.743562    2.012609   -0.774231
     28          8           0        2.581769    2.267821    1.224119
 ---------------------------------------------------------------------

 SCF Done:  E(RHF) =  -868.338339829     A.U. after   16 cycles
 E2 =    -0.2600194516D+01 EUMP2 =    -0.87093853434440D+03

 The electronic state is 1-A.
 Alpha  occ. eigenvalues --  -20.61873 -20.61843 -20.60326 -20.60319 -15.86896
 Alpha  occ. eigenvalues --  -15.85374 -11.32267 -11.30663 -11.28835 -11.28761
 Alpha  occ. eigenvalues --  -11.28459 -11.27772 -11.27742 -11.27229 -11.27174
 Alpha  occ. eigenvalues --  -11.26965 -11.26266 -11.26156  -1.60928  -1.59401
 Alpha  occ. eigenvalues --   -1.40482  -1.38957  -1.20408  -1.18818  -1.09788
 Alpha  occ. eigenvalues --   -1.08235  -1.05785  -1.04205  -0.96627  -0.95089
 Alpha  occ. eigenvalues --   -0.87180  -0.85612  -0.83446  -0.81920  -0.78520
 Alpha  occ. eigenvalues --   -0.76970  -0.73098  -0.72286  -0.71596  -0.71467
 Alpha  occ. eigenvalues --   -0.70720  -0.69953  -0.66037  -0.65755  -0.64477
 Alpha  occ. eigenvalues --   -0.64205  -0.63124  -0.61555  -0.56240  -0.54780
 Alpha  occ. eigenvalues --   -0.54107  -0.53853  -0.52534  -0.52303  -0.49869
 Alpha  occ. eigenvalues --   -0.49848  -0.48355  -0.48348  -0.45867  -0.44379
 Alpha  occ. eigenvalues --   -0.38369  -0.37395  -0.36791  -0.35785
 Alpha virt. eigenvalues --    0.03963   0.05552   0.10212   0.11862   0.15481
 Alpha virt. eigenvalues --    0.17071   0.20141   0.21664   0.25620   0.26871
 Alpha virt. eigenvalues --    0.28000   0.28437   0.30059   0.30726   0.32267

 Mulliken charges:
               1
     1  C   -0.170338
     2  C   -0.212452
     3  C   -0.171791
     4  C    0.158782
     5  C   -0.171832
     6  C   -0.217719
     7  H    0.219506
     8  H    0.227079
     9  H    0.274899
    10  H    0.273791
    11  H    0.220992
    12  N    0.488135
    13  O   -0.461976
    14  O   -0.461046
    15  C   -0.170488
    16  C   -0.218216
    17  C   -0.172719
    18  C    0.154054
    19  C   -0.176738
    20  C   -0.217603
    21  H    0.229494
    22  H    0.227054
    23  H    0.278035
    24  H    0.273678
    25  H    0.226910
    26  N    0.487822
    27  O   -0.462638
    28  O   -0.454675
 Sum of Mulliken charges =  -0.00000

 Dipole moment (field-independent basis, Debye):
    X=              8.3519    Y=             -5.0168    Z=              0.2925  Tot=              9.7473
 Quadrupole moment (field-independent basis, Debye-Ang):
   XX=           -122.2141   YY=           -109.0961   ZZ=            -96.4207
   XY=            -10.9546   XZ=             -4.8330   YZ=             -1.3139

 Normal termination of Gaussian 16 at Thu May  6 08:20:50 2021.
