 Gaussian 16, Revision A.03,
 Gaussian 16:  EM64L-G16RevA.03 25-Dec-2016

 -------------
 #p 6-31g* mp2
 -------------

 ------------------------------------------------------
 Input file generated by CHIRIPA (05-May-2021 14:53:14)
 ------------------------------------------------------
 Symbolic Z-matrix:
 Charge =  0 Multiplicity = 1

                         Standard orientation:
 ---------------------------------------------------------------------
 Center     Atomic      Atomic             Coordinates (Angstroms)
 Number     Number       Type             X           Y           Z
 ---------------------------------------------------------------------
      1          6           0       -5.139637    0.128210    0.108459
      2          6           0       -6.250267   -0.921935    0.149462
      3          6           0       -7.620294   -0.321378    0.465930
      4          1           0       -5.099238    0.647896    1.075536
      5          1           0       -5.390700    0.888103   -0.644485
      6          1           0       -5.996514   -1.680367    0.901131
      7          1           0       -6.287900   -1.439313   -0.817761
      8          1           0       -7.899147    0.421013   -0.288853
      9          1           0       -7.606106    0.178590    1.439804
     10          1           0       -8.399466   -1.089596    0.490281
     11          6           0       -3.764087   -0.456792   -0.206764
     12          6           0       -2.653457    0.593352   -0.247767
     13          6           0       -1.283430   -0.007204   -0.564235
     14          1           0       -3.513024   -1.216686    0.546180
     15          1           0       -3.804486   -0.976479   -1.173841
     16          1           0       -2.615824    1.110731    0.719456
     17          1           0       -2.907210    1.351785   -0.999436
     18          1           0       -1.297618   -0.507172   -1.538109
     19          1           0       -1.004577   -0.749596    0.190548
     20          1           0       -0.504258    0.761014   -0.588586
     21          6           0        4.829336   -1.997535    0.181451
     22          6           0        4.253592   -1.614538   -1.034424
     23          6           0        3.502855   -0.438664   -1.125342
     24          6           0        3.347377    0.333875    0.024571
     25          6           0        3.908509   -0.020952    1.250344
     26          6           0        4.655264   -1.200925    1.317951
     27          1           0        5.410980   -2.912573    0.243024
     28          1           0        4.387117   -2.231241   -1.918671
     29          1           0        3.046107   -0.118548   -2.053955
     30          1           0        3.757906    0.614413    2.114663
     31          1           0        5.101239   -1.495889    2.263544
     32          7           0        2.554714    1.580889   -0.059341
     33          8           0        2.432508    2.244102    0.968206
     34          8           0        2.070638    1.871473   -1.151068
 ---------------------------------------------------------------------

 SCF Done:  E(RHF) =  -669.536296462     A.U. after   15 cycles
 E2 =    -0.2090969256D+01 EUMP2 =    -0.67162726571736D+03

 The electronic state is 1-A.
 Alpha  occ. eigenvalues --  -20.60912 -20.60906 -15.85931 -11.31235 -11.27801
 Alpha  occ. eigenvalues --  -11.27794 -11.27541 -11.26807 -11.26796 -11.21278
 Alpha  occ. eigenvalues --  -11.20962 -11.20911 -11.20848 -11.20789 -11.20245
 Alpha  occ. eigenvalues --   -1.59970  -1.39525  -1.19404  -1.08813  -1.07946
 Alpha  occ. eigenvalues --   -1.04799  -1.03009  -0.95659  -0.95462  -0.86487
 Alpha  occ. eigenvalues --   -0.86201  -0.82494  -0.79090  -0.77753  -0.77548
 Alpha  occ. eigenvalues --   -0.72156  -0.71287  -0.70517  -0.65062  -0.64805
 Alpha  occ. eigenvalues --   -0.64583  -0.62148  -0.60415  -0.58824  -0.57050
 Alpha  occ. eigenvalues --   -0.55310  -0.54770  -0.53132  -0.52893  -0.52131
 Alpha  occ. eigenvalues --   -0.51890  -0.49434  -0.48923  -0.48911  -0.47400
 Alpha  occ. eigenvalues --   -0.46136  -0.45296  -0.45222  -0.44943  -0.43207
 Alpha  occ. eigenvalues --   -0.37382  -0.36398
 Alpha virt. eigenvalues --    0.04955   0.11253   0.16436   0.21376   0.23325
 Alpha virt. eigenvalues --    0.24855   0.27101   0.27292   0.27969   0.28102
 Alpha virt. eigenvalues --    0.28626   0.30851   0.31859   0.32235   0.32392

 Mulliken charges:
               1
     1  C   -0.297987
     2  C   -0.299140
     3  C   -0.475454
     4  H    0.149807
     5  H    0.149829
     6  H    0.150704
     7  H    0.150947
     8  H    0.155233
     9  H    0.155100
    10  H    0.158869
    11  C   -0.297661
    12  C   -0.298420
    13  C   -0.485781
    14  H    0.147007
    15  H    0.147555
    16  H    0.153492
    17  H    0.153829
    18  H    0.150012
    19  H    0.147776
    20  H    0.179529
    21  C   -0.170522
    22  C   -0.218640
    23  C   -0.170010
    24  C    0.158998
    25  C   -0.170811
    26  C   -0.218686
    27  H    0.225780
    28  H    0.223689
    29  H    0.276104
    30  H    0.275598
    31  H    0.223551
    32  N    0.487623
    33  O   -0.458820
    34  O   -0.459103
 Sum of Mulliken charges =  -0.00000

 Dipole moment (field-independent basis, Debye):
    X=              2.9871    Y=             -4.2913    Z=              0.2911  Tot=              5.2367
 Quadrupole moment (field-independent basis, Debye-Ang):
   XX=            -78.2141   YY=            -98.2906   ZZ=            -89.0919
   XY=            -13.9100   XZ=              2.4432   YZ=              0.7372

 Normal termination of Gaussian 16 at Wed May  5 17:05:04 2021.
