 Gaussian 16, Revision A.03,
 Gaussian 16:  EM64L-G16RevA.03 25-Dec-2016

 -------------
 #p 6-31g* mp2
 -------------

 ------------------------------------------------------
 Input file generated by CHIRIPA (05-May-2021 14:57:26)
 ------------------------------------------------------
 Symbolic Z-matrix:
 Charge =  0 Multiplicity = 1

                         Standard orientation:
 ---------------------------------------------------------------------
 Center     Atomic      Atomic             Coordinates (Angstroms)
 Number     Number       Type             X           Y           Z
 ---------------------------------------------------------------------
      1          6           0       -5.694144   -1.108272    0.707606
      2          6           0       -5.214891   -0.101032    1.551589
      3          6           0       -4.101716    0.661666    1.185966
      4          6           0       -3.489345    0.388977   -0.036300
      5          6           0       -3.943118   -0.607715   -0.898845
      6          6           0       -5.057849   -1.357958   -0.512765
      7          1           0       -6.559490   -1.695916    0.999576
      8          1           0       -5.707050    0.095090    2.499935
      9          1           0       -3.709767    1.447477    1.820233
     10          1           0       -3.431474   -0.779908   -1.837987
     11          1           0       -5.427849   -2.139561   -1.170217
     12          7           0       -2.310052    1.189819   -0.434196
     13          8           0       -1.788312    0.929899   -1.516262
     14          8           0       -1.929793    2.062274    0.343532
     15          6           0        6.013564    0.313935    0.752855
     16          6           0        5.185152    1.313744    0.232629
     17          6           0        3.892408    1.008881   -0.203744
     18          6           0        3.458465   -0.312184   -0.104892
     19          6           0        4.260055   -1.330485    0.408728
     20          6           0        5.549191   -1.002668    0.839092
     21          1           0        7.016397    0.559675    1.089505
     22          1           0        5.543134    2.337095    0.164460
     23          1           0        3.230098    1.763341   -0.610626
     24          1           0        3.875208   -2.341547    0.464079
     25          1           0        6.190348   -1.781183    1.242671
     26          7           0        2.091804   -0.647079   -0.563680
     27          8           0        1.733132   -1.818591   -0.465952
     28          8           0        1.405167    0.268284   -1.012319
 ---------------------------------------------------------------------

 SCF Done:  E(RHF) =  -868.335799064     A.U. after   16 cycles
 E2 =    -0.2600165652D+01 EUMP2 =    -0.87093596471595D+03

 The electronic state is 1-A.
 Alpha  occ. eigenvalues --  -20.59864 -20.59742 -20.59570 -20.59421 -15.84851
 Alpha  occ. eigenvalues --  -15.84553 -11.30471 -11.30238 -11.27113 -11.27027
 Alpha  occ. eigenvalues --  -11.26891 -11.26882 -11.26815 -11.26681 -11.26181
 Alpha  occ. eigenvalues --  -11.26131 -11.25973 -11.25930  -1.58890  -1.58548
 Alpha  occ. eigenvalues --   -1.38429  -1.38100  -1.18678  -1.18446  -1.08033
 Alpha  occ. eigenvalues --   -1.07786  -1.04116  -1.03902  -0.94821  -0.94564
 Alpha  occ. eigenvalues --   -0.85503  -0.85287  -0.81643  -0.81401  -0.76647
 Alpha  occ. eigenvalues --   -0.76392  -0.71111  -0.70729  -0.70242  -0.69848
 Alpha  occ. eigenvalues --   -0.69785  -0.69569  -0.64322  -0.64129  -0.64097
 Alpha  occ. eigenvalues --   -0.63919  -0.61455  -0.61248  -0.54625  -0.54412
 Alpha  occ. eigenvalues --   -0.52439  -0.52218  -0.52203  -0.52007  -0.47945
 Alpha  occ. eigenvalues --   -0.47833  -0.47536  -0.47413  -0.43785  -0.43394
 Alpha  occ. eigenvalues --   -0.36685  -0.36449  -0.35732  -0.35517
 Alpha virt. eigenvalues --    0.05883   0.06173   0.11917   0.12133   0.17324
 Alpha virt. eigenvalues --    0.17591   0.22013   0.22185   0.27909   0.28070
 Alpha virt. eigenvalues --    0.28947   0.29116   0.31539   0.31698   0.33250

 Mulliken charges:
               1
     1  C   -0.171974
     2  C   -0.218697
     3  C   -0.171812
     4  C    0.160496
     5  C   -0.168899
     6  C   -0.218634
     7  H    0.222180
     8  H    0.219800
     9  H    0.272994
    10  H    0.278156
    11  H    0.221290
    12  N    0.488870
    13  O   -0.445270
    14  O   -0.468286
    15  C   -0.171739
    16  C   -0.218915
    17  C   -0.170897
    18  C    0.158355
    19  C   -0.171893
    20  C   -0.218818
    21  H    0.223081
    22  H    0.222452
    23  H    0.281087
    24  H    0.273287
    25  H    0.220567
    26  N    0.485982
    27  O   -0.469416
    28  O   -0.443349
 Sum of Mulliken charges =  -0.00000

 Dipole moment (field-independent basis, Debye):
    X=              0.6946    Y=             -1.4976    Z=              2.7481  Tot=              3.2058
 Quadrupole moment (field-independent basis, Debye-Ang):
   XX=            -46.2982   YY=           -102.8859   ZZ=           -102.2865
   XY=             10.4671   XZ=              0.5230   YZ=              1.0420

 Normal termination of Gaussian 16 at Thu May  6 09:58:02 2021.
