 Gaussian 16, Revision A.03,
 Gaussian 16:  EM64L-G16RevA.03 25-Dec-2016

 -------------
 #p 6-31g* mp2
 -------------

 ------------------------------------------------------
 Input file generated by CHIRIPA (05-May-2021 14:53:13)
 ------------------------------------------------------
 Symbolic Z-matrix:
 Charge =  0 Multiplicity = 1

                         Standard orientation:
 ---------------------------------------------------------------------
 Center     Atomic      Atomic             Coordinates (Angstroms)
 Number     Number       Type             X           Y           Z
 ---------------------------------------------------------------------
      1          6           0       -3.826637    0.385880    0.014789
      2          6           0       -3.377169    1.839834   -0.133474
      3          6           0       -1.860118    1.979286   -0.263495
      4          1           0       -3.339713   -0.053721    0.896039
      5          1           0       -3.477809   -0.188882   -0.854327
      6          1           0       -3.727929    2.411980    0.734992
      7          1           0       -3.865367    2.276082   -1.014363
      8          1           0       -1.496766    1.433098   -1.139996
      9          1           0       -1.358547    1.569769    0.619298
     10          1           0       -1.560774    3.026783   -0.368387
     11          6           0       -5.340675    0.230184    0.145835
     12          6           0       -5.790143   -1.223770    0.294098
     13          6           0       -7.307193   -1.363222    0.424119
     14          1           0       -5.689503    0.804946    1.014952
     15          1           0       -5.827599    0.669785   -0.735415
     16          1           0       -5.301945   -1.660018    1.174988
     17          1           0       -5.439383   -1.795917   -0.574367
     18          1           0       -7.808765   -0.953705   -0.458673
     19          1           0       -7.670546   -0.817034    1.300621
     20          1           0       -7.606538   -2.410719    0.529012
     21          6           0        5.985492    0.048107    0.644975
     22          6           0        5.140563    1.160063    0.566417
     23          6           0        3.806497    1.011879    0.175448
     24          6           0        3.348522   -0.268566   -0.131164
     25          6           0        4.165671   -1.395881   -0.062468
     26          6           0        5.496212   -1.224072    0.330836
     27          1           0        7.020459    0.172397    0.949597
     28          1           0        5.517815    2.149251    0.809793
     29          1           0        3.130607    1.855558    0.106183
     30          1           0        3.760849   -2.369342   -0.311288
     31          1           0        6.150114   -2.089430    0.390960
     32          7           0        1.938071   -0.437947   -0.546302
     33          8           0        1.558873   -1.576667   -0.811182
     34          8           0        1.238466    0.571220   -0.598945
 ---------------------------------------------------------------------

 SCF Done:  E(RHF) =  -669.535481137     A.U. after   15 cycles
 E2 =    -0.2090979947D+01 EUMP2 =    -0.67162646108400D+03

 The electronic state is 1-A.
 Alpha  occ. eigenvalues --  -20.60866 -20.60856 -15.85899 -11.31252 -11.27820
 Alpha  occ. eigenvalues --  -11.27815 -11.27563 -11.26834 -11.26824 -11.20830
 Alpha  occ. eigenvalues --  -11.20491 -11.20449 -11.20331 -11.20209 -11.19296
 Alpha  occ. eigenvalues --   -1.59933  -1.39487  -1.19425  -1.08824  -1.07405
 Alpha  occ. eigenvalues --   -1.04825  -1.02448  -0.95665  -0.94863  -0.86225
 Alpha  occ. eigenvalues --   -0.85871  -0.82492  -0.78537  -0.77541  -0.77167
 Alpha  occ. eigenvalues --   -0.72115  -0.71251  -0.70532  -0.65078  -0.64828
 Alpha  occ. eigenvalues --   -0.64049  -0.62171  -0.59854  -0.58313  -0.56476
 Alpha  occ. eigenvalues --   -0.55328  -0.54151  -0.53156  -0.52918  -0.51586
 Alpha  occ. eigenvalues --   -0.51282  -0.48952  -0.48880  -0.48722  -0.46771
 Alpha  occ. eigenvalues --   -0.45596  -0.44918  -0.44648  -0.44615  -0.42720
 Alpha  occ. eigenvalues --   -0.37406  -0.36428
 Alpha virt. eigenvalues --    0.04979   0.11226   0.16465   0.21358   0.23817
 Alpha virt. eigenvalues --    0.25410   0.27275   0.27661   0.28175   0.28499
 Alpha virt. eigenvalues --    0.29215   0.30933   0.32407   0.32542   0.32738

 Mulliken charges:
               1
     1  C   -0.296942
     2  C   -0.301572
     3  C   -0.469665
     4  H    0.149533
     5  H    0.153698
     6  H    0.144965
     7  H    0.146737
     8  H    0.171213
     9  H    0.157103
    10  H    0.148915
    11  C   -0.297487
    12  C   -0.298947
    13  C   -0.475124
    14  H    0.146549
    15  H    0.147527
    16  H    0.151327
    17  H    0.152747
    18  H    0.154043
    19  H    0.153543
    20  H    0.158292
    21  C   -0.170707
    22  C   -0.218560
    23  C   -0.171028
    24  C    0.157551
    25  C   -0.170666
    26  C   -0.218600
    27  H    0.225813
    28  H    0.223706
    29  H    0.276124
    30  H    0.275741
    31  H    0.223634
    32  N    0.491212
    33  O   -0.460057
    34  O   -0.460619
 Sum of Mulliken charges =  -0.00000

 Dipole moment (field-independent basis, Debye):
    X=              5.3164    Y=              0.5091    Z=              1.3930  Tot=              5.5194
 Quadrupole moment (field-independent basis, Debye-Ang):
   XX=            -64.6838   YY=            -90.7926   ZZ=            -94.9693
   XY=             -0.0660   XZ=              4.7206   YZ=              0.1834

 Normal termination of Gaussian 16 at Wed May  5 20:11:03 2021.
