 Gaussian 16, Revision A.03,
 Gaussian 16:  EM64L-G16RevA.03 25-Dec-2016

 -------------
 #p 6-31g* mp2
 -------------

 ------------------------------------------------------
 Input file generated by CHIRIPA (05-May-2021 14:51:13)
 ------------------------------------------------------
 Symbolic Z-matrix:
 Charge =  0 Multiplicity = 1

                         Standard orientation:
 ---------------------------------------------------------------------
 Center     Atomic      Atomic             Coordinates (Angstroms)
 Number     Number       Type             X           Y           Z
 ---------------------------------------------------------------------
      1          6           0        4.338712   -0.397451   -0.317858
      2          6           0        5.263974   -1.426110    0.333091
      3          6           0        6.044318   -2.250914   -0.690900
      4          1           0        3.636515   -0.915719   -0.985137
      5          1           0        4.935489    0.272844   -0.951859
      6          1           0        4.665818   -2.093407    0.966763
      7          1           0        5.963926   -0.905352    0.999045
      8          1           0        6.665197   -1.601265   -1.316252
      9          1           0        5.359714   -2.796070   -1.348718
     10          1           0        6.699437   -2.979952   -0.203886
     11          6           0        3.551801    0.434889    0.692939
     12          6           0        2.626539    1.463548    0.041990
     13          6           0        1.846196    2.288352    1.065981
     14          1           0        2.955025   -0.235406    1.326940
     15          1           0        4.253998    0.953157    1.360219
     16          1           0        1.926587    0.942790   -0.623964
     17          1           0        3.224695    2.130845   -0.591682
     18          1           0        2.530799    2.833508    1.723799
     19          1           0        1.225316    1.638703    1.691333
     20          1           0        1.191076    3.017390    0.578967
     21          6           0       -4.241361   -0.608888    0.196457
     22          6           0       -5.717634   -0.856132   -0.115753
     23          6           0       -6.295727   -2.040032    0.660121
     24          1           0       -3.667178   -1.516423   -0.035148
     25          1           0       -4.126332   -0.432976    1.274982
     26          1           0       -5.830028   -1.030156   -1.193575
     27          1           0       -6.288341    0.052160    0.116441
     28          1           0       -6.212816   -1.871222    1.738653
     29          1           0       -5.751899   -2.959688    0.421194
     30          1           0       -7.352057   -2.198894    0.421811
     31          6           0       -3.649152    0.571451   -0.571538
     32          6           0       -2.172880    0.818694   -0.259328
     33          6           0       -1.594787    2.002594   -1.035202
     34          1           0       -3.764181    0.395538   -1.650063
     35          1           0       -4.223335    1.478985   -0.339933
     36          1           0       -1.602172   -0.089599   -0.491522
     37          1           0       -2.060485    0.992718    0.818493
     38          1           0       -2.138614    2.922250   -0.796275
     39          1           0       -1.677697    1.833784   -2.113734
     40          1           0       -0.538457    2.161455   -0.796892
 ---------------------------------------------------------------------

 SCF Done:  E(RHF) =  -470.733036806     A.U. after   11 cycles
 E2 =    -0.1582774351D+01 EUMP2 =    -0.47231581115779D+03

 The electronic state is 1-A.
 Alpha  occ. eigenvalues --  -11.21625 -11.21609 -11.21601 -11.21591 -11.21417
 Alpha  occ. eigenvalues --  -11.21399 -11.21358 -11.21340 -11.21077 -11.21077
 Alpha  occ. eigenvalues --  -11.21072 -11.20991  -1.08449  -1.08417  -1.03576
 Alpha  occ. eigenvalues --   -1.03489  -0.96052  -0.95912  -0.87061  -0.86935
 Alpha  occ. eigenvalues --   -0.79608  -0.79581  -0.78256  -0.78235  -0.65080
 Alpha  occ. eigenvalues --   -0.65052  -0.60988  -0.60913  -0.59689  -0.59099
 Alpha  occ. eigenvalues --   -0.57791  -0.57359  -0.55277  -0.55242  -0.52932
 Alpha  occ. eigenvalues --   -0.52550  -0.52449  -0.52164  -0.49930  -0.49903
 Alpha  occ. eigenvalues --   -0.47970  -0.47846  -0.46652  -0.46602  -0.45801
 Alpha  occ. eigenvalues --   -0.45774  -0.45728  -0.45692  -0.43882  -0.43669
 Alpha virt. eigenvalues --    0.21196   0.23098   0.23413   0.25347   0.26477
 Alpha virt. eigenvalues --    0.26535   0.27029   0.27415   0.27618   0.29075
 Alpha virt. eigenvalues --    0.30407   0.31091   0.31355   0.31645   0.32323

 Mulliken charges:
               1
     1  C   -0.298333
     2  C   -0.299690
     3  C   -0.475711
     4  H    0.149637
     5  H    0.149592
     6  H    0.151967
     7  H    0.151976
     8  H    0.155211
     9  H    0.155154
    10  H    0.160285
    11  C   -0.298171
    12  C   -0.302801
    13  C   -0.479420
    14  H    0.149784
    15  H    0.149805
    16  H    0.153929
    17  H    0.152242
    18  H    0.156000
    19  H    0.156276
    20  H    0.162144
    21  C   -0.298235
    22  C   -0.299638
    23  C   -0.475698
    24  H    0.149405
    25  H    0.149477
    26  H    0.151920
    27  H    0.151994
    28  H    0.155177
    29  H    0.155101
    30  H    0.160263
    31  C   -0.298280
    32  C   -0.299163
    33  C   -0.484861
    34  H    0.149504
    35  H    0.149764
    36  H    0.150960
    37  H    0.152184
    38  H    0.154607
    39  H    0.154541
    40  H    0.171102
 Sum of Mulliken charges =  -0.00000

 Dipole moment (field-independent basis, Debye):
    X=              0.0253    Y=              0.0092    Z=              0.0112  Tot=              0.0292
 Quadrupole moment (field-independent basis, Debye-Ang):
   XX=            -84.8936   YY=            -85.0393   ZZ=            -84.8471
   XY=              0.3409   XZ=              0.4457   YZ=              0.5138

 Normal termination of Gaussian 16 at Thu May  6 07:09:45 2021.
