 Gaussian 16, Revision A.03,
 Gaussian 16:  EM64L-G16RevA.03 25-Dec-2016

 -------------
 #p 6-31g* mp2
 -------------

 ------------------------------------------------------
 Input file generated by CHIRIPA (05-May-2021 14:55:22)
 ------------------------------------------------------
 Symbolic Z-matrix:
 Charge =  0 Multiplicity = 1

                         Standard orientation:
 ---------------------------------------------------------------------
 Center     Atomic      Atomic             Coordinates (Angstroms)
 Number     Number       Type             X           Y           Z
 ---------------------------------------------------------------------
      1          6           0        3.493208   -0.506833   -1.641232
      2          6           0        3.576942    0.484010   -0.657494
      3          6           0        2.707691    0.472723    0.437413
      4          6           0        1.762508   -0.548814    0.517286
      5          6           0        1.654215   -1.550051   -0.446605
      6          6           0        2.533803   -1.518917   -1.532839
      7          1           0        4.172478   -0.490356   -2.488413
      8          1           0        4.321040    1.271226   -0.739073
      9          1           0        2.750574    1.227416    1.213311
     10          1           0        0.902038   -2.321950   -0.337877
     11          1           0        2.466474   -2.289717   -2.295321
     12          7           0        0.836799   -0.571269    1.671825
     13          8           0        0.012891   -1.482083    1.719055
     14          8           0        0.952664    0.322370    2.507660
     15          6           0       -2.724589    0.049986   -0.717148
     16          6           0       -3.997450   -0.444964   -0.029516
     17          6           0       -4.532062   -1.741762   -0.638038
     18          1           0       -2.928098    0.201477   -1.786063
     19          1           0       -1.954263   -0.730981   -0.653239
     20          1           0       -4.764701    0.337244   -0.093493
     21          1           0       -3.790939   -0.595111    1.037922
     22          1           0       -3.786462   -2.539687   -0.560601
     23          1           0       -4.765758   -1.602036   -1.698446
     24          1           0       -5.442242   -2.077603   -0.131437
     25          6           0       -2.178004    1.345505   -0.119984
     26          6           0       -0.905144    1.840455   -0.807615
     27          6           0       -0.370531    3.137253   -0.199094
     28          1           0       -2.948331    2.126471   -0.183894
     29          1           0       -1.974495    1.194014    0.948930
     30          1           0       -1.111656    1.990602   -1.875054
     31          1           0       -0.137893    1.058247   -0.743638
     32          1           0       -0.136836    2.997526    0.861313
     33          1           0       -1.116131    3.935178   -0.276530
     34          1           0        0.539647    3.473094   -0.705695
 ---------------------------------------------------------------------

 SCF Done:  E(RHF) =  -669.535652878     A.U. after   15 cycles
 E2 =    -0.2095343562D+01 EUMP2 =    -0.67163099643968D+03

 The electronic state is 1-A.
 Alpha  occ. eigenvalues --  -20.61058 -20.61053 -15.86055 -11.31298 -11.27879
 Alpha  occ. eigenvalues --  -11.27862 -11.27612 -11.26889 -11.26878 -11.21167
 Alpha  occ. eigenvalues --  -11.20882 -11.20753 -11.20697 -11.20683 -11.20508
 Alpha  occ. eigenvalues --   -1.60101  -1.39657  -1.19505  -1.08917  -1.07833
 Alpha  occ. eigenvalues --   -1.04880  -1.02996  -0.95760  -0.95447  -0.86475
 Alpha  occ. eigenvalues --   -0.86283  -0.82594  -0.79073  -0.77678  -0.77618
 Alpha  occ. eigenvalues --   -0.72283  -0.71468  -0.70598  -0.65150  -0.64883
 Alpha  occ. eigenvalues --   -0.64414  -0.62229  -0.60409  -0.58843  -0.57070
 Alpha  occ. eigenvalues --   -0.55386  -0.54754  -0.53244  -0.52968  -0.52172
 Alpha  occ. eigenvalues --   -0.51879  -0.49397  -0.49053  -0.49022  -0.47382
 Alpha  occ. eigenvalues --   -0.46087  -0.45319  -0.45142  -0.44827  -0.43231
 Alpha  occ. eigenvalues --   -0.37384  -0.36473
 Alpha virt. eigenvalues --    0.04815   0.11082   0.16293   0.21122   0.23173
 Alpha virt. eigenvalues --    0.24592   0.26438   0.27175   0.28136   0.28295
 Alpha virt. eigenvalues --    0.28609   0.30831   0.31436   0.32205   0.32522

 Mulliken charges:
               1
     1  C   -0.170708
     2  C   -0.217116
     3  C   -0.170154
     4  C    0.154963
     5  C   -0.172355
     6  C   -0.216534
     7  H    0.226326
     8  H    0.224254
     9  H    0.276394
    10  H    0.275849
    11  H    0.224311
    12  N    0.492549
    13  O   -0.460028
    14  O   -0.459894
    15  C   -0.297651
    16  C   -0.300356
    17  C   -0.475623
    18  H    0.143542
    19  H    0.150622
    20  H    0.148787
    21  H    0.162382
    22  H    0.155676
    23  H    0.150895
    24  H    0.159396
    25  C   -0.304550
    26  C   -0.304845
    27  C   -0.480064
    28  H    0.147406
    29  H    0.164221
    30  H    0.148653
    31  H    0.151259
    32  H    0.165203
    33  H    0.155007
    34  H    0.152183
 Sum of Mulliken charges =  -0.00000

 Dipole moment (field-independent basis, Debye):
    X=              3.3937    Y=             -0.0104    Z=             -3.8631  Tot=              5.1421
 Quadrupole moment (field-independent basis, Debye-Ang):
   XX=            -82.8810   YY=            -92.5484   ZZ=            -98.6433
   XY=             -0.4020   XZ=             -5.1288   YZ=              3.6054

 Normal termination of Gaussian 16 at Thu May  6 14:13:21 2021.
