 Gaussian 16, Revision A.03,
 Gaussian 16:  EM64L-G16RevA.03 25-Dec-2016

 -------------
 #p 6-31g* mp2
 -------------

 ------------------------------------------------------
 Input file generated by CHIRIPA (05-May-2021 14:51:10)
 ------------------------------------------------------
 Symbolic Z-matrix:
 Charge =  0 Multiplicity = 1

                         Standard orientation:
 ---------------------------------------------------------------------
 Center     Atomic      Atomic             Coordinates (Angstroms)
 Number     Number       Type             X           Y           Z
 ---------------------------------------------------------------------
      1          6           0       -2.427048   -0.215873    0.316558
      2          6           0       -1.909145   -0.905246    1.579303
      3          6           0       -0.383198   -0.991529    1.622166
      4          1           0       -2.064233   -0.760484   -0.565887
      5          1           0       -1.999920    0.794808    0.257553
      6          1           0       -2.338211   -1.913825    1.636628
      7          1           0       -2.273393   -0.359041    2.458849
      8          1           0        0.060283    0.008910    1.589801
      9          1           0       -0.004904   -1.554708    0.762908
     10          1           0       -0.034588   -1.487851    2.533207
     11          6           0       -3.950735   -0.121997    0.259161
     12          6           0       -4.468638    0.567376   -1.003585
     13          6           0       -5.994584    0.653660   -1.046447
     14          1           0       -4.377862   -1.132678    0.318166
     15          1           0       -4.313549    0.422614    1.141606
     16          1           0       -4.104390    0.021172   -1.883130
     17          1           0       -4.039571    1.575955   -1.060909
     18          1           0       -6.372879    1.216838   -0.187189
     19          1           0       -6.438066   -0.346779   -1.014082
     20          1           0       -6.343194    1.149982   -1.957488
     21          6           0        3.520208   -0.467099   -0.550770
     22          6           0        2.660014   -1.718210   -0.369740
     23          6           0        3.336393   -2.982537   -0.900573
     24          1           0        3.752107   -0.340462   -1.617134
     25          1           0        4.480574   -0.613458   -0.037282
     26          1           0        1.701013   -1.568992   -0.882250
     27          1           0        2.429974   -1.841777    0.696294
     28          1           0        4.284370   -3.158956   -0.382097
     29          1           0        3.551266   -2.884622   -1.969611
     30          1           0        2.704068   -3.864896   -0.761047
     31          6           0        2.857575    0.804969   -0.024948
     32          6           0        3.717769    2.056080   -0.205978
     33          6           0        3.041389    3.320407    0.324854
     34          1           0        1.897208    0.951327   -0.538437
     35          1           0        2.625675    0.678332    1.041415
     36          1           0        3.947808    2.179646   -1.272013
     37          1           0        4.676769    1.906862    0.306531
     38          1           0        2.826516    3.222492    1.393892
     39          1           0        2.093412    3.496826   -0.193621
     40          1           0        3.673715    4.202765    0.185329
 ---------------------------------------------------------------------

 SCF Done:  E(RHF) =  -470.731742104     A.U. after   11 cycles
 E2 =    -0.1583999056D+01 EUMP2 =    -0.47231574116000D+03

 The electronic state is 1-A.
 Alpha  occ. eigenvalues --  -11.21591 -11.21580 -11.21513 -11.21504 -11.21377
 Alpha  occ. eigenvalues --  -11.21363 -11.21317 -11.21303 -11.21075 -11.21062
 Alpha  occ. eigenvalues --  -11.21039 -11.20845  -1.08426  -1.08365  -1.03537
 Alpha  occ. eigenvalues --   -1.03446  -0.95959  -0.95926  -0.87016  -0.86917
 Alpha  occ. eigenvalues --   -0.79743  -0.79446  -0.78335  -0.78039  -0.65048
 Alpha  occ. eigenvalues --   -0.65007  -0.60911  -0.60890  -0.59349  -0.59293
 Alpha  occ. eigenvalues --   -0.57594  -0.57535  -0.55259  -0.55194  -0.52750
 Alpha  occ. eigenvalues --   -0.52606  -0.52405  -0.52300  -0.49926  -0.49886
 Alpha  occ. eigenvalues --   -0.48126  -0.47708  -0.46606  -0.46501  -0.45998
 Alpha  occ. eigenvalues --   -0.45711  -0.45622  -0.45275  -0.43757  -0.43716
 Alpha virt. eigenvalues --    0.22056   0.23089   0.23910   0.24276   0.25537
 Alpha virt. eigenvalues --    0.26330   0.26786   0.27822   0.27859   0.29774
 Alpha virt. eigenvalues --    0.30356   0.30764   0.31777   0.31889   0.32318

 Mulliken charges:
               1
     1  C   -0.298144
     2  C   -0.300366
     3  C   -0.482317
     4  H    0.148583
     5  H    0.149271
     6  H    0.151129
     7  H    0.151008
     8  H    0.158558
     9  H    0.163217
    10  H    0.157462
    11  C   -0.298108
    12  C   -0.299603
    13  C   -0.475675
    14  H    0.149481
    15  H    0.149740
    16  H    0.151690
    17  H    0.151794
    18  H    0.155214
    19  H    0.155169
    20  H    0.160149
    21  C   -0.297899
    22  C   -0.303729
    23  C   -0.475427
    24  H    0.149107
    25  H    0.149151
    26  H    0.152217
    27  H    0.158345
    28  H    0.155053
    29  H    0.154769
    30  H    0.159651
    31  C   -0.300518
    32  C   -0.299377
    33  C   -0.475816
    34  H    0.150318
    35  H    0.152207
    36  H    0.151820
    37  H    0.151791
    38  H    0.154859
    39  H    0.154877
    40  H    0.160347
 Sum of Mulliken charges =  -0.00000

 Dipole moment (field-independent basis, Debye):
    X=              0.0421    Y=             -0.0069    Z=             -0.0011  Tot=              0.0426
 Quadrupole moment (field-independent basis, Debye-Ang):
   XX=            -86.0698   YY=            -85.0284   ZZ=            -83.9536
   XY=              0.4424   XZ=              0.4505   YZ=             -0.0236

 Normal termination of Gaussian 16 at Thu May  6 05:22:47 2021.
