 Gaussian 16, Revision A.03,
 Gaussian 16:  EM64L-G16RevA.03 25-Dec-2016

 -------------
 #p 6-31g* mp2
 -------------

 ------------------------------------------------------
 Input file generated by CHIRIPA (05-May-2021 14:51:12)
 ------------------------------------------------------
 Symbolic Z-matrix:
 Charge =  0 Multiplicity = 1

                         Standard orientation:
 ---------------------------------------------------------------------
 Center     Atomic      Atomic             Coordinates (Angstroms)
 Number     Number       Type             X           Y           Z
 ---------------------------------------------------------------------
      1          6           0        2.782428    1.013122    0.227464
      2          6           0        1.941973    2.285451    0.114334
      3          6           0        2.520210    3.449448    0.919658
      4          1           0        2.860937    0.725979    1.284975
      5          1           0        3.804529    1.225489   -0.115470
      6          1           0        0.921396    2.070390    0.456078
      7          1           0        1.865295    2.569491   -0.943049
      8          1           0        3.530402    3.692402    0.574569
      9          1           0        2.581141    3.190465    1.981645
     10          1           0        1.903767    4.348794    0.824602
     11          6           0        2.217171   -0.159411   -0.572148
     12          6           0        3.057626   -1.431741   -0.459019
     13          6           0        2.479389   -2.595738   -1.264343
     14          1           0        1.195070   -0.371779   -0.229215
     15          1           0        2.138661    0.127731   -1.629659
     16          1           0        3.134304   -1.715781    0.598364
     17          1           0        4.078202   -1.216679   -0.800762
     18          1           0        2.418458   -2.336754   -2.326329
     19          1           0        1.469197   -2.838692   -0.919254
     20          1           0        3.095832   -3.495083   -1.169287
     21          6           0       -2.020225   -0.769710    0.658029
     22          6           0       -1.880950   -2.272591    0.413211
     23          6           0       -0.918184   -2.944385    1.392787
     24          1           0       -1.030406   -0.299074    0.582495
     25          1           0       -2.367613   -0.603561    1.687160
     26          1           0       -1.535254   -2.435905   -0.615592
     27          1           0       -2.871244   -2.739675    0.489148
     28          1           0       -1.262036   -2.810898    2.423587
     29          1           0        0.081546   -2.505403    1.312568
     30          1           0       -0.833608   -4.018371    1.199753
     31          6           0       -2.979373   -0.084000   -0.313344
     32          6           0       -3.118648    1.418881   -0.068527
     33          6           0       -4.081415    2.090675   -1.048102
     34          1           0       -2.631985   -0.250149   -1.342476
     35          1           0       -3.969193   -0.554636   -0.237810
     36          1           0       -2.128355    1.885965   -0.144463
     37          1           0       -3.464345    1.582195    0.960277
     38          1           0       -5.081145    1.651691   -0.967884
     39          1           0       -3.737562    1.957187   -2.078901
     40          1           0       -4.165990    3.164660   -0.855069
 ---------------------------------------------------------------------

 SCF Done:  E(RHF) =  -470.733032408     A.U. after   11 cycles
 E2 =    -0.1584690112D+01 EUMP2 =    -0.47231772252003D+03

 The electronic state is 1-A.
 Alpha  occ. eigenvalues --  -11.21656 -11.21656 -11.21639 -11.21613 -11.21450
 Alpha  occ. eigenvalues --  -11.21433 -11.21391 -11.21371 -11.21133 -11.21100
 Alpha  occ. eigenvalues --  -11.21075 -11.21071  -1.08512  -1.08436  -1.03603
 Alpha  occ. eigenvalues --   -1.03532  -0.96052  -0.95978  -0.87061  -0.87000
 Alpha  occ. eigenvalues --   -0.79658  -0.79601  -0.78412  -0.78179  -0.65403
 Alpha  occ. eigenvalues --   -0.64843  -0.61216  -0.60726  -0.59403  -0.59356
 Alpha  occ. eigenvalues --   -0.57648  -0.57610  -0.55543  -0.55077  -0.52719
 Alpha  occ. eigenvalues --   -0.52692  -0.52483  -0.52392  -0.50093  -0.49811
 Alpha  occ. eigenvalues --   -0.48063  -0.47846  -0.46780  -0.46583  -0.46364
 Alpha  occ. eigenvalues --   -0.45808  -0.45769  -0.45112  -0.43826  -0.43811
 Alpha virt. eigenvalues --    0.19105   0.21741   0.23404   0.24710   0.25433
 Alpha virt. eigenvalues --    0.26638   0.26765   0.27515   0.28465   0.30037
 Alpha virt. eigenvalues --    0.31093   0.31414   0.31526   0.31884   0.31973

 Mulliken charges:
               1
     1  C   -0.297495
     2  C   -0.303548
     3  C   -0.475634
     4  H    0.149800
     5  H    0.149974
     6  H    0.154412
     7  H    0.151974
     8  H    0.155390
     9  H    0.155513
    10  H    0.160461
    11  C   -0.308989
    12  C   -0.299330
    13  C   -0.480833
    14  H    0.158204
    15  H    0.149704
    16  H    0.152060
    17  H    0.152404
    18  H    0.154861
    19  H    0.160658
    20  H    0.160603
    21  C   -0.307107
    22  C   -0.301424
    23  C   -0.479533
    24  H    0.156706
    25  H    0.149770
    26  H    0.153283
    27  H    0.152765
    28  H    0.155600
    29  H    0.157535
    30  H    0.160965
    31  C   -0.297701
    32  C   -0.302033
    33  C   -0.475683
    34  H    0.150077
    35  H    0.149803
    36  H    0.154090
    37  H    0.151800
    38  H    0.155189
    39  H    0.155397
    40  H    0.160310
 Sum of Mulliken charges =  -0.00000

 Dipole moment (field-independent basis, Debye):
    X=             -0.0049    Y=             -0.0016    Z=              0.0007  Tot=              0.0052
 Quadrupole moment (field-independent basis, Debye-Ang):
   XX=            -84.3612   YY=            -85.8807   ZZ=            -84.3843
   XY=              0.4836   XZ=             -1.4965   YZ=             -0.4556

 Normal termination of Gaussian 16 at Wed May  5 19:55:20 2021.
