 Gaussian 16, Revision A.03,
 Gaussian 16:  EM64L-G16RevA.03 25-Dec-2016

 -------------
 #p 6-31g* mp2
 -------------

 ------------------------------------------------------
 Input file generated by CHIRIPA (05-May-2021 14:51:13)
 ------------------------------------------------------
 Symbolic Z-matrix:
 Charge =  0 Multiplicity = 1

                         Standard orientation:
 ---------------------------------------------------------------------
 Center     Atomic      Atomic             Coordinates (Angstroms)
 Number     Number       Type             X           Y           Z
 ---------------------------------------------------------------------
      1          6           0        3.255229    0.429207    0.294016
      2          6           0        4.519321    1.073071   -0.276506
      3          6           0        4.815771    2.440728    0.339469
      4          1           0        2.401977    1.100819    0.127149
      5          1           0        3.363816    0.326335    1.382603
      6          1           0        4.408945    1.173431   -1.363870
      7          1           0        5.369628    0.399763   -0.108432
      8          1           0        4.952355    2.354124    1.422264
      9          1           0        3.986213    3.132188    0.159692
     10          1           0        5.723573    2.882915   -0.082698
     11          6           0        2.945611   -0.938527   -0.311929
     12          6           0        1.681519   -1.582391    0.258593
     13          6           0        1.385069   -2.950049   -0.357382
     14          1           0        2.837023   -0.835656   -1.400516
     15          1           0        3.798862   -1.610139   -0.145062
     16          1           0        0.831211   -0.909083    0.090518
     17          1           0        1.791894   -1.682751    1.345957
     18          1           0        2.214626   -3.641508   -0.177606
     19          1           0        1.248484   -2.863445   -1.440177
     20          1           0        0.477266   -3.392236    0.064785
     21          6           0       -3.204230   -0.413936    0.363406
     22          6           0       -2.513421   -1.584888   -0.336336
     23          6           0       -2.730303   -2.915638    0.384678
     24          1           0       -2.831209   -0.339241    1.394047
     25          1           0       -4.280779   -0.622070    0.434945
     26          1           0       -1.438696   -1.373986   -0.407769
     27          1           0       -2.887989   -1.656685   -1.365490
     28          1           0       -3.797558   -3.152562    0.443299
     29          1           0       -2.340030   -2.868255    1.406462
     30          1           0       -2.227909   -3.739017   -0.132535
     31          6           0       -2.996610    0.923256   -0.345493
     32          6           0       -3.687419    2.094209    0.354248
     33          6           0       -3.470536    3.424960   -0.366764
     34          1           0       -1.920061    1.131392   -0.417032
     35          1           0       -3.369630    0.848561   -1.376135
     36          1           0       -3.312851    2.166006    1.383403
     37          1           0       -4.762144    1.883306    0.425681
     38          1           0       -3.860810    3.377576   -1.388548
     39          1           0       -2.403282    3.661882   -0.425385
     40          1           0       -3.972929    4.248338    0.150448
 ---------------------------------------------------------------------

 SCF Done:  E(RHF) =  -470.732964378     A.U. after   11 cycles
 E2 =    -0.1583576889D+01 EUMP2 =    -0.47231654126724D+03

 The electronic state is 1-A.
 Alpha  occ. eigenvalues --  -11.21641 -11.21626 -11.21612 -11.21549 -11.21438
 Alpha  occ. eigenvalues --  -11.21414 -11.21379 -11.21348 -11.21093 -11.21085
 Alpha  occ. eigenvalues --  -11.21070 -11.21059  -1.08477  -1.08419  -1.03602
 Alpha  occ. eigenvalues --   -1.03488  -0.96047  -0.95942  -0.87046  -0.86974
 Alpha  occ. eigenvalues --   -0.79672  -0.79552  -0.78319  -0.78207  -0.65215
 Alpha  occ. eigenvalues --   -0.64971  -0.61168  -0.60787  -0.59548  -0.59176
 Alpha  occ. eigenvalues --   -0.57739  -0.57439  -0.55332  -0.55218  -0.52814
 Alpha  occ. eigenvalues --   -0.52584  -0.52453  -0.52328  -0.49968  -0.49911
 Alpha  occ. eigenvalues --   -0.48046  -0.47835  -0.46856  -0.46489  -0.45967
 Alpha  occ. eigenvalues --   -0.45779  -0.45762  -0.45423  -0.43860  -0.43727
 Alpha virt. eigenvalues --    0.20562   0.23136   0.23317   0.24880   0.25526
 Alpha virt. eigenvalues --    0.26843   0.26920   0.27319   0.28406   0.29092
 Alpha virt. eigenvalues --    0.30866   0.31264   0.31578   0.31820   0.32442

 Mulliken charges:
               1
     1  C   -0.298287
     2  C   -0.299686
     3  C   -0.475731
     4  H    0.149151
     5  H    0.149546
     6  H    0.152080
     7  H    0.152074
     8  H    0.155187
     9  H    0.155131
    10  H    0.160401
    11  C   -0.297679
    12  C   -0.305015
    13  C   -0.480454
    14  H    0.149745
    15  H    0.149917
    16  H    0.154874
    17  H    0.152016
    18  H    0.155357
    19  H    0.155267
    20  H    0.166149
    21  C   -0.297789
    22  C   -0.309094
    23  C   -0.476932
    24  H    0.149722
    25  H    0.149500
    26  H    0.162357
    27  H    0.151680
    28  H    0.155355
    29  H    0.154923
    30  H    0.161120
    31  C   -0.298448
    32  C   -0.299666
    33  C   -0.475678
    34  H    0.148446
    35  H    0.149737
    36  H    0.152138
    37  H    0.152101
    38  H    0.155159
    39  H    0.154957
    40  H    0.160369
 Sum of Mulliken charges =  -0.00000

 Dipole moment (field-independent basis, Debye):
    X=              0.0108    Y=             -0.0148    Z=              0.0005  Tot=              0.0183
 Quadrupole moment (field-independent basis, Debye-Ang):
   XX=            -83.8864   YY=            -86.6006   ZZ=            -84.2281
   XY=             -0.5437   XZ=              0.7960   YZ=             -0.1701

 Normal termination of Gaussian 16 at Thu May  6 02:22:00 2021.
