 Gaussian 16, Revision A.03,
 Gaussian 16:  EM64L-G16RevA.03 25-Dec-2016

 -------------
 #p 6-31g* mp2
 -------------

 ------------------------------------------------------
 Input file generated by CHIRIPA (05-May-2021 14:53:13)
 ------------------------------------------------------
 Symbolic Z-matrix:
 Charge =  0 Multiplicity = 1

                         Standard orientation:
 ---------------------------------------------------------------------
 Center     Atomic      Atomic             Coordinates (Angstroms)
 Number     Number       Type             X           Y           Z
 ---------------------------------------------------------------------
      1          6           0       -4.003804    0.996004    0.144809
      2          6           0       -2.782745    1.913790    0.076466
      3          6           0       -3.115621    3.366849    0.416473
      4          1           0       -4.773529    1.368397   -0.544968
      5          1           0       -4.436607    1.047630    1.153477
      6          1           0       -2.351556    1.859388   -0.931370
      7          1           0       -2.015764    1.539059    0.766344
      8          1           0       -3.525209    3.441451    1.429031
      9          1           0       -3.862909    3.763601   -0.278329
     10          1           0       -2.228441    4.005400    0.361480
     11          6           0       -3.687023   -0.459870   -0.192545
     12          6           0       -4.908081   -1.377656   -0.124202
     13          6           0       -4.575205   -2.830715   -0.464209
     14          1           0       -3.254219   -0.511496   -1.201213
     15          1           0       -2.917298   -0.832263    0.497231
     16          1           0       -5.675063   -1.002925   -0.814080
     17          1           0       -5.339271   -1.323254    0.883634
     18          1           0       -3.827918   -3.227467    0.230593
     19          1           0       -4.165618   -2.905317   -1.476767
     20          1           0       -5.462386   -3.469266   -0.409216
     21          6           0        0.540128   -0.686133    0.277261
     22          6           0        0.964473    0.532533   -0.262467
     23          6           0        2.327226    0.807433   -0.410399
     24          6           0        3.242449   -0.163341   -0.006355
     25          6           0        2.850949   -1.386915    0.534832
     26          6           0        1.483058   -1.640285    0.673489
     27          1           0       -0.520487   -0.891320    0.388575
     28          1           0        0.234424    1.275402   -0.571041
     29          1           0        2.683344    1.742601   -0.825200
     30          1           0        3.602323   -2.107827    0.833399
     31          1           0        1.156400   -2.587586    1.092968
     32          7           0        4.687854    0.116288   -0.158054
     33          8           0        5.474223   -0.755529    0.205537
     34          8           0        5.007025    1.201981   -0.637674
 ---------------------------------------------------------------------

 SCF Done:  E(RHF) =  -669.535301551     A.U. after   15 cycles
 E2 =    -0.2092538815D+01 EUMP2 =    -0.67162784036583D+03

 The electronic state is 1-A.
 Alpha  occ. eigenvalues --  -20.60676 -20.60671 -15.85728 -11.31065 -11.27635
 Alpha  occ. eigenvalues --  -11.27617 -11.27300 -11.26637 -11.26563 -11.22910
 Alpha  occ. eigenvalues --  -11.22705 -11.22589 -11.22516 -11.22061 -11.21981
 Alpha  occ. eigenvalues --   -1.59752  -1.39307  -1.19228  -1.09615  -1.08620
 Alpha  occ. eigenvalues --   -1.04654  -1.04592  -0.97042  -0.95466  -0.88055
 Alpha  occ. eigenvalues --   -0.86026  -0.82304  -0.80717  -0.79494  -0.77350
 Alpha  occ. eigenvalues --   -0.71946  -0.71075  -0.70340  -0.66228  -0.64874
 Alpha  occ. eigenvalues --   -0.64634  -0.62018  -0.61982  -0.60403  -0.58688
 Alpha  occ. eigenvalues --   -0.56327  -0.55129  -0.53706  -0.53448  -0.52960
 Alpha  occ. eigenvalues --   -0.52717  -0.50972  -0.49017  -0.48704  -0.48672
 Alpha  occ. eigenvalues --   -0.47741  -0.46949  -0.46890  -0.44893  -0.44719
 Alpha  occ. eigenvalues --   -0.37196  -0.36234
 Alpha virt. eigenvalues --    0.05168   0.11354   0.16661   0.19648   0.22396
 Alpha virt. eigenvalues --    0.22776   0.24594   0.25410   0.26535   0.27996
 Alpha virt. eigenvalues --    0.29627   0.30163   0.30758   0.31175   0.31705

 Mulliken charges:
               1
     1  C   -0.297417
     2  C   -0.309467
     3  C   -0.475794
     4  H    0.154795
     5  H    0.153615
     6  H    0.149729
     7  H    0.150406
     8  H    0.159300
     9  H    0.159195
    10  H    0.161713
    11  C   -0.305579
    12  C   -0.299438
    13  C   -0.476521
    14  H    0.151229
    15  H    0.143336
    16  H    0.156097
    17  H    0.154678
    18  H    0.152057
    19  H    0.156893
    20  H    0.164652
    21  C   -0.179439
    22  C   -0.227055
    23  C   -0.171899
    24  C    0.158412
    25  C   -0.171005
    26  C   -0.221270
    27  H    0.237486
    28  H    0.231651
    29  H    0.275199
    30  H    0.275011
    31  H    0.223092
    32  N    0.487975
    33  O   -0.460842
    34  O   -0.460795
 Sum of Mulliken charges =  -0.00000

 Dipole moment (field-independent basis, Debye):
    X=             -5.4735    Y=             -0.9144    Z=              0.5202  Tot=              5.5737
 Quadrupole moment (field-independent basis, Debye-Ang):
   XX=           -126.8010   YY=            -91.2232   ZZ=            -93.8154
   XY=             -3.5853   XZ=              2.5057   YZ=             -2.4220

 Normal termination of Gaussian 16 at Thu May  6 05:46:02 2021.
