 Gaussian 16, Revision A.03,
 Gaussian 16:  EM64L-G16RevA.03 25-Dec-2016

 -------------
 #p 6-31g* mp2
 -------------

 ------------------------------------------------------
 Input file generated by CHIRIPA (05-May-2021 14:53:16)
 ------------------------------------------------------
 Symbolic Z-matrix:
 Charge =  0 Multiplicity = 1

                         Standard orientation:
 ---------------------------------------------------------------------
 Center     Atomic      Atomic             Coordinates (Angstroms)
 Number     Number       Type             X           Y           Z
 ---------------------------------------------------------------------
      1          6           0       -4.002204   -0.030617    0.293973
      2          6           0       -2.799401   -0.890333   -0.096075
      3          6           0       -1.499808   -0.420286    0.558074
      4          1           0       -3.805313    1.013099    0.013194
      5          1           0       -4.114892   -0.044348    1.386908
      6          1           0       -2.689848   -0.876102   -1.188051
      7          1           0       -2.999258   -1.932155    0.185492
      8          1           0       -1.584558   -0.451280    1.649155
      9          1           0       -1.273391    0.610773    0.267808
     10          1           0       -0.652915   -1.048839    0.265582
     11          6           0       -5.308781   -0.488048   -0.352049
     12          6           0       -6.511585    0.371668    0.037999
     13          6           0       -7.811177   -0.098379   -0.616150
     14          1           0       -5.196093   -0.474317   -1.444984
     15          1           0       -5.505672   -1.531763   -0.071270
     16          1           0       -6.311728    1.413490   -0.243568
     17          1           0       -6.621137    0.357438    1.129975
     18          1           0       -8.037595   -1.129438   -0.325884
     19          1           0       -7.726427   -0.067385   -1.707231
     20          1           0       -8.658071    0.530175   -0.323658
     21          6           0        1.929986    2.001982    0.485194
     22          6           0        2.938718    2.220134   -0.458941
     23          6           0        3.889909    1.230233   -0.723294
     24          6           0        3.802142    0.028646   -0.022028
     25          6           0        2.809082   -0.218723    0.924509
     26          6           0        1.868496    0.785395    1.172694
     27          1           0        1.195198    2.776482    0.684270
     28          1           0        2.988924    3.163978   -0.994369
     29          1           0        4.681392    1.372632   -1.449031
     30          1           0        2.784864   -1.169854    1.442371
     31          1           0        1.086209    0.613198    1.906465
     32          7           0        4.803511   -1.026843   -0.293328
     33          8           0        4.704381   -2.076780    0.337894
     34          8           0        5.668552   -0.784211   -1.132059
 ---------------------------------------------------------------------

 SCF Done:  E(RHF) =  -669.535387332     A.U. after   15 cycles
 E2 =    -0.2091554885D+01 EUMP2 =    -0.67162694221664D+03

 The electronic state is 1-A.
 Alpha  occ. eigenvalues --  -20.60737 -20.60732 -15.85789 -11.31150 -11.27701
 Alpha  occ. eigenvalues --  -11.27683 -11.27432 -11.26737 -11.26677 -11.22156
 Alpha  occ. eigenvalues --  -11.21968 -11.21908 -11.21857 -11.21774 -11.21369
 Alpha  occ. eigenvalues --   -1.59812  -1.39366  -1.19312  -1.08908  -1.08708
 Alpha  occ. eigenvalues --   -1.04714  -1.04023  -0.96499  -0.95546  -0.87538
 Alpha  occ. eigenvalues --   -0.86096  -0.82377  -0.80104  -0.78709  -0.77419
 Alpha  occ. eigenvalues --   -0.72007  -0.71135  -0.70419  -0.65535  -0.64962
 Alpha  occ. eigenvalues --   -0.64709  -0.62062  -0.61423  -0.59854  -0.58091
 Alpha  occ. eigenvalues --   -0.55800  -0.55213  -0.53414  -0.52982  -0.52908
 Alpha  occ. eigenvalues --   -0.52636  -0.50442  -0.48768  -0.48763  -0.48407
 Alpha  occ. eigenvalues --   -0.47120  -0.46256  -0.46166  -0.44773  -0.44272
 Alpha  occ. eigenvalues --   -0.37276  -0.36276
 Alpha virt. eigenvalues --    0.05075   0.11297   0.16522   0.20865   0.22454
 Alpha virt. eigenvalues --    0.23887   0.25817   0.26188   0.27088   0.27831
 Alpha virt. eigenvalues --    0.28765   0.29686   0.31153   0.31518   0.31932

 Mulliken charges:
               1
     1  C   -0.298540
     2  C   -0.300816
     3  C   -0.478312
     4  H    0.147747
     5  H    0.149050
     6  H    0.154912
     7  H    0.154721
     8  H    0.149726
     9  H    0.150804
    10  H    0.165194
    11  C   -0.298682
    12  C   -0.299821
    13  C   -0.475956
    14  H    0.150586
    15  H    0.151085
    16  H    0.151367
    17  H    0.151968
    18  H    0.156037
    19  H    0.155779
    20  H    0.160934
    21  C   -0.173275
    22  C   -0.218391
    23  C   -0.171504
    24  C    0.158870
    25  C   -0.174459
    26  C   -0.213255
    27  H    0.225203
    28  H    0.223108
    29  H    0.275307
    30  H    0.275346
    31  H    0.228285
    32  N    0.488062
    33  O   -0.460533
    34  O   -0.460545
 Sum of Mulliken charges =  -0.00000

 Dipole moment (field-independent basis, Debye):
    X=             -3.6429    Y=              3.6844    Z=              0.9213  Tot=              5.2625
 Quadrupole moment (field-independent basis, Debye-Ang):
   XX=           -121.9878   YY=            -92.8868   ZZ=            -92.5562
   XY=             15.6765   XZ=              1.6027   YZ=             -2.9396

 Normal termination of Gaussian 16 at Wed May  5 17:13:31 2021.
