 Gaussian 16, Revision A.03,
 Gaussian 16:  EM64L-G16RevA.03 25-Dec-2016

 -------------
 #p 6-31g* mp2
 -------------

 ------------------------------------------------------
 Input file generated by CHIRIPA (05-May-2021 14:55:23)
 ------------------------------------------------------
 Symbolic Z-matrix:
 Charge =  0 Multiplicity = 1

                         Standard orientation:
 ---------------------------------------------------------------------
 Center     Atomic      Atomic             Coordinates (Angstroms)
 Number     Number       Type             X           Y           Z
 ---------------------------------------------------------------------
      1          6           0       -1.806642    2.541679    0.987069
      2          6           0       -0.834472    2.024145    0.124767
      3          6           0       -1.065854    0.835975   -0.574706
      4          6           0       -2.286053    0.188460   -0.387273
      5          6           0       -3.274429    0.678859    0.464731
      6          6           0       -3.021376    1.868571    1.154005
      7          1           0       -1.618481    3.465276    1.526475
      8          1           0        0.109825    2.544751   -0.006830
      9          1           0       -0.330686    0.413052   -1.248561
     10          1           0       -4.206075    0.137361    0.575340
     11          1           0       -3.778205    2.268160    1.823021
     12          7           0       -2.542478   -1.070218   -1.122375
     13          8           0       -3.625643   -1.621657   -0.939877
     14          8           0       -1.655443   -1.481499   -1.867126
     15          6           0        2.180944   -0.828012    0.391602
     16          6           0        1.990440   -1.658464    1.661264
     17          6           0        0.602888   -2.294725    1.748831
     18          1           0        1.413141   -0.043061    0.355872
     19          1           0        2.014219   -1.468488   -0.485545
     20          1           0        2.158832   -1.016944    2.535742
     21          1           0        2.758904   -2.441411    1.694071
     22          1           0        0.428254   -2.957167    0.894856
     23          1           0       -0.175226   -1.524608    1.741308
     24          1           0        0.488376   -2.883781    2.664124
     25          6           0        3.563161   -0.185506    0.289664
     26          6           0        3.753665    0.644947   -0.979999
     27          6           0        5.141216    1.281207   -1.067565
     28          1           0        3.729885    0.454971    1.166811
     29          1           0        4.330964   -0.970457    0.325393
     30          1           0        2.985201    1.427892   -1.012805
     31          1           0        3.585272    0.003425   -1.854475
     32          1           0        5.919331    0.511090   -1.060043
     33          1           0        5.315851    1.943649   -0.213590
     34          1           0        5.255729    1.870263   -1.982858
 ---------------------------------------------------------------------

 SCF Done:  E(RHF) =  -669.534687999     A.U. after   15 cycles
 E2 =    -0.2094106631D+01 EUMP2 =    -0.67162879462966D+03

 The electronic state is 1-A.
 Alpha  occ. eigenvalues --  -20.60775 -20.60769 -15.85828 -11.31207 -11.27803
 Alpha  occ. eigenvalues --  -11.27756 -11.27549 -11.26805 -11.26796 -11.22061
 Alpha  occ. eigenvalues --  -11.21660 -11.21625 -11.21486 -11.21430 -11.20870
 Alpha  occ. eigenvalues --   -1.59845  -1.39398  -1.19406  -1.08787  -1.08660
 Alpha  occ. eigenvalues --   -1.04815  -1.03700  -0.96132  -0.95619  -0.87149
 Alpha  occ. eigenvalues --   -0.86199  -0.82458  -0.79793  -0.78535  -0.77455
 Alpha  occ. eigenvalues --   -0.72047  -0.71166  -0.70506  -0.65341  -0.65024
 Alpha  occ. eigenvalues --   -0.64805  -0.62156  -0.61105  -0.59518  -0.57746
 Alpha  occ. eigenvalues --   -0.55418  -0.55297  -0.53179  -0.52932  -0.52818
 Alpha  occ. eigenvalues --   -0.52507  -0.50075  -0.48808  -0.48798  -0.48091
 Alpha  occ. eigenvalues --   -0.46838  -0.46015  -0.45900  -0.44782  -0.43961
 Alpha  occ. eigenvalues --   -0.37377  -0.36321
 Alpha virt. eigenvalues --    0.05007   0.11213   0.16366   0.19881   0.22924
 Alpha virt. eigenvalues --    0.24035   0.25137   0.26288   0.27612   0.28109
 Alpha virt. eigenvalues --    0.30133   0.30229   0.31564   0.31663   0.31923

 Mulliken charges:
               1
     1  C   -0.170796
     2  C   -0.220616
     3  C   -0.169667
     4  C    0.157126
     5  C   -0.171439
     6  C   -0.218833
     7  H    0.225881
     8  H    0.224634
     9  H    0.280402
    10  H    0.275991
    11  H    0.223649
    12  N    0.488692
    13  O   -0.460400
    14  O   -0.460459
    15  C   -0.307399
    16  C   -0.298388
    17  C   -0.480185
    18  H    0.146073
    19  H    0.157874
    20  H    0.148994
    21  H    0.153159
    22  H    0.165190
    23  H    0.153271
    24  H    0.159840
    25  C   -0.297509
    26  C   -0.299574
    27  C   -0.475577
    28  H    0.147373
    29  H    0.152660
    30  H    0.140147
    31  H    0.156669
    32  H    0.158161
    33  H    0.154190
    34  H    0.160863
 Sum of Mulliken charges =  -0.00000

 Dipole moment (field-independent basis, Debye):
    X=              0.8906    Y=              4.3051    Z=              2.5384  Tot=              5.0765
 Quadrupole moment (field-independent basis, Debye-Ang):
   XX=            -95.4486   YY=            -93.1196   ZZ=            -96.4187
   XY=            -10.8066   XZ=             -8.7029   YZ=             -0.7168

 Normal termination of Gaussian 16 at Thu May  6 01:31:10 2021.
