 Gaussian 16, Revision A.03,
 Gaussian 16:  EM64L-G16RevA.03 25-Dec-2016

 -------------
 #p 6-31g* mp2
 -------------

 ------------------------------------------------------
 Input file generated by CHIRIPA (05-May-2021 14:55:23)
 ------------------------------------------------------
 Symbolic Z-matrix:
 Charge =  0 Multiplicity = 1

                         Standard orientation:
 ---------------------------------------------------------------------
 Center     Atomic      Atomic             Coordinates (Angstroms)
 Number     Number       Type             X           Y           Z
 ---------------------------------------------------------------------
      1          6           0        1.775104    1.566067    0.862348
      2          6           0        2.933621    2.013647    0.218896
      3          6           0        3.918789    1.106276   -0.181941
      4          6           0        3.711891   -0.247630    0.077716
      5          6           0        2.568447   -0.724511    0.716786
      6          6           0        1.596529    0.200823    1.108805
      7          1           0        1.014948    2.277912    1.170303
      8          1           0        3.074985    3.073329    0.026190
      9          1           0        4.825218    1.425471   -0.681859
     10          1           0        2.455772   -1.787014    0.895139
     11          1           0        0.697810   -0.149635    1.608332
     12          7           0        4.747831   -1.217732   -0.341964
     13          8           0        4.541709   -2.405324   -0.101600
     14          8           0        5.746306   -0.772136   -0.903327
     15          6           0       -4.972497   -0.369601    0.209166
     16          6           0       -6.303496   -0.680739   -0.476123
     17          6           0       -7.172300   -1.646192    0.330644
     18          1           0       -4.424562   -1.307321    0.374674
     19          1           0       -5.170289    0.056357    1.202561
     20          1           0       -6.103264   -1.104701   -1.468484
     21          1           0       -6.848240    0.257849   -0.640193
     22          1           0       -7.401197   -1.227070    1.315806
     23          1           0       -6.651988   -2.597362    0.482808
     24          1           0       -8.118908   -1.854817   -0.177557
     25          6           0       -4.092861    0.594229   -0.585190
     26          6           0       -2.761863    0.905368    0.100099
     27          6           0       -1.893058    1.870820   -0.706669
     28          1           0       -3.895068    0.168271   -1.578585
     29          1           0       -4.640796    1.531948   -0.750699
     30          1           0       -2.217118   -0.033222    0.264168
     31          1           0       -2.962093    1.329328    1.092460
     32          1           0       -2.413369    2.821990   -0.858832
     33          1           0       -1.664161    1.451698   -1.691830
     34          1           0       -0.946449    2.079444   -0.198466
 ---------------------------------------------------------------------

 SCF Done:  E(RHF) =  -669.535186915     A.U. after   15 cycles
 E2 =    -0.2091592386D+01 EUMP2 =    -0.67162677930127D+03

 The electronic state is 1-A.
 Alpha  occ. eigenvalues --  -20.60769 -20.60764 -15.85822 -11.31196 -11.27762
 Alpha  occ. eigenvalues --  -11.27758 -11.27499 -11.26781 -11.26771 -11.22463
 Alpha  occ. eigenvalues --  -11.22029 -11.22015 -11.21932 -11.21897 -11.21422
 Alpha  occ. eigenvalues --   -1.59844  -1.39397  -1.19369  -1.09042  -1.08766
 Alpha  occ. eigenvalues --   -1.04770  -1.04153  -0.96597  -0.95599  -0.87611
 Alpha  occ. eigenvalues --   -0.86167  -0.82431  -0.80231  -0.78832  -0.77471
 Alpha  occ. eigenvalues --   -0.72041  -0.71167  -0.70516  -0.65664  -0.65023
 Alpha  occ. eigenvalues --   -0.64776  -0.62119  -0.61534  -0.60023  -0.58224
 Alpha  occ. eigenvalues --   -0.55854  -0.55324  -0.53384  -0.53107  -0.52865
 Alpha  occ. eigenvalues --   -0.52858  -0.50515  -0.48804  -0.48795  -0.48535
 Alpha  occ. eigenvalues --   -0.47256  -0.46377  -0.46281  -0.44801  -0.44406
 Alpha  occ. eigenvalues --   -0.37318  -0.36370
 Alpha virt. eigenvalues --    0.05023   0.11234   0.16412   0.20050   0.22529
 Alpha virt. eigenvalues --    0.24017   0.25609   0.26399   0.26559   0.27603
 Alpha virt. eigenvalues --    0.28735   0.29804   0.30948   0.31633   0.32170

 Mulliken charges:
               1
     1  C   -0.169701
     2  C   -0.219513
     3  C   -0.170992
     4  C    0.158829
     5  C   -0.171274
     6  C   -0.218963
     7  H    0.226224
     8  H    0.223772
     9  H    0.275684
    10  H    0.275581
    11  H    0.225519
    12  N    0.488053
    13  O   -0.460444
    14  O   -0.460350
    15  C   -0.298747
    16  C   -0.300179
    17  C   -0.476063
    18  H    0.149720
    19  H    0.149319
    20  H    0.153244
    21  H    0.152555
    22  H    0.155255
    23  H    0.155782
    24  H    0.161781
    25  C   -0.298592
    26  C   -0.301246
    27  C   -0.477519
    28  H    0.152234
    29  H    0.151227
    30  H    0.149206
    31  H    0.149929
    32  H    0.156961
    33  H    0.161085
    34  H    0.151625
 Sum of Mulliken charges =  -0.00000

 Dipole moment (field-independent basis, Debye):
    X=             -3.7687    Y=              3.3978    Z=              1.4151  Tot=              5.2679
 Quadrupole moment (field-independent basis, Debye-Ang):
   XX=           -120.5379   YY=            -93.8032   ZZ=            -94.5383
   XY=             15.3195   XZ=              4.3701   YZ=             -1.0387

 Normal termination of Gaussian 16 at Wed May  5 20:40:53 2021.
