 Gaussian 16, Revision A.03,
 Gaussian 16:  EM64L-G16RevA.03 25-Dec-2016

 -------------
 #p 6-31g* mp2
 -------------

 ------------------------------------------------------
 Input file generated by CHIRIPA (05-May-2021 14:55:22)
 ------------------------------------------------------
 Symbolic Z-matrix:
 Charge =  0 Multiplicity = 1

                         Standard orientation:
 ---------------------------------------------------------------------
 Center     Atomic      Atomic             Coordinates (Angstroms)
 Number     Number       Type             X           Y           Z
 ---------------------------------------------------------------------
      1          6           0        1.456574    0.994796   -0.145009
      2          6           0        1.782503   -0.316469   -0.506776
      3          6           0        3.109854   -0.753931   -0.470513
      4          6           0        4.090417    0.150474   -0.065745
      5          6           0        3.797369    1.463157    0.300694
      6          6           0        2.463272    1.878865    0.256863
      7          1           0        0.422836    1.326177   -0.176118
      8          1           0        1.002763   -1.005230   -0.819280
      9          1           0        3.390133   -1.763566   -0.745286
     10          1           0        4.596517    2.126762    0.607952
     11          1           0        2.213082    2.897787    0.538372
     12          7           0        5.499194   -0.301133   -0.023349
     13          8           0        6.344612    0.515056    0.336849
     14          8           0        5.731301   -1.462739   -0.351120
     15          6           0       -5.406404    0.239603   -0.200668
     16          6           0       -6.877060    0.006968    0.147232
     17          6           0       -7.800625    1.070447   -0.447610
     18          1           0       -5.103816    1.232660    0.158811
     19          1           0       -5.293363    0.254980   -1.293544
     20          1           0       -6.987074   -0.009345    1.239132
     21          1           0       -7.176130   -0.985727   -0.212947
     22          1           0       -7.720365    1.083336   -1.539394
     23          1           0       -7.530235    2.065266   -0.079064
     24          1           0       -8.847163    0.884817   -0.186535
     25          6           0       -4.470673   -0.815358    0.386862
     26          6           0       -3.000016   -0.582723    0.038964
     27          6           0       -2.076452   -1.646202    0.633805
     28          1           0       -4.583714   -0.830735    1.479740
     29          1           0       -4.773261   -1.808414    0.027384
     30          1           0       -2.700947    0.409972    0.399142
     31          1           0       -2.890003   -0.566410   -1.052937
     32          1           0       -2.346842   -2.641021    0.265260
     33          1           0       -2.156712   -1.659090    1.725590
     34          1           0       -1.029914   -1.460572    0.372731
 ---------------------------------------------------------------------

 SCF Done:  E(RHF) =  -669.535465308     A.U. after   15 cycles
 E2 =    -0.2091136324D+01 EUMP2 =    -0.67162660163167D+03

 The electronic state is 1-A.
 Alpha  occ. eigenvalues --  -20.60747 -20.60742 -15.85801 -11.31169 -11.27745
 Alpha  occ. eigenvalues --  -11.27739 -11.27479 -11.26752 -11.26736 -11.22649
 Alpha  occ. eigenvalues --  -11.22177 -11.22146 -11.22137 -11.22036 -11.21540
 Alpha  occ. eigenvalues --   -1.59822  -1.39376  -1.19344  -1.09193  -1.08737
 Alpha  occ. eigenvalues --   -1.04751  -1.04308  -0.96747  -0.95570  -0.87765
 Alpha  occ. eigenvalues --   -0.86148  -0.82403  -0.80386  -0.78976  -0.77454
 Alpha  occ. eigenvalues --   -0.72019  -0.71146  -0.70447  -0.65816  -0.64998
 Alpha  occ. eigenvalues --   -0.64799  -0.62142  -0.61692  -0.60126  -0.58351
 Alpha  occ. eigenvalues --   -0.56007  -0.55244  -0.53540  -0.53221  -0.53049
 Alpha  occ. eigenvalues --   -0.52722  -0.50668  -0.48798  -0.48774  -0.48672
 Alpha  occ. eigenvalues --   -0.47414  -0.46522  -0.46422  -0.44781  -0.44553
 Alpha  occ. eigenvalues --   -0.37317  -0.36348
 Alpha virt. eigenvalues --    0.05087   0.11198   0.16573   0.19416   0.22444
 Alpha virt. eigenvalues --    0.23898   0.25483   0.26000   0.26390   0.27605
 Alpha virt. eigenvalues --    0.28953   0.29537   0.30776   0.31638   0.31702

 Mulliken charges:
               1
     1  C   -0.172464
     2  C   -0.221704
     3  C   -0.171219
     4  C    0.158508
     5  C   -0.170788
     6  C   -0.218816
     7  H    0.227880
     8  H    0.227364
     9  H    0.275870
    10  H    0.275581
    11  H    0.223393
    12  N    0.488040
    13  O   -0.460489
    14  O   -0.460379
    15  C   -0.298761
    16  C   -0.300258
    17  C   -0.476083
    18  H    0.149018
    19  H    0.150002
    20  H    0.152946
    21  H    0.153173
    22  H    0.155686
    23  H    0.155284
    24  H    0.162061
    25  C   -0.298605
    26  C   -0.301490
    27  C   -0.480047
    28  H    0.151854
    29  H    0.152272
    30  H    0.147493
    31  H    0.151336
    32  H    0.159587
    33  H    0.160960
    34  H    0.152795
 Sum of Mulliken charges =  -0.00000

 Dipole moment (field-independent basis, Debye):
    X=             -5.1684    Y=              1.5611    Z=             -0.1158  Tot=              5.4003
 Quadrupole moment (field-independent basis, Debye-Ang):
   XX=           -135.2497   YY=            -90.3163   ZZ=            -94.4242
   XY=              8.0550   XZ=             -0.0647   YZ=              2.2458

 Normal termination of Gaussian 16 at Wed May  5 20:39:16 2021.
