 Gaussian 16, Revision A.03,
 Gaussian 16:  EM64L-G16RevA.03 25-Dec-2016

 -------------
 #p 6-31g* mp2
 -------------

 ------------------------------------------------------
 Input file generated by CHIRIPA (05-May-2021 14:51:08)
 ------------------------------------------------------
 Symbolic Z-matrix:
 Charge =  0 Multiplicity = 1

                         Standard orientation:
 ---------------------------------------------------------------------
 Center     Atomic      Atomic             Coordinates (Angstroms)
 Number     Number       Type             X           Y           Z
 ---------------------------------------------------------------------
      1          6           0       -2.730486    1.073335    0.327762
      2          6           0       -2.314132    2.282527   -0.510384
      3          6           0       -1.471304    3.285914    0.277429
      4          1           0       -3.294608    1.419676    1.204551
      5          1           0       -1.829886    0.574979    0.712412
      6          1           0       -3.215209    2.777649   -0.894481
      7          1           0       -1.751101    1.933255   -1.385382
      8          1           0       -0.555887    2.813217    0.647795
      9          1           0       -2.028315    3.662409    1.141485
     10          1           0       -1.184674    4.142338   -0.340827
     11          6           0       -3.573590    0.061276   -0.445956
     12          6           0       -3.989944   -1.147916    0.392190
     13          6           0       -4.832772   -2.151303   -0.395624
     14          1           0       -4.474190    0.559632   -0.830607
     15          1           0       -3.009469   -0.285065   -1.322746
     16          1           0       -4.552976   -0.798643    1.267187
     17          1           0       -3.088867   -1.643037    0.776286
     18          1           0       -4.275762   -2.527797   -1.259679
     19          1           0       -5.748189   -1.678605   -0.765989
     20          1           0       -5.119402   -3.007727    0.222632
     21          6           0        3.782401   -0.232700    0.331335
     22          6           0        4.952701   -0.252757   -0.652524
     23          6           0        6.206574    0.420357   -0.093494
     24          1           0        3.553592    0.808218    0.597945
     25          1           0        4.085345   -0.734107    1.260965
     26          1           0        4.647188    0.247318   -1.580533
     27          1           0        5.178626   -1.293739   -0.916970
     28          1           0        6.538550   -0.082245    0.820718
     29          1           0        6.004092    1.467568    0.153385
     30          1           0        7.030758    0.394698   -0.813162
     31          6           0        2.521675   -0.901911   -0.213141
     32          6           0        1.351375   -0.881854    0.770719
     33          6           0        0.097502   -1.554968    0.211689
     34          1           0        2.218731   -0.400505   -1.142771
     35          1           0        2.750484   -1.942829   -0.479751
     36          1           0        1.125450    0.159127    1.035165
     37          1           0        1.656889   -1.381929    1.698729
     38          1           0        0.299985   -2.602180   -0.035190
     39          1           0       -0.234474   -1.052367   -0.702524
     40          1           0       -0.726681   -1.529309    0.931356
 ---------------------------------------------------------------------

 SCF Done:  E(RHF) =  -470.732076729     A.U. after   11 cycles
 E2 =    -0.1584479832D+01 EUMP2 =    -0.47231655656023D+03

 The electronic state is 1-A.
 Alpha  occ. eigenvalues --  -11.21716 -11.21638 -11.21580 -11.21519 -11.21472
 Alpha  occ. eigenvalues --  -11.21406 -11.21319 -11.21234 -11.21165 -11.21096
 Alpha  occ. eigenvalues --  -11.21085 -11.21012  -1.08512  -1.08363  -1.03609
 Alpha  occ. eigenvalues --   -1.03488  -0.96086  -0.95913  -0.87086  -0.86953
 Alpha  occ. eigenvalues --   -0.79685  -0.79550  -0.78309  -0.78192  -0.65290
 Alpha  occ. eigenvalues --   -0.64924  -0.61056  -0.60840  -0.59453  -0.59282
 Alpha  occ. eigenvalues --   -0.57708  -0.57520  -0.55510  -0.55061  -0.52837
 Alpha  occ. eigenvalues --   -0.52595  -0.52480  -0.52363  -0.50025  -0.49843
 Alpha  occ. eigenvalues --   -0.48027  -0.47859  -0.46698  -0.46591  -0.45863
 Alpha  occ. eigenvalues --   -0.45786  -0.45696  -0.45584  -0.43783  -0.43696
 Alpha virt. eigenvalues --    0.20004   0.22824   0.23620   0.24446   0.25794
 Alpha virt. eigenvalues --    0.26128   0.26723   0.27471   0.28397   0.29284
 Alpha virt. eigenvalues --    0.30199   0.31509   0.31747   0.31995   0.32333

 Mulliken charges:
               1
     1  C   -0.306454
     2  C   -0.299283
     3  C   -0.476700
     4  H    0.148815
     5  H    0.160262
     6  H    0.151962
     7  H    0.150782
     8  H    0.154994
     9  H    0.155501
    10  H    0.160107
    11  C   -0.298135
    12  C   -0.305211
    13  C   -0.475327
    14  H    0.149321
    15  H    0.149884
    16  H    0.151344
    17  H    0.157448
    18  H    0.155410
    19  H    0.154862
    20  H    0.159850
    21  C   -0.298347
    22  C   -0.299702
    23  C   -0.475767
    24  H    0.149824
    25  H    0.149719
    26  H    0.152039
    27  H    0.151997
    28  H    0.155245
    29  H    0.155359
    30  H    0.160388
    31  C   -0.298638
    32  C   -0.302875
    33  C   -0.483489
    34  H    0.149643
    35  H    0.150075
    36  H    0.153506
    37  H    0.152830
    38  H    0.156687
    39  H    0.156856
    40  H    0.165219
 Sum of Mulliken charges =  -0.00000

 Dipole moment (field-independent basis, Debye):
    X=              0.0496    Y=             -0.0362    Z=              0.0122  Tot=              0.0626
 Quadrupole moment (field-independent basis, Debye-Ang):
   XX=            -85.4463   YY=            -84.6503   ZZ=            -84.8281
   XY=             -1.6272   XZ=             -0.6531   YZ=             -0.6963

 Normal termination of Gaussian 16 at Thu May  6 08:27:30 2021.
