 Gaussian 16, Revision A.03,
 Gaussian 16:  EM64L-G16RevA.03 25-Dec-2016

 -------------
 #p 6-31g* mp2
 -------------

 ------------------------------------------------------
 Input file generated by CHIRIPA (05-May-2021 14:51:13)
 ------------------------------------------------------
 Symbolic Z-matrix:
 Charge =  0 Multiplicity = 1

                         Standard orientation:
 ---------------------------------------------------------------------
 Center     Atomic      Atomic             Coordinates (Angstroms)
 Number     Number       Type             X           Y           Z
 ---------------------------------------------------------------------
      1          6           0        4.131590    0.925476    0.199769
      2          6           0        2.738194    1.336619   -0.277090
      3          6           0        2.366382    2.759634    0.140739
      4          1           0        4.177997    1.011812    1.293998
      5          1           0        4.871893    1.631592   -0.201161
      6          1           0        2.000891    0.629133    0.123488
      7          1           0        2.695039    1.249111   -1.370294
      8          1           0        3.079629    3.480873   -0.271201
      9          1           0        2.381536    2.857372    1.231069
     10          1           0        1.366469    3.032868   -0.210510
     11          6           0        4.517671   -0.494591   -0.210206
     12          6           0        5.911067   -0.905735    0.266653
     13          6           0        6.282879   -2.328749   -0.151176
     14          1           0        3.777368   -1.200708    0.190725
     15          1           0        4.471264   -0.580927   -1.304435
     16          1           0        5.954222   -0.818227    1.359858
     17          1           0        6.648370   -0.198249   -0.133924
     18          1           0        6.267725   -2.426488   -1.241505
     19          1           0        5.569632   -3.049989    0.260764
     20          1           0        7.282792   -2.601983    0.200073
     21          6           0       -5.019120   -0.010541   -0.237953
     22          6           0       -6.145018   -0.852115    0.363788
     23          6           0       -7.528367   -0.430170   -0.132296
     24          1           0       -5.190480    1.047084    0.004966
     25          1           0       -5.056779   -0.089749   -1.333263
     26          1           0       -6.104392   -0.772447    1.457689
     27          1           0       -5.970853   -1.907880    0.119572
     28          1           0       -7.593202   -0.526662   -1.220913
     29          1           0       -7.727498    0.615222    0.124807
     30          1           0       -8.318342   -1.044826    0.310422
     31          6           0       -3.630141   -0.420343    0.248390
     32          6           0       -2.504244    0.421230   -0.353352
     33          6           0       -1.120893   -0.000714    0.142732
     34          1           0       -3.592482   -0.341135    1.343699
     35          1           0       -3.458780   -1.477968    0.005470
     36          1           0       -2.678408    1.476996   -0.109134
     37          1           0       -2.544870    0.341563   -1.447252
     38          1           0       -0.921763   -1.046106   -0.114371
     39          1           0       -1.056059    0.095778    1.231350
     40          1           0       -0.330920    0.613942   -0.299986
 ---------------------------------------------------------------------

 SCF Done:  E(RHF) =  -470.733085224     A.U. after   11 cycles
 E2 =    -0.1582552355D+01 EUMP2 =    -0.47231563757898D+03

 The electronic state is 1-A.
 Alpha  occ. eigenvalues --  -11.21601 -11.21598 -11.21577 -11.21530 -11.21402
 Alpha  occ. eigenvalues --  -11.21369 -11.21343 -11.21310 -11.21070 -11.21059
 Alpha  occ. eigenvalues --  -11.21052 -11.21037  -1.08430  -1.08395  -1.03549
 Alpha  occ. eigenvalues --   -1.03483  -0.96006  -0.95929  -0.87004  -0.86966
 Alpha  occ. eigenvalues --   -0.79661  -0.79506  -0.78251  -0.78200  -0.65058
 Alpha  occ. eigenvalues --   -0.65032  -0.60944  -0.60908  -0.59557  -0.59151
 Alpha  occ. eigenvalues --   -0.57719  -0.57418  -0.55274  -0.55230  -0.52742
 Alpha  occ. eigenvalues --   -0.52591  -0.52424  -0.52347  -0.49918  -0.49889
 Alpha  occ. eigenvalues --   -0.47946  -0.47845  -0.46626  -0.46590  -0.45787
 Alpha  occ. eigenvalues --   -0.45754  -0.45708  -0.45677  -0.43787  -0.43682
 Alpha virt. eigenvalues --    0.22074   0.22995   0.23411   0.24972   0.26402
 Alpha virt. eigenvalues --    0.26653   0.26823   0.27320   0.27771   0.28811
 Alpha virt. eigenvalues --    0.30612   0.30918   0.31422   0.31671   0.32183

 Mulliken charges:
               1
     1  C   -0.297692
     2  C   -0.305828
     3  C   -0.476725
     4  H    0.149540
     5  H    0.149176
     6  H    0.159151
     7  H    0.151149
     8  H    0.155284
     9  H    0.155372
    10  H    0.160254
    11  C   -0.298401
    12  C   -0.299620
    13  C   -0.475688
    14  H    0.149907
    15  H    0.149488
    16  H    0.151905
    17  H    0.151842
    18  H    0.155102
    19  H    0.155191
    20  H    0.160158
    21  C   -0.298243
    22  C   -0.299609
    23  C   -0.475698
    24  H    0.149644
    25  H    0.149515
    26  H    0.151902
    27  H    0.151923
    28  H    0.155182
    29  H    0.155184
    30  H    0.160241
    31  C   -0.298533
    32  C   -0.299740
    33  C   -0.482205
    34  H    0.149441
    35  H    0.149603
    36  H    0.151823
    37  H    0.151931
    38  H    0.154867
    39  H    0.154552
    40  H    0.168654
 Sum of Mulliken charges =  -0.00000

 Dipole moment (field-independent basis, Debye):
    X=             -0.0035    Y=             -0.0047    Z=              0.0020  Tot=              0.0062
 Quadrupole moment (field-independent basis, Debye-Ang):
   XX=            -86.0882   YY=            -85.3161   ZZ=            -83.5360
   XY=              0.6822   XZ=             -0.5781   YZ=              0.0398

 Normal termination of Gaussian 16 at Thu May  6 00:48:52 2021.
