 Gaussian 16, Revision A.03,
 Gaussian 16:  EM64L-G16RevA.03 25-Dec-2016

 -------------
 #p 6-31g* mp2
 -------------

 ------------------------------------------------------
 Input file generated by CHIRIPA (05-May-2021 14:57:24)
 ------------------------------------------------------
 Symbolic Z-matrix:
 Charge =  0 Multiplicity = 1

                         Standard orientation:
 ---------------------------------------------------------------------
 Center     Atomic      Atomic             Coordinates (Angstroms)
 Number     Number       Type             X           Y           Z
 ---------------------------------------------------------------------
      1          6           0        1.479074   -0.272491    1.011210
      2          6           0        2.237518    0.891325    1.174967
      3          6           0        3.539901    0.966649    0.672300
      4          6           0        4.054727   -0.145602    0.008115
      5          6           0        3.324081   -1.319211   -0.171017
      6          6           0        2.023816   -1.372106    0.339924
      7          1           0        0.468175   -0.322293    1.404907
      8          1           0        1.817046    1.746843    1.695867
      9          1           0        4.149131    1.855221    0.784977
     10          1           0        3.770431   -2.155780   -0.694793
     11          1           0        1.437112   -2.277242    0.211271
     12          7           0        5.432381   -0.077732   -0.528416
     13          8           0        5.862977   -1.071349   -1.109751
     14          8           0        6.055503    0.967795   -0.357454
     15          6           0       -5.007236   -2.072216   -0.018443
     16          6           0       -3.695602   -1.957421    0.453741
     17          6           0       -3.032269   -0.727354    0.415361
     18          6           0       -3.713637    0.372280   -0.104092
     19          6           0       -5.020534    0.289863   -0.582129
     20          6           0       -5.664358   -0.950185   -0.533961
     21          1           0       -5.514951   -3.031638    0.015173
     22          1           0       -3.182806   -2.827115    0.854638
     23          1           0       -2.016918   -0.610288    0.774214
     24          1           0       -5.505730    1.174625   -0.976083
     25          1           0       -6.682998   -1.036380   -0.901368
     26          7           0       -3.021724    1.679780   -0.149903
     27          8           0       -3.643948    2.633524   -0.612338
     28          8           0       -1.870280    1.726096    0.277491
 ---------------------------------------------------------------------

 SCF Done:  E(RHF) =  -868.337835028     A.U. after   16 cycles
 E2 =    -0.2599632755D+01 EUMP2 =    -0.87093746778304D+03

 The electronic state is 1-A.
 Alpha  occ. eigenvalues --  -20.61677 -20.61634 -20.60464 -20.60452 -15.86708
 Alpha  occ. eigenvalues --  -15.85512 -11.32037 -11.30824 -11.28709 -11.28527
 Alpha  occ. eigenvalues --  -11.28273 -11.27628 -11.27526 -11.27435 -11.27325
 Alpha  occ. eigenvalues --  -11.27148 -11.26495 -11.26276  -1.60720  -1.59537
 Alpha  occ. eigenvalues --   -1.40282  -1.39092  -1.20190  -1.18988  -1.09577
 Alpha  occ. eigenvalues --   -1.08396  -1.05599  -1.04382  -0.96432  -0.95243
 Alpha  occ. eigenvalues --   -0.86994  -0.85783  -0.83275  -0.82078  -0.78347
 Alpha  occ. eigenvalues --   -0.77126  -0.72940  -0.72032  -0.71733  -0.71311
 Alpha  occ. eigenvalues --   -0.70858  -0.70118  -0.65847  -0.65599  -0.64646
 Alpha  occ. eigenvalues --   -0.64386  -0.62970  -0.61730  -0.56075  -0.54929
 Alpha  occ. eigenvalues --   -0.53906  -0.53668  -0.52706  -0.52476  -0.49700
 Alpha  occ. eigenvalues --   -0.49661  -0.48490  -0.48485  -0.45693  -0.44509
 Alpha  occ. eigenvalues --   -0.38135  -0.37193  -0.36952  -0.35972
 Alpha virt. eigenvalues --    0.04215   0.05398   0.10466   0.11680   0.15735
 Alpha virt. eigenvalues --    0.16839   0.18795   0.21970   0.25154   0.26949
 Alpha virt. eigenvalues --    0.27703   0.29089   0.30512   0.30965   0.32819

 Mulliken charges:
               1
     1  C   -0.168647
     2  C   -0.216539
     3  C   -0.171334
     4  C    0.158402
     5  C   -0.171194
     6  C   -0.220371
     7  H    0.227015
     8  H    0.232052
     9  H    0.275970
    10  H    0.273529
    11  H    0.215405
    12  N    0.488070
    13  O   -0.462265
    14  O   -0.460124
    15  C   -0.169755
    16  C   -0.220705
    17  C   -0.172231
    18  C    0.157773
    19  C   -0.169003
    20  C   -0.218248
    21  H    0.228451
    22  H    0.222874
    23  H    0.271706
    24  H    0.278124
    25  H    0.226655
    26  N    0.488570
    27  O   -0.454941
    28  O   -0.469241
 Sum of Mulliken charges =  -0.00000

 Dipole moment (field-independent basis, Debye):
    X=             -7.6242    Y=             -4.6620    Z=              2.0119  Tot=              9.1602
 Quadrupole moment (field-independent basis, Debye-Ang):
   XX=           -122.3732   YY=           -103.3792   ZZ=           -104.8587
   XY=             15.1438   XZ=              9.8552   YZ=              1.2449

 Normal termination of Gaussian 16 at Thu May  6 05:03:26 2021.
