 Gaussian 16, Revision A.03,
 Gaussian 16:  EM64L-G16RevA.03 25-Dec-2016

 -------------
 #p 6-31g* mp2
 -------------

 ------------------------------------------------------
 Input file generated by CHIRIPA (05-May-2021 14:53:17)
 ------------------------------------------------------
 Symbolic Z-matrix:
 Charge =  0 Multiplicity = 1

                         Standard orientation:
 ---------------------------------------------------------------------
 Center     Atomic      Atomic             Coordinates (Angstroms)
 Number     Number       Type             X           Y           Z
 ---------------------------------------------------------------------
      1          6           0       -3.406328    0.758279    0.299070
      2          6           0       -4.015059    2.156272    0.184832
      3          6           0       -3.239541    3.205651    0.981806
      4          1           0       -3.372129    0.465546    1.357409
      5          1           0       -2.365025    0.789698   -0.050351
      6          1           0       -5.055332    2.121932    0.533066
      7          1           0       -4.047989    2.445633   -0.873375
      8          1           0       -2.204697    3.269246    0.630159
      9          1           0       -3.217764    2.943706    2.044591
     10          1           0       -3.691945    4.197633    0.886089
     11          6           0       -4.170500   -0.301731   -0.492225
     12          6           0       -3.561770   -1.699723   -0.377987
     13          6           0       -4.337288   -2.749103   -1.174961
     14          1           0       -5.211804   -0.333150   -0.142804
     15          1           0       -4.204700   -0.008998   -1.550564
     16          1           0       -3.528840   -1.989085    0.680220
     17          1           0       -2.521496   -1.665384   -0.726221
     18          1           0       -4.359064   -2.487158   -2.237746
     19          1           0       -5.372131   -2.812698   -0.823314
     20          1           0       -3.884884   -3.741085   -1.079244
     21          6           0        1.201536   -1.584224    1.214872
     22          6           0        0.822767   -0.488165    0.432753
     23          6           0        1.788351    0.297810   -0.203200
     24          6           0        3.129671   -0.042423   -0.034704
     25          6           0        3.538630   -1.128205    0.738033
     26          6           0        2.555871   -1.900188    1.364751
     27          1           0        0.444777   -2.189354    1.705309
     28          1           0       -0.228284   -0.240430    0.314582
     29          1           0        1.522987    1.151857   -0.814432
     30          1           0        4.594204   -1.350375    0.837151
     31          1           0        2.852950   -2.750824    1.971553
     32          7           0        4.160983    0.782248   -0.703071
     33          8           0        5.336075    0.461576   -0.538854
     34          8           0        3.774705    1.733680   -1.378499
 ---------------------------------------------------------------------

 SCF Done:  E(RHF) =  -669.535606012     A.U. after   15 cycles
 E2 =    -0.2091504702D+01 EUMP2 =    -0.67162711071430D+03

 The electronic state is 1-A.
 Alpha  occ. eigenvalues --  -20.60723 -20.60718 -15.85775 -11.31129 -11.27697
 Alpha  occ. eigenvalues --  -11.27688 -11.27422 -11.26709 -11.26652 -11.22575
 Alpha  occ. eigenvalues --  -11.22437 -11.22317 -11.22236 -11.21816 -11.21676
 Alpha  occ. eigenvalues --   -1.59799  -1.39353  -1.19296  -1.09324  -1.08690
 Alpha  occ. eigenvalues --   -1.04697  -1.04324  -0.96760  -0.95530  -0.87771
 Alpha  occ. eigenvalues --   -0.86096  -0.82366  -0.80402  -0.79187  -0.77410
 Alpha  occ. eigenvalues --   -0.71994  -0.71121  -0.70402  -0.65985  -0.64946
 Alpha  occ. eigenvalues --   -0.64680  -0.62052  -0.61712  -0.60133  -0.58383
 Alpha  occ. eigenvalues --   -0.56042  -0.55192  -0.53426  -0.53208  -0.53026
 Alpha  occ. eigenvalues --   -0.52778  -0.50695  -0.48757  -0.48751  -0.48711
 Alpha  occ. eigenvalues --   -0.47439  -0.46659  -0.46607  -0.44761  -0.44608
 Alpha  occ. eigenvalues --   -0.37273  -0.36300
 Alpha virt. eigenvalues --    0.05119   0.11312   0.16612   0.19390   0.22663
 Alpha virt. eigenvalues --    0.23461   0.24488   0.26023   0.27211   0.28155
 Alpha virt. eigenvalues --    0.29531   0.30571   0.31085   0.31205   0.31555

 Mulliken charges:
               1
     1  C   -0.304135
     2  C   -0.299774
     3  C   -0.476241
     4  H    0.149790
     5  H    0.143510
     6  H    0.155000
     7  H    0.154815
     8  H    0.154275
     9  H    0.155768
    10  H    0.164308
    11  C   -0.298180
    12  C   -0.302849
    13  C   -0.475751
    14  H    0.153472
    15  H    0.153122
    16  H    0.149569
    17  H    0.147993
    18  H    0.158327
    19  H    0.157770
    20  H    0.161147
    21  C   -0.173473
    22  C   -0.228331
    23  C   -0.173960
    24  C    0.158846
    25  C   -0.171312
    26  C   -0.218464
    27  H    0.226589
    28  H    0.238145
    29  H    0.274808
    30  H    0.275350
    31  H    0.223080
    32  N    0.488125
    33  O   -0.460672
    34  O   -0.460670
 Sum of Mulliken charges =  -0.00000

 Dipole moment (field-independent basis, Debye):
    X=             -3.8990    Y=             -2.8674    Z=              2.3341  Tot=              5.3732
 Quadrupole moment (field-independent basis, Debye-Ang):
   XX=           -114.0828   YY=            -93.6283   ZZ=            -94.4112
   XY=            -11.8496   XZ=              8.5939   YZ=             -1.8779

 Normal termination of Gaussian 16 at Thu May  6 20:33:14 2021.
