 Gaussian 16, Revision A.03,
 Gaussian 16:  EM64L-G16RevA.03 25-Dec-2016

 -------------
 #p 6-31g* mp2
 -------------

 ------------------------------------------------------
 Input file generated by CHIRIPA (05-May-2021 14:51:10)
 ------------------------------------------------------
 Symbolic Z-matrix:
 Charge =  0 Multiplicity = 1

                         Standard orientation:
 ---------------------------------------------------------------------
 Center     Atomic      Atomic             Coordinates (Angstroms)
 Number     Number       Type             X           Y           Z
 ---------------------------------------------------------------------
      1          6           0       -2.997301   -0.537078   -0.025023
      2          6           0       -4.340752   -1.261510   -0.116255
      3          6           0       -4.399595   -2.510874    0.763190
      4          1           0       -2.194458   -1.228973   -0.314278
      5          1           0       -2.808701   -0.259336    1.021249
      6          1           0       -4.527406   -1.536580   -1.162253
      7          1           0       -5.140508   -0.567753    0.173067
      8          1           0       -4.238796   -2.250051    1.814244
      9          1           0       -3.622209   -3.224383    0.471337
     10          1           0       -5.368643   -3.013198    0.682714
     11          6           0       -2.923067    0.713949   -0.898607
     12          6           0       -1.579616    1.438381   -0.807376
     13          6           0       -1.520773    2.687745   -1.686820
     14          1           0       -3.111667    0.436207   -1.944879
     15          1           0       -3.725910    1.405844   -0.609352
     16          1           0       -0.779860    0.744624   -1.096697
     17          1           0       -1.392962    1.713451    0.238623
     18          1           0       -2.298159    3.401253   -1.394968
     19          1           0       -1.681573    2.426922   -2.737875
     20          1           0       -0.551725    3.190069   -1.606345
     21          6           0        2.376038   -0.081682    0.953913
     22          6           0        2.063207    1.310007    1.504659
     23          6           0        0.892193    1.307222    2.487771
     24          1           0        1.480992   -0.482963    0.459129
     25          1           0        2.600192   -0.757668    1.790689
     26          1           0        1.841063    1.983506    0.667003
     27          1           0        2.959160    1.708100    1.998022
     28          1           0        1.108098    0.657711    3.342242
     29          1           0       -0.016351    0.934681    2.003660
     30          1           0        0.685760    2.312124    2.869108
     31          6           0        3.544330   -0.095189   -0.030282
     32          6           0        3.857161   -1.486878   -0.581029
     33          6           0        5.028175   -1.484093   -1.564141
     34          1           0        3.320176    0.580797   -0.867059
     35          1           0        4.439376    0.306092    0.464501
     36          1           0        2.961208   -1.884971   -1.074391
     37          1           0        4.079304   -2.160377    0.256628
     38          1           0        5.936719   -1.111552   -1.080030
     39          1           0        4.812270   -0.834582   -2.418611
     40          1           0        5.234608   -2.488995   -1.945478
 ---------------------------------------------------------------------

 SCF Done:  E(RHF) =  -470.733179416     A.U. after   11 cycles
 E2 =    -0.1583472722D+01 EUMP2 =    -0.47231665213710D+03

 The electronic state is 1-A.
 Alpha  occ. eigenvalues --  -11.21646 -11.21637 -11.21598 -11.21563 -11.21459
 Alpha  occ. eigenvalues --  -11.21399 -11.21380 -11.21317 -11.21128 -11.21088
 Alpha  occ. eigenvalues --  -11.21069 -11.20997  -1.08490  -1.08399  -1.03592
 Alpha  occ. eigenvalues --   -1.03488  -0.96024  -0.95954  -0.87044  -0.86969
 Alpha  occ. eigenvalues --   -0.79671  -0.79549  -0.78327  -0.78193  -0.65124
 Alpha  occ. eigenvalues --   -0.65034  -0.61054  -0.60859  -0.59375  -0.59321
 Alpha  occ. eigenvalues --   -0.57632  -0.57564  -0.55335  -0.55228  -0.52719
 Alpha  occ. eigenvalues --   -0.52650  -0.52452  -0.52377  -0.50052  -0.49848
 Alpha  occ. eigenvalues --   -0.48045  -0.47820  -0.46743  -0.46548  -0.45975
 Alpha  occ. eigenvalues --   -0.45733  -0.45701  -0.45486  -0.43829  -0.43761
 Alpha virt. eigenvalues --    0.20356   0.23104   0.23629   0.24556   0.25272
 Alpha virt. eigenvalues --    0.25645   0.26550   0.28302   0.28389   0.29262
 Alpha virt. eigenvalues --    0.30750   0.31260   0.31562   0.31776   0.32386

 Mulliken charges:
               1
     1  C   -0.299863
     2  C   -0.299636
     3  C   -0.475803
     4  H    0.149364
     5  H    0.150425
     6  H    0.152103
     7  H    0.152162
     8  H    0.155491
     9  H    0.155277
    10  H    0.160363
    11  C   -0.298007
    12  C   -0.307241
    13  C   -0.475740
    14  H    0.149605
    15  H    0.149931
    16  H    0.152406
    17  H    0.159357
    18  H    0.155584
    19  H    0.155246
    20  H    0.160187
    21  C   -0.300199
    22  C   -0.299525
    23  C   -0.481015
    24  H    0.151594
    25  H    0.149405
    26  H    0.152575
    27  H    0.151725
    28  H    0.154796
    29  H    0.160920
    30  H    0.159105
    31  C   -0.298361
    32  C   -0.299504
    33  C   -0.475688
    34  H    0.149348
    35  H    0.149627
    36  H    0.151447
    37  H    0.151996
    38  H    0.155236
    39  H    0.155131
    40  H    0.160176
 Sum of Mulliken charges =  -0.00000

 Dipole moment (field-independent basis, Debye):
    X=             -0.0401    Y=              0.0026    Z=             -0.0038  Tot=              0.0404
 Quadrupole moment (field-independent basis, Debye-Ang):
   XX=            -84.9074   YY=            -85.3281   ZZ=            -84.5207
   XY=             -0.3879   XZ=              0.9150   YZ=              0.7163

 Normal termination of Gaussian 16 at Thu May  6 05:24:04 2021.
