 Gaussian 16, Revision A.03,
 Gaussian 16:  EM64L-G16RevA.03 25-Dec-2016

 -------------
 #p 6-31g* mp2
 -------------

 ------------------------------------------------------
 Input file generated by CHIRIPA (05-May-2021 14:57:26)
 ------------------------------------------------------
 Symbolic Z-matrix:
 Charge =  0 Multiplicity = 1

                         Standard orientation:
 ---------------------------------------------------------------------
 Center     Atomic      Atomic             Coordinates (Angstroms)
 Number     Number       Type             X           Y           Z
 ---------------------------------------------------------------------
      1          6           0       -3.777253    2.602749    0.232374
      2          6           0       -4.891511    1.861008   -0.173544
      3          6           0       -4.795182    0.478598   -0.358503
      4          6           0       -3.563678   -0.132419   -0.127531
      5          6           0       -2.435450    0.579172    0.277475
      6          6           0       -2.554933    1.960595    0.456194
      7          1           0       -3.861077    3.676255    0.373631
      8          1           0       -5.842045    2.357052   -0.348103
      9          1           0       -5.641863   -0.119831   -0.672240
     10          1           0       -1.501239    0.056646    0.443712
     11          1           0       -1.687915    2.534104    0.771489
     12          7           0       -3.449442   -1.595392   -0.320036
     13          8           0       -2.353234   -2.110022   -0.109988
     14          8           0       -4.458276   -2.199740   -0.677325
     15          6           0        1.906329   -1.807870    0.913830
     16          6           0        1.678642   -0.443575    1.122105
     17          6           0        2.600522    0.506760    0.673162
     18          6           0        3.744552    0.055572    0.016721
     19          6           0        3.999698   -1.296693   -0.205918
     20          6           0        3.064089   -2.229332    0.251650
     21          1           0        1.184857   -2.539239    1.265929
     22          1           0        0.780385   -0.113370    1.636056
     23          1           0        2.449221    1.569141    0.821052
     24          1           0        4.904358   -1.595379   -0.721470
     25          1           0        3.243531   -3.288212    0.088501
     26          7           0        4.727773    1.052282   -0.463121
     27          8           0        5.727868    0.629055   -1.038727
     28          8           0        4.479708    2.237857   -0.254528
 ---------------------------------------------------------------------

 SCF Done:  E(RHF) =  -868.338306816     A.U. after   16 cycles
 E2 =    -0.2599486575D+01 EUMP2 =    -0.87093779339086D+03

 The electronic state is 1-A.
 Alpha  occ. eigenvalues --  -20.61476 -20.61436 -20.60838 -20.60822 -15.86510
 Alpha  occ. eigenvalues --  -15.85890 -11.31795 -11.31208 -11.28414 -11.28310
 Alpha  occ. eigenvalues --  -11.28038 -11.27897 -11.27770 -11.27426 -11.27373
 Alpha  occ. eigenvalues --  -11.27297 -11.26874 -11.26671  -1.60527  -1.59910
 Alpha  occ. eigenvalues --   -1.40087  -1.39466  -1.19951  -1.19388  -1.09350
 Alpha  occ. eigenvalues --   -1.08755  -1.05355  -1.04814  -0.96207  -0.95597
 Alpha  occ. eigenvalues --   -0.86752  -0.86193  -0.83054  -0.82457  -0.78127
 Alpha  occ. eigenvalues --   -0.77536  -0.72738  -0.72108  -0.71842  -0.71234
 Alpha  occ. eigenvalues --   -0.71060  -0.70409  -0.65610  -0.65388  -0.65035
 Alpha  occ. eigenvalues --   -0.64817  -0.62751  -0.62135  -0.55829  -0.55182
 Alpha  occ. eigenvalues --   -0.53668  -0.53489  -0.53087  -0.52873  -0.49499
 Alpha  occ. eigenvalues --   -0.49470  -0.48868  -0.48859  -0.45511  -0.44884
 Alpha  occ. eigenvalues --   -0.37901  -0.37290  -0.36950  -0.36428
 Alpha virt. eigenvalues --    0.04425   0.05044   0.10702   0.11092   0.15947
 Alpha virt. eigenvalues --    0.16500   0.19217   0.22145   0.25211   0.27167
 Alpha virt. eigenvalues --    0.28263   0.29450   0.30478   0.31020   0.31991

 Mulliken charges:
               1
     1  C   -0.169840
     2  C   -0.218349
     3  C   -0.169697
     4  C    0.159204
     5  C   -0.175617
     6  C   -0.218818
     7  H    0.228602
     8  H    0.225969
     9  H    0.277109
    10  H    0.272437
    11  H    0.222091
    12  N    0.488493
    13  O   -0.466950
    14  O   -0.456827
    15  C   -0.166252
    16  C   -0.222874
    17  C   -0.171221
    18  C    0.157915
    19  C   -0.169405
    20  C   -0.219148
    21  H    0.238142
    22  H    0.215485
    23  H    0.270584
    24  H    0.276333
    25  H    0.226666
    26  N    0.488389
    27  O   -0.459433
    28  O   -0.462985
 Sum of Mulliken charges =  -0.00000

 Dipole moment (field-independent basis, Debye):
    X=             -4.0071    Y=              1.4990    Z=              2.2995  Tot=              4.8571
 Quadrupole moment (field-independent basis, Debye-Ang):
   XX=           -120.9932   YY=           -104.0770   ZZ=           -105.5644
   XY=            -34.9796   XZ=              4.2938   YZ=              0.7587

 Normal termination of Gaussian 16 at Thu May  6 01:59:13 2021.
