 Gaussian 16, Revision A.03,
 Gaussian 16:  EM64L-G16RevA.03 25-Dec-2016

 -------------
 #p 6-31g* mp2
 -------------

 ------------------------------------------------------
 Input file generated by CHIRIPA (05-May-2021 14:55:21)
 ------------------------------------------------------
 Symbolic Z-matrix:
 Charge =  0 Multiplicity = 1

                         Standard orientation:
 ---------------------------------------------------------------------
 Center     Atomic      Atomic             Coordinates (Angstroms)
 Number     Number       Type             X           Y           Z
 ---------------------------------------------------------------------
      1          6           0        0.615558   -0.382007    1.377685
      2          6           0        0.815736    0.724134    0.545278
      3          6           0        2.032067    0.900404   -0.121067
      4          6           0        3.031047   -0.053187    0.068648
      5          6           0        2.862003   -1.165781    0.891357
      6          6           0        1.637529   -1.321778    1.547768
      7          1           0       -0.332480   -0.511063    1.891460
      8          1           0        0.023839    1.455570    0.411316
      9          1           0        2.213860    1.747461   -0.771347
     10          1           0        3.670150   -1.878077    1.005154
     11          1           0        1.484879   -2.181794    2.193612
     12          7           0        4.323033    0.122691   -0.631523
     13          8           0        5.187310   -0.731638   -0.447716
     14          8           0        4.446950    1.111541   -1.350867
     15          6           0       -3.994243   -0.542350   -0.115916
     16          6           0       -3.417305   -1.741613   -0.868842
     17          6           0       -4.202449   -3.029674   -0.619354
     18          1           0       -4.005636   -0.763937    0.960055
     19          1           0       -5.041318   -0.398679   -0.416561
     20          1           0       -2.371216   -1.882132   -0.567898
     21          1           0       -3.407107   -1.517072   -1.943130
     22          1           0       -5.243787   -2.913698   -0.936792
     23          1           0       -4.202011   -3.280833    0.446253
     24          1           0       -3.772841   -3.874203   -1.167140
     25          6           0       -3.220125    0.752716   -0.355239
     26          6           0       -3.797063    1.951979    0.397686
     27          6           0       -3.011919    3.240038    0.148199
     28          1           0       -2.173050    0.609045   -0.054594
     29          1           0       -3.208732    0.974301   -1.431210
     30          1           0       -3.807261    1.727437    1.471974
     31          1           0       -4.843152    2.092497    0.096742
     32          1           0       -3.012357    3.491198   -0.917408
     33          1           0       -1.970581    3.124064    0.465636
     34          1           0       -3.441527    4.084568    0.695984
 ---------------------------------------------------------------------

 SCF Done:  E(RHF) =  -669.535070293     A.U. after   15 cycles
 E2 =    -0.2092552110D+01 EUMP2 =    -0.67162762240304D+03

 The electronic state is 1-A.
 Alpha  occ. eigenvalues --  -20.60768 -20.60763 -15.85821 -11.31203 -11.27769
 Alpha  occ. eigenvalues --  -11.27756 -11.27524 -11.26794 -11.26757 -11.22565
 Alpha  occ. eigenvalues --  -11.22387 -11.22319 -11.22225 -11.22113 -11.21691
 Alpha  occ. eigenvalues --   -1.59843  -1.39396  -1.19375  -1.09343  -1.08769
 Alpha  occ. eigenvalues --   -1.04779  -1.04386  -0.96844  -0.95602  -0.87856
 Alpha  occ. eigenvalues --   -0.86187  -0.82431  -0.80446  -0.79154  -0.77472
 Alpha  occ. eigenvalues --   -0.72040  -0.71166  -0.70493  -0.66070  -0.65024
 Alpha  occ. eigenvalues --   -0.64747  -0.62190  -0.61721  -0.60199  -0.58443
 Alpha  occ. eigenvalues --   -0.56167  -0.55278  -0.53504  -0.53279  -0.53091
 Alpha  occ. eigenvalues --   -0.52892  -0.50806  -0.48841  -0.48794  -0.48712
 Alpha  occ. eigenvalues --   -0.47475  -0.46656  -0.46599  -0.44798  -0.44644
 Alpha  occ. eigenvalues --   -0.37345  -0.36366
 Alpha virt. eigenvalues --    0.05038   0.11154   0.16477   0.18763   0.22196
 Alpha virt. eigenvalues --    0.23491   0.25305   0.25701   0.26601   0.28330
 Alpha virt. eigenvalues --    0.29493   0.30565   0.31044   0.31289   0.31796

 Mulliken charges:
               1
     1  C   -0.173513
     2  C   -0.223913
     3  C   -0.173195
     4  C    0.158943
     5  C   -0.171052
     6  C   -0.218657
     7  H    0.226060
     8  H    0.233249
     9  H    0.276423
    10  H    0.275699
    11  H    0.223521
    12  N    0.488025
    13  O   -0.460413
    14  O   -0.460143
    15  C   -0.298456
    16  C   -0.300962
    17  C   -0.476072
    18  H    0.146350
    19  H    0.153407
    20  H    0.150600
    21  H    0.155331
    22  H    0.157205
    23  H    0.153570
    24  H    0.162952
    25  C   -0.304226
    26  C   -0.300810
    27  C   -0.478653
    28  H    0.143425
    29  H    0.154523
    30  H    0.150634
    31  H    0.156986
    32  H    0.159636
    33  H    0.147663
    34  H    0.165864
 Sum of Mulliken charges =  -0.00000

 Dipole moment (field-independent basis, Debye):
    X=             -4.7203    Y=             -0.6132    Z=              2.3730  Tot=              5.3186
 Quadrupole moment (field-independent basis, Debye-Ang):
   XX=           -121.4126   YY=            -91.9649   ZZ=            -93.5273
   XY=             -4.0924   XZ=              8.8374   YZ=             -2.3363

 Normal termination of Gaussian 16 at Wed May  5 15:57:02 2021.
