 Gaussian 16, Revision A.03,
 Gaussian 16:  EM64L-G16RevA.03 25-Dec-2016

 -------------
 #p 6-31g* mp2
 -------------

 ------------------------------------------------------
 Input file generated by CHIRIPA (05-May-2021 14:51:13)
 ------------------------------------------------------
 Symbolic Z-matrix:
 Charge =  0 Multiplicity = 1

                         Standard orientation:
 ---------------------------------------------------------------------
 Center     Atomic      Atomic             Coordinates (Angstroms)
 Number     Number       Type             X           Y           Z
 ---------------------------------------------------------------------
      1          6           0       -4.018300    0.666357   -0.087648
      2          6           0       -2.824695    0.969659    0.818607
      3          6           0       -2.060866    2.223086    0.390496
      4          1           0       -3.664982    0.547103   -1.121036
      5          1           0       -4.698510    1.529323   -0.087505
      6          1           0       -2.147628    0.105833    0.817842
      7          1           0       -3.180871    1.088016    1.849988
      8          1           0       -2.717110    3.099217    0.408923
      9          1           0       -1.677995    2.111454   -0.629087
     10          1           0       -1.211718    2.421270    1.051957
     11          6           0       -4.791926   -0.583786    0.327531
     12          6           0       -5.985531   -0.887088   -0.578725
     13          6           0       -6.749360   -2.140515   -0.150613
     14          1           0       -4.111716   -1.446752    0.327388
     15          1           0       -5.145244   -0.464532    1.360918
     16          1           0       -5.629355   -1.005445   -1.610105
     17          1           0       -6.662599   -0.023262   -0.577960
     18          1           0       -7.132231   -2.028883    0.868969
     19          1           0       -6.093117   -3.016646   -0.169041
     20          1           0       -7.598508   -2.338699   -0.812074
     21          6           0        4.804286   -0.631749    0.154732
     22          6           0        6.295677   -0.561345   -0.175092
     23          6           0        7.080860   -1.749571    0.381144
     24          1           0        4.678192   -0.678302    1.245090
     25          1           0        4.390559   -1.566661   -0.247964
     26          1           0        6.706171    0.373807    0.226905
     27          1           0        6.418227   -0.514761   -1.264784
     28          1           0        6.698679   -2.689894   -0.029139
     29          1           0        6.988258   -1.796277    1.471026
     30          1           0        8.144667   -1.679006    0.133762
     31          6           0        4.005940    0.549178   -0.394614
     32          6           0        2.514550    0.478773   -0.064790
     33          6           0        1.729366    1.667000   -0.621026
     34          1           0        4.419668    1.484089    0.008081
     35          1           0        4.132034    0.595730   -1.484971
     36          1           0        2.391999    0.432190    1.024901
     37          1           0        2.104055   -0.456378   -0.466788
     38          1           0        1.821968    1.713707   -1.710908
     39          1           0        2.111548    2.607323   -0.210744
     40          1           0        0.665560    1.596436   -0.373644
 ---------------------------------------------------------------------

 SCF Done:  E(RHF) =  -470.732697562     A.U. after   11 cycles
 E2 =    -0.1582576597D+01 EUMP2 =    -0.47231527415908D+03

 The electronic state is 1-A.
 Alpha  occ. eigenvalues --  -11.21631 -11.21610 -11.21582 -11.21550 -11.21420
 Alpha  occ. eigenvalues --  -11.21372 -11.21360 -11.21311 -11.21080 -11.21078
 Alpha  occ. eigenvalues --  -11.21058 -11.20908  -1.08449  -1.08392  -1.03566
 Alpha  occ. eigenvalues --   -1.03473  -0.96051  -0.95890  -0.87099  -0.86877
 Alpha  occ. eigenvalues --   -0.79656  -0.79511  -0.78259  -0.78208  -0.65085
 Alpha  occ. eigenvalues --   -0.65026  -0.61009  -0.60885  -0.59550  -0.59151
 Alpha  occ. eigenvalues --   -0.57661  -0.57501  -0.55308  -0.55218  -0.52937
 Alpha  occ. eigenvalues --   -0.52456  -0.52416  -0.52262  -0.49908  -0.49872
 Alpha  occ. eigenvalues --   -0.47930  -0.47855  -0.46639  -0.46588  -0.45800
 Alpha  occ. eigenvalues --   -0.45750  -0.45724  -0.45678  -0.43903  -0.43587
 Alpha virt. eigenvalues --    0.21960   0.23044   0.23573   0.25146   0.26560
 Alpha virt. eigenvalues --    0.26677   0.27331   0.27387   0.27601   0.28958
 Alpha virt. eigenvalues --    0.30940   0.31437   0.31635   0.31692   0.32057

 Mulliken charges:
               1
     1  C   -0.298500
     2  C   -0.301254
     3  C   -0.480492
     4  H    0.149943
     5  H    0.149723
     6  H    0.152517
     7  H    0.152352
     8  H    0.156447
     9  H    0.157407
    10  H    0.162357
    11  C   -0.298324
    12  C   -0.299679
    13  C   -0.475718
    14  H    0.149577
    15  H    0.149700
    16  H    0.151961
    17  H    0.151967
    18  H    0.155198
    19  H    0.155195
    20  H    0.160286
    21  C   -0.298165
    22  C   -0.299592
    23  C   -0.475670
    24  H    0.149515
    25  H    0.149303
    26  H    0.151904
    27  H    0.151880
    28  H    0.155102
    29  H    0.155135
    30  H    0.160185
    31  C   -0.298297
    32  C   -0.298861
    33  C   -0.485530
    34  H    0.149438
    35  H    0.149495
    36  H    0.151320
    37  H    0.151025
    38  H    0.153796
    39  H    0.154340
    40  H    0.173013
 Sum of Mulliken charges =  -0.00000

 Dipole moment (field-independent basis, Debye):
    X=             -0.0558    Y=              0.0180    Z=              0.0079  Tot=              0.0592
 Quadrupole moment (field-independent basis, Debye-Ang):
   XX=            -85.4656   YY=            -85.5822   ZZ=            -83.8173
   XY=             -0.3236   XZ=             -0.3137   YZ=              1.2643

 Normal termination of Gaussian 16 at Wed May  5 15:21:40 2021.
