 Gaussian 16, Revision A.03,
 Gaussian 16:  EM64L-G16RevA.03 25-Dec-2016

 -------------
 #p 6-31g* mp2
 -------------

 ------------------------------------------------------
 Input file generated by CHIRIPA (05-May-2021 14:57:21)
 ------------------------------------------------------
 Symbolic Z-matrix:
 Charge =  0 Multiplicity = 1

                         Standard orientation:
 ---------------------------------------------------------------------
 Center     Atomic      Atomic             Coordinates (Angstroms)
 Number     Number       Type             X           Y           Z
 ---------------------------------------------------------------------
      1          6           0        3.341973    2.432377    0.413599
      2          6           0        2.257766    1.650663    0.001361
      3          6           0        2.425349    0.288636   -0.265747
      4          6           0        3.696687   -0.261458   -0.109587
      5          6           0        4.796501    0.491069    0.299563
      6          6           0        4.605652    1.851109    0.561124
      7          1           0        3.202753    3.489660    0.618941
      8          1           0        1.275238    2.099397   -0.114057
      9          1           0        1.603279   -0.339759   -0.586276
     10          1           0        5.763943    0.015450    0.405674
     11          1           0        5.449473    2.455765    0.881128
     12          7           0        3.886415   -1.702323   -0.389426
     13          8           0        5.016589   -2.163065   -0.244298
     14          8           0        2.901358   -2.343649   -0.748593
     15          6           0       -3.180388    2.456289   -0.399751
     16          6           0       -4.423893    1.913411   -0.739606
     17          6           0       -4.703628    0.567015   -0.487586
     18          6           0       -3.712308   -0.211160    0.108248
     19          6           0       -2.463775    0.300526    0.458436
     20          6           0       -2.206017    1.649537    0.197133
     21          1           0       -2.971619    3.503217   -0.599132
     22          1           0       -5.182502    2.537576   -1.203260
     23          1           0       -5.657838    0.120974   -0.740471
     24          1           0       -1.727563   -0.346635    0.919514
     25          1           0       -1.239407    2.068443    0.462140
     26          7           0       -3.996819   -1.637914    0.379964
     27          8           0       -3.106574   -2.302413    0.905835
     28          8           0       -5.104677   -2.064687    0.061919
 ---------------------------------------------------------------------

 SCF Done:  E(RHF) =  -868.336102091     A.U. after   16 cycles
 E2 =    -0.2599895412D+01 EUMP2 =    -0.87093599750251D+03

 The electronic state is 1-A.
 Alpha  occ. eigenvalues --  -20.60976 -20.60974 -20.60963 -20.60961 -15.86035
 Alpha  occ. eigenvalues --  -15.86034 -11.31603 -11.31594 -11.28261 -11.28246
 Alpha  occ. eigenvalues --  -11.28185 -11.28174 -11.28036 -11.28018 -11.27400
 Alpha  occ. eigenvalues --  -11.27381 -11.27225 -11.27213  -1.60046  -1.60043
 Alpha  occ. eigenvalues --   -1.39593  -1.39590  -1.19817  -1.19804  -1.09178
 Alpha  occ. eigenvalues --   -1.09164  -1.05281  -1.05237  -0.95969  -0.95960
 Alpha  occ. eigenvalues --   -0.86691  -0.86611  -0.82842  -0.82770  -0.77870
 Alpha  occ. eigenvalues --   -0.77758  -0.72249  -0.72244  -0.71374  -0.71371
 Alpha  occ. eigenvalues --   -0.70933  -0.70905  -0.65506  -0.65478  -0.65460
 Alpha  occ. eigenvalues --   -0.65111  -0.62766  -0.62443  -0.55793  -0.55723
 Alpha  occ. eigenvalues --   -0.53581  -0.53556  -0.53536  -0.53178  -0.49036
 Alpha  occ. eigenvalues --   -0.49014  -0.48991  -0.48989  -0.44956  -0.44950
 Alpha  occ. eigenvalues --   -0.37805  -0.37793  -0.36877  -0.36855
 Alpha virt. eigenvalues --    0.04733   0.04754   0.10738   0.10773   0.16078
 Alpha virt. eigenvalues --    0.16170   0.18272   0.22058   0.24604   0.26709
 Alpha virt. eigenvalues --    0.28079   0.28995   0.29538   0.31535   0.32163

 Mulliken charges:
               1
     1  C   -0.170800
     2  C   -0.222564
     3  C   -0.172389
     4  C    0.159463
     5  C   -0.169519
     6  C   -0.218302
     7  H    0.225050
     8  H    0.217013
     9  H    0.277049
    10  H    0.277767
    11  H    0.225067
    12  N    0.487875
    13  O   -0.459188
    14  O   -0.456892
    15  C   -0.170635
    16  C   -0.218275
    17  C   -0.169327
    18  C    0.159660
    19  C   -0.172497
    20  C   -0.223581
    21  H    0.224829
    22  H    0.225182
    23  H    0.277918
    24  H    0.277554
    25  H    0.217517
    26  N    0.487931
    27  O   -0.456815
    28  O   -0.459091
 Sum of Mulliken charges =  -0.00000

 Dipole moment (field-independent basis, Debye):
    X=              0.3167    Y=              9.9041    Z=              0.0095  Tot=              9.9092
 Quadrupole moment (field-independent basis, Debye-Ang):
   XX=           -106.6278   YY=           -110.8066   ZZ=           -105.7963
   XY=             -0.0302   XZ=             10.9182   YZ=             -0.2439

 Normal termination of Gaussian 16 at Thu May  6 21:03:44 2021.
