 Gaussian 16, Revision A.03,
 Gaussian 16:  EM64L-G16RevA.03 25-Dec-2016

 -------------
 #p 6-31g* mp2
 -------------

 ------------------------------------------------------
 Input file generated by CHIRIPA (05-May-2021 14:51:11)
 ------------------------------------------------------
 Symbolic Z-matrix:
 Charge =  0 Multiplicity = 1

                         Standard orientation:
 ---------------------------------------------------------------------
 Center     Atomic      Atomic             Coordinates (Angstroms)
 Number     Number       Type             X           Y           Z
 ---------------------------------------------------------------------
      1          6           0       -4.255449    0.247830    0.391972
      2          6           0       -2.907887   -0.129467   -0.224234
      3          6           0       -1.734802    0.606901    0.423399
      4          1           0       -4.404040    1.332211    0.297182
      5          1           0       -4.232841    0.028354    1.468408
      6          1           0       -2.933508    0.089367   -1.299441
      7          1           0       -2.762572   -1.213102   -0.128137
      8          1           0       -1.680852    0.380066    1.493089
      9          1           0       -1.852759    1.689936    0.315129
     10          1           0       -0.781287    0.322250   -0.032280
     11          6           0       -5.437900   -0.480112   -0.244924
     12          6           0       -6.785461   -0.102814    0.371282
     13          6           0       -7.958546   -0.839182   -0.276351
     14          1           0       -5.460508   -0.260635   -1.321360
     15          1           0       -5.289308   -1.564492   -0.150134
     16          1           0       -6.930776    0.980821    0.275185
     17          1           0       -6.759841   -0.321649    1.446489
     18          1           0       -7.840590   -1.922217   -0.168081
     19          1           0       -8.012496   -0.612347   -1.346040
     20          1           0       -8.912061   -0.554531    0.179328
     21          6           0        4.397420    0.721774    0.048177
     22          6           0        2.984586    0.550861   -0.510996
     23          6           0        2.097769    1.770775   -0.259684
     24          1           0        4.336585    0.916510    1.127678
     25          1           0        4.858281    1.610735   -0.404316
     26          1           0        2.527034   -0.338305   -0.058618
     27          1           0        3.048803    0.356319   -1.589257
     28          1           0        2.528738    2.662876   -0.725542
     29          1           0        2.004005    1.964305    0.813794
     30          1           0        1.092372    1.627113   -0.667603
     31          6           0        5.295928   -0.489493   -0.195225
     32          6           0        6.708762   -0.318579    0.363948
     33          6           0        7.595580   -1.538494    0.112636
     34          1           0        4.835067   -1.378454    0.257268
     35          1           0        5.356764   -0.684229   -1.274726
     36          1           0        6.644546   -0.124038    1.442208
     37          1           0        7.166315    0.570586   -0.088430
     38          1           0        7.689343   -1.732024   -0.960842
     39          1           0        7.164610   -2.430595    0.578494
     40          1           0        8.600977   -1.394831    0.520554
 ---------------------------------------------------------------------

 SCF Done:  E(RHF) =  -470.733090097     A.U. after   11 cycles
 E2 =    -0.1582214475D+01 EUMP2 =    -0.47231530457223D+03

 The electronic state is 1-A.
 Alpha  occ. eigenvalues --  -11.21598 -11.21593 -11.21587 -11.21575 -11.21400
 Alpha  occ. eigenvalues --  -11.21384 -11.21340 -11.21324 -11.21069 -11.21061
 Alpha  occ. eigenvalues --  -11.21039 -11.20969  -1.08426  -1.08405  -1.03539
 Alpha  occ. eigenvalues --   -1.03487  -0.96018  -0.95906  -0.87061  -0.86896
 Alpha  occ. eigenvalues --   -0.79622  -0.79529  -0.78238  -0.78220  -0.65055
 Alpha  occ. eigenvalues --   -0.65037  -0.60923  -0.60902  -0.59631  -0.59109
 Alpha  occ. eigenvalues --   -0.57711  -0.57422  -0.55261  -0.55232  -0.52990
 Alpha  occ. eigenvalues --   -0.52466  -0.52425  -0.52164  -0.49913  -0.49879
 Alpha  occ. eigenvalues --   -0.47945  -0.47835  -0.46622  -0.46597  -0.45780
 Alpha  occ. eigenvalues --   -0.45761  -0.45705  -0.45688  -0.43935  -0.43564
 Alpha virt. eigenvalues --    0.22050   0.22986   0.23483   0.24928   0.26606
 Alpha virt. eigenvalues --    0.26647   0.27074   0.27427   0.27619   0.28846
 Alpha virt. eigenvalues --    0.30828   0.31346   0.31431   0.31768   0.32084

 Mulliken charges:
               1
     1  C   -0.298515
     2  C   -0.299564
     3  C   -0.480000
     4  H    0.149705
     5  H    0.149484
     6  H    0.151756
     7  H    0.151777
     8  H    0.155024
     9  H    0.155500
    10  H    0.165511
    11  C   -0.298240
    12  C   -0.299630
    13  C   -0.475697
    14  H    0.149510
    15  H    0.149607
    16  H    0.151960
    17  H    0.151906
    18  H    0.155159
    19  H    0.155180
    20  H    0.160244
    21  C   -0.298117
    22  C   -0.300880
    23  C   -0.479631
    24  H    0.149735
    25  H    0.149588
    26  H    0.151925
    27  H    0.151608
    28  H    0.154500
    29  H    0.155587
    30  H    0.165249
    31  C   -0.298269
    32  C   -0.299643
    33  C   -0.475690
    34  H    0.149454
    35  H    0.149560
    36  H    0.151939
    37  H    0.151910
    38  H    0.155144
    39  H    0.155146
    40  H    0.160209
 Sum of Mulliken charges =  -0.00000

 Dipole moment (field-independent basis, Debye):
    X=             -0.0122    Y=              0.0056    Z=              0.0059  Tot=              0.0147
 Quadrupole moment (field-independent basis, Debye-Ang):
   XX=            -86.3186   YY=            -84.9130   ZZ=            -83.6597
   XY=              0.2138   XZ=             -0.4614   YZ=             -1.1477

 Normal termination of Gaussian 16 at Wed May  5 18:15:43 2021.
