 Gaussian 16, Revision A.03,
 Gaussian 16:  EM64L-G16RevA.03 25-Dec-2016

 -------------
 #p 6-31g* mp2
 -------------

 ------------------------------------------------------
 Input file generated by CHIRIPA (05-May-2021 14:53:15)
 ------------------------------------------------------
 Symbolic Z-matrix:
 Charge =  0 Multiplicity = 1

                         Standard orientation:
 ---------------------------------------------------------------------
 Center     Atomic      Atomic             Coordinates (Angstroms)
 Number     Number       Type             X           Y           Z
 ---------------------------------------------------------------------
      1          6           0        2.701111    1.051378   -0.120027
      2          6           0        2.391629    2.129992    0.918625
      3          6           0        1.244063    3.047088    0.494572
      4          1           0        2.948429    1.532367   -1.076285
      5          1           0        1.797310    0.451810   -0.296257
      6          1           0        3.296128    2.726472    1.093864
      7          1           0        2.145205    1.646384    1.872573
      8          1           0        0.327017    2.469754    0.338646
      9          1           0        1.484479    3.555979   -0.444487
     10          1           0        1.039659    3.810662    1.251561
     11          6           0        3.846041    0.126666    0.289568
     12          6           0        4.155523   -0.951948   -0.749085
     13          6           0        5.303089   -1.869044   -0.325031
     14          1           0        4.749842    0.726233    0.465797
     15          1           0        3.598723   -0.354323    1.245826
     16          1           0        4.401947   -0.468340   -1.703032
     17          1           0        3.251024   -1.548428   -0.924324
     18          1           0        5.062673   -2.377935    0.614028
     19          1           0        6.220135   -1.291710   -0.169105
     20          1           0        5.507493   -2.632618   -1.082021
     21          6           0       -3.607913    1.783553   -0.543934
     22          6           0       -2.232844    1.601699   -0.724580
     23          6           0       -1.640077    0.362850   -0.462993
     24          6           0       -2.455929   -0.677089   -0.020044
     25          6           0       -3.828831   -0.527168    0.169575
     26          6           0       -4.400122    0.720414   -0.098220
     27          1           0       -4.060048    2.749314   -0.749552
     28          1           0       -1.615148    2.425563   -1.070623
     29          1           0       -0.578090    0.194476   -0.594340
     30          1           0       -4.418700   -1.367239    0.515627
     31          1           0       -5.468286    0.858754    0.042963
     32          7           0       -1.839761   -1.993226    0.260172
     33          8           0       -2.580378   -2.893537    0.649483
     34          8           0       -0.627859   -2.099581    0.085189
 ---------------------------------------------------------------------

 SCF Done:  E(RHF) =  -669.534771085     A.U. after   15 cycles
 E2 =    -0.2093346707D+01 EUMP2 =    -0.67162811779176D+03

 The electronic state is 1-A.
 Alpha  occ. eigenvalues --  -20.60834 -20.60827 -15.85883 -11.31217 -11.27786
 Alpha  occ. eigenvalues --  -11.27757 -11.27508 -11.26797 -11.26743 -11.21872
 Alpha  occ. eigenvalues --  -11.21655 -11.21553 -11.21256 -11.21196 -11.20692
 Alpha  occ. eigenvalues --   -1.59905  -1.39460  -1.19391  -1.08786  -1.08445
 Alpha  occ. eigenvalues --   -1.04799  -1.03548  -0.96045  -0.95629  -0.87078
 Alpha  occ. eigenvalues --   -0.86181  -0.82473  -0.79666  -0.78235  -0.77494
 Alpha  occ. eigenvalues --   -0.72104  -0.71225  -0.70507  -0.65131  -0.65024
 Alpha  occ. eigenvalues --   -0.64779  -0.62216  -0.60872  -0.59433  -0.57634
 Alpha  occ. eigenvalues --   -0.55377  -0.55282  -0.53150  -0.52991  -0.52694
 Alpha  occ. eigenvalues --   -0.52356  -0.49976  -0.48862  -0.48856  -0.47951
 Alpha  occ. eigenvalues --   -0.46656  -0.45757  -0.45611  -0.44870  -0.43793
 Alpha  occ. eigenvalues --   -0.37364  -0.36352
 Alpha virt. eigenvalues --    0.04975   0.11248   0.16356   0.20262   0.23013
 Alpha virt. eigenvalues --    0.24255   0.25343   0.26541   0.27267   0.28341
 Alpha virt. eigenvalues --    0.30072   0.30685   0.31405   0.31729   0.32093

 Mulliken charges:
               1
     1  C   -0.308030
     2  C   -0.299326
     3  C   -0.484035
     4  H    0.147858
     5  H    0.154568
     6  H    0.153940
     7  H    0.156676
     8  H    0.150795
     9  H    0.153087
    10  H    0.163040
    11  C   -0.296959
    12  C   -0.302969
    13  C   -0.475955
    14  H    0.148106
    15  H    0.154692
    16  H    0.148530
    17  H    0.163005
    18  H    0.158074
    19  H    0.152507
    20  H    0.160896
    21  C   -0.171456
    22  C   -0.223885
    23  C   -0.178569
    24  C    0.155462
    25  C   -0.169956
    26  C   -0.219016
    27  H    0.226111
    28  H    0.228520
    29  H    0.290593
    30  H    0.275697
    31  H    0.223612
    32  N    0.487033
    33  O   -0.459694
    34  O   -0.462958
 Sum of Mulliken charges =  -0.00000

 Dipole moment (field-independent basis, Debye):
    X=             -2.1427    Y=              4.5271    Z=             -0.9278  Tot=              5.0938
 Quadrupole moment (field-independent basis, Debye-Ang):
   XX=            -80.0904   YY=           -101.1878   ZZ=            -94.9889
   XY=             -7.4828   XZ=              0.9680   YZ=             -0.0879

 Normal termination of Gaussian 16 at Thu May  6 05:52:37 2021.
