 Gaussian 16, Revision A.03,
 Gaussian 16:  EM64L-G16RevA.03 25-Dec-2016

 -------------
 #p 6-31g* mp2
 -------------

 ------------------------------------------------------
 Input file generated by CHIRIPA (05-May-2021 14:53:14)
 ------------------------------------------------------
 Symbolic Z-matrix:
 Charge =  0 Multiplicity = 1

                         Standard orientation:
 ---------------------------------------------------------------------
 Center     Atomic      Atomic             Coordinates (Angstroms)
 Number     Number       Type             X           Y           Z
 ---------------------------------------------------------------------
      1          6           0        2.960994   -1.146516   -0.340350
      2          6           0        1.522579   -1.250635    0.167690
      3          6           0        0.788754   -2.474389   -0.381602
      4          1           0        2.953530   -1.109116   -1.438299
      5          1           0        3.507565   -2.058317   -0.062368
      6          1           0        0.979267   -0.338310   -0.109964
      7          1           0        1.533456   -1.287598    1.264563
      8          1           0        1.305621   -3.395282   -0.092801
      9          1           0        0.748282   -2.440600   -1.475138
     10          1           0       -0.237655   -2.529248   -0.005656
     11          6           0        3.707642    0.071786    0.200006
     12          6           0        5.146058    0.175905   -0.308034
     13          6           0        5.879883    1.399659    0.241258
     14          1           0        3.161072    0.983587   -0.077976
     15          1           0        3.715106    0.034386    1.297954
     16          1           0        5.135180    0.212868   -1.404908
     17          1           0        5.689370   -0.736420   -0.030380
     18          1           0        5.920354    1.365870    1.334794
     19          1           0        5.363016    2.320551   -0.047544
     20          1           0        6.906292    1.454517   -0.134688
     21          6           0       -2.057532    2.872673   -0.168263
     22          6           0       -1.937349    2.238682    1.072757
     23          6           0       -2.237963    0.880051    1.208050
     24          6           0       -2.657857    0.182683    0.076389
     25          6           0       -2.787461    0.786076   -1.173575
     26          6           0       -2.481457    2.145628   -1.285499
     27          1           0       -1.821915    3.928448   -0.264286
     28          1           0       -1.608353    2.800817    1.942131
     29          1           0       -2.153624    0.364295    2.156891
     30          1           0       -3.117831    0.199395   -2.022149
     31          1           0       -2.575704    2.635381   -2.250541
     32          7           0       -2.978956   -1.256126    0.207248
     33          8           0       -3.346850   -1.848289   -0.804994
     34          8           0       -2.856660   -1.764456    1.319579
 ---------------------------------------------------------------------

 SCF Done:  E(RHF) =  -669.536023126     A.U. after   15 cycles
 E2 =    -0.2091956345D+01 EUMP2 =    -0.67162797947115D+03

 The electronic state is 1-A.
 Alpha  occ. eigenvalues --  -20.60870 -20.60863 -15.85902 -11.31252 -11.27818
 Alpha  occ. eigenvalues --  -11.27813 -11.27557 -11.26825 -11.26815 -11.21628
 Alpha  occ. eigenvalues --  -11.21379 -11.21327 -11.21214 -11.21166 -11.20490
 Alpha  occ. eigenvalues --   -1.59943  -1.39493  -1.19421  -1.08822  -1.08327
 Alpha  occ. eigenvalues --   -1.04817  -1.03373  -0.95808  -0.95660  -0.86817
 Alpha  occ. eigenvalues --   -0.86216  -0.82491  -0.79447  -0.78141  -0.77542
 Alpha  occ. eigenvalues --   -0.72123  -0.71287  -0.70527  -0.65073  -0.64963
 Alpha  occ. eigenvalues --   -0.64819  -0.62164  -0.60775  -0.59181  -0.57413
 Alpha  occ. eigenvalues --   -0.55322  -0.55102  -0.53152  -0.52909  -0.52457
 Alpha  occ. eigenvalues --   -0.52230  -0.49754  -0.48887  -0.48884  -0.47753
 Alpha  occ. eigenvalues --   -0.46497  -0.45674  -0.45606  -0.44895  -0.43613
 Alpha  occ. eigenvalues --   -0.37394  -0.36412
 Alpha virt. eigenvalues --    0.04968   0.11228   0.16455   0.21360   0.22908
 Alpha virt. eigenvalues --    0.24339   0.26690   0.27248   0.27509   0.27978
 Alpha virt. eigenvalues --    0.28373   0.30851   0.31498   0.31834   0.32199

 Mulliken charges:
               1
     1  C   -0.297661
     2  C   -0.301865
     3  C   -0.481420
     4  H    0.148812
     5  H    0.150519
     6  H    0.148635
     7  H    0.151321
     8  H    0.156025
     9  H    0.153621
    10  H    0.172590
    11  C   -0.297516
    12  C   -0.299436
    13  C   -0.475387
    14  H    0.146380
    15  H    0.148839
    16  H    0.151660
    17  H    0.152953
    18  H    0.154924
    19  H    0.153095
    20  H    0.160406
    21  C   -0.170813
    22  C   -0.218595
    23  C   -0.170032
    24  C    0.158501
    25  C   -0.171037
    26  C   -0.218862
    27  H    0.225859
    28  H    0.223930
    29  H    0.276074
    30  H    0.275897
    31  H    0.223609
    32  N    0.487541
    33  O   -0.458542
    34  O   -0.460023
 Sum of Mulliken charges =  -0.00000

 Dipole moment (field-independent basis, Debye):
    X=              1.0164    Y=              5.0200    Z=             -0.4530  Tot=              5.1419
 Quadrupole moment (field-independent basis, Debye-Ang):
   XX=           -101.8943   YY=            -93.6998   ZZ=            -89.5644
   XY=            -14.1454   XZ=              2.6868   YZ=             -0.2084

 Normal termination of Gaussian 16 at Wed May  5 18:38:22 2021.
