 Gaussian 16, Revision A.03,
 Gaussian 16:  EM64L-G16RevA.03 25-Dec-2016

 -------------
 #p 6-31g* mp2
 -------------

 ------------------------------------------------------
 Input file generated by CHIRIPA (05-May-2021 14:57:26)
 ------------------------------------------------------
 Symbolic Z-matrix:
 Charge =  0 Multiplicity = 1

                         Standard orientation:
 ---------------------------------------------------------------------
 Center     Atomic      Atomic             Coordinates (Angstroms)
 Number     Number       Type             X           Y           Z
 ---------------------------------------------------------------------
      1          6           0        2.163212   -2.206906   -1.396170
      2          6           0        3.366722   -1.979312   -0.720681
      3          6           0        3.625507   -0.739187   -0.129352
      4          6           0        2.654247    0.255371   -0.233257
      5          6           0        1.445543    0.059280   -0.899496
      6          6           0        1.208147   -1.188678   -1.483268
      7          1           0        1.970489   -3.173307   -1.852594
      8          1           0        4.110260   -2.768237   -0.651456
      9          1           0        4.548739   -0.535932    0.399561
     10          1           0        0.723552    0.865140   -0.951811
     11          1           0        0.272596   -1.362594   -2.007236
     12          7           0        2.916889    1.572382    0.388757
     13          8           0        2.044993    2.432194    0.283125
     14          8           0        3.989671    1.719906    0.970145
     15          6           0       -3.900545    1.378928   -1.305667
     16          6           0       -2.755367    1.891212   -0.687077
     17          6           0       -2.033024    1.114913    0.224037
     18          6           0       -2.486288   -0.175325    0.494460
     19          6           0       -3.623423   -0.713995   -0.105580
     20          6           0       -4.330160    0.080250   -1.013459
     21          1           0       -4.455617    1.988947   -2.012186
     22          1           0       -2.419389    2.899443   -0.912094
     23          1           0       -1.143084    1.486562    0.717291
     24          1           0       -3.933759   -1.722623    0.138913
     25          1           0       -5.219167   -0.320211   -1.492359
     26          7           0       -1.729837   -1.006657    1.457305
     27          8           0       -2.149917   -2.140341    1.678507
     28          8           0       -0.731172   -0.508830    1.972548
 ---------------------------------------------------------------------

 SCF Done:  E(RHF) =  -868.338710736     A.U. after   16 cycles
 E2 =    -0.2601915120D+01 EUMP2 =    -0.87094062585523D+03

 The electronic state is 1-A.
 Alpha  occ. eigenvalues --  -20.61053 -20.61007 -20.60611 -20.60565 -15.86073
 Alpha  occ. eigenvalues --  -15.85625 -11.31519 -11.30780 -11.28100 -11.27966
 Alpha  occ. eigenvalues --  -11.27795 -11.27416 -11.27343 -11.27115 -11.27091
 Alpha  occ. eigenvalues --  -11.27035 -11.26371 -11.26320  -1.60102  -1.59639
 Alpha  occ. eigenvalues --   -1.39652  -1.39210  -1.19691  -1.18949  -1.09061
 Alpha  occ. eigenvalues --   -1.08384  -1.05081  -1.04358  -0.95884  -0.95260
 Alpha  occ. eigenvalues --   -0.86468  -0.85773  -0.82695  -0.82125  -0.77755
 Alpha  occ. eigenvalues --   -0.77186  -0.72290  -0.71873  -0.71444  -0.70922
 Alpha  occ. eigenvalues --   -0.70761  -0.70100  -0.65313  -0.65054  -0.64639
 Alpha  occ. eigenvalues --   -0.64393  -0.62425  -0.61702  -0.55551  -0.54891
 Alpha  occ. eigenvalues --   -0.53436  -0.53137  -0.52639  -0.52453  -0.49059
 Alpha  occ. eigenvalues --   -0.49041  -0.48631  -0.48586  -0.45042  -0.44656
 Alpha  occ. eigenvalues --   -0.37687  -0.36890  -0.36713  -0.35882
 Alpha virt. eigenvalues --    0.04701   0.05360   0.10825   0.11790   0.16191
 Alpha virt. eigenvalues --    0.16877   0.21012   0.21909   0.26551   0.27633
 Alpha virt. eigenvalues --    0.27964   0.29072   0.30838   0.31225   0.32130

 Mulliken charges:
               1
     1  C   -0.166932
     2  C   -0.217484
     3  C   -0.168206
     4  C    0.163944
     5  C   -0.163681
     6  C   -0.222151
     7  H    0.225158
     8  H    0.222954
     9  H    0.275022
    10  H    0.266692
    11  H    0.220488
    12  N    0.490792
    13  O   -0.470768
    14  O   -0.457850
    15  C   -0.171366
    16  C   -0.222402
    17  C   -0.186968
    18  C    0.157095
    19  C   -0.173770
    20  C   -0.218869
    21  H    0.227292
    22  H    0.230871
    23  H    0.290466
    24  H    0.275337
    25  H    0.224078
    26  N    0.487896
    27  O   -0.462210
    28  O   -0.455429
 Sum of Mulliken charges =  -0.00000

 Dipole moment (field-independent basis, Debye):
    X=             -3.5407    Y=             -1.7325    Z=             -5.4447  Tot=              6.7219
 Quadrupole moment (field-independent basis, Debye-Ang):
   XX=            -90.3965   YY=           -105.6844   ZZ=           -108.0843
   XY=            -18.9684   XZ=              3.9683   YZ=              2.6136

 Normal termination of Gaussian 16 at Thu May  6 00:27:09 2021.
