 Gaussian 16, Revision A.03,
 Gaussian 16:  EM64L-G16RevA.03 25-Dec-2016

 -------------
 #p 6-31g* mp2
 -------------

 ------------------------------------------------------
 Input file generated by CHIRIPA (05-May-2021 14:51:12)
 ------------------------------------------------------
 Symbolic Z-matrix:
 Charge =  0 Multiplicity = 1

                         Standard orientation:
 ---------------------------------------------------------------------
 Center     Atomic      Atomic             Coordinates (Angstroms)
 Number     Number       Type             X           Y           Z
 ---------------------------------------------------------------------
      1          6           0        2.625339   -0.096374   -0.789496
      2          6           0        2.804360   -1.552907   -0.360022
      3          6           0        3.230092   -2.461371   -1.513816
      4          1           0        1.877108   -0.046812   -1.592390
      5          1           0        3.568240    0.270846   -1.217843
      6          1           0        1.861810   -1.916846    0.068654
      7          1           0        3.552113   -1.598985    0.442075
      8          1           0        4.182029   -2.125445   -1.937573
      9          1           0        2.482123   -2.445111   -2.313115
     10          1           0        3.352284   -3.497962   -1.184560
     11          6           0        2.199834    0.824174    0.352986
     12          6           0        2.020813    2.280707   -0.076488
     13          6           0        1.595081    3.189171    1.077305
     14          1           0        1.256933    0.456953    0.781333
     15          1           0        2.948065    0.774612    1.155880
     16          1           0        1.273060    2.326785   -0.878585
     17          1           0        2.963363    2.644646   -0.505165
     18          1           0        2.343050    3.172911    1.876604
     19          1           0        0.643144    2.853244    1.501062
     20          1           0        1.472889    4.225762    0.748050
     21          6           0       -2.907607    0.047138   -0.193369
     22          6           0       -2.688275   -0.072560   -1.701862
     23          6           0       -3.686321    0.755428   -2.511883
     24          1           0       -3.931155   -0.270530    0.048255
     25          1           0       -2.831123    1.103706    0.098537
     26          1           0       -2.763778   -1.128747   -1.990623
     27          1           0       -1.665068    0.245248   -1.939899
     28          1           0       -3.607067    1.816106   -2.252494
     29          1           0       -4.712021    0.434304   -2.303507
     30          1           0       -3.511382    0.655254   -3.587626
     31          6           0       -1.917566   -0.774938    0.629879
     32          6           0       -2.136898   -0.655240    2.138373
     33          6           0       -1.138852   -1.483228    2.948394
     34          1           0       -1.994050   -1.831505    0.337973
     35          1           0       -0.894018   -0.457270    0.388257
     36          1           0       -3.160105   -0.973047    2.376409
     37          1           0       -2.061394    0.400948    2.427134
     38          1           0       -0.113153   -1.162104    2.740017
     39          1           0       -1.218105   -2.543905    2.689004
     40          1           0       -1.313790   -1.383053    4.024136
 ---------------------------------------------------------------------

 SCF Done:  E(RHF) =  -470.733376042     A.U. after   11 cycles
 E2 =    -0.1584026861D+01 EUMP2 =    -0.47231740290274D+03

 The electronic state is 1-A.
 Alpha  occ. eigenvalues --  -11.21672 -11.21668 -11.21657 -11.21600 -11.21466
 Alpha  occ. eigenvalues --  -11.21449 -11.21407 -11.21388 -11.21135 -11.21118
 Alpha  occ. eigenvalues --  -11.21099 -11.21064  -1.08521  -1.08451  -1.03585
 Alpha  occ. eigenvalues --   -1.03561  -0.96033  -0.96011  -0.87048  -0.87027
 Alpha  occ. eigenvalues --   -0.79650  -0.79623  -0.78405  -0.78204  -0.65392
 Alpha  occ. eigenvalues --   -0.64869  -0.61007  -0.60932  -0.59401  -0.59379
 Alpha  occ. eigenvalues --   -0.57642  -0.57622  -0.55376  -0.55254  -0.52721
 Alpha  occ. eigenvalues --   -0.52704  -0.52461  -0.52432  -0.50011  -0.49929
 Alpha  occ. eigenvalues --   -0.47988  -0.47941  -0.46790  -0.46642  -0.46253
 Alpha  occ. eigenvalues --   -0.45802  -0.45787  -0.45200  -0.43840  -0.43818
 Alpha virt. eigenvalues --    0.18999   0.22839   0.23301   0.24472   0.25385
 Alpha virt. eigenvalues --    0.26627   0.26707   0.28056   0.28245   0.30598
 Alpha virt. eigenvalues --    0.30959   0.31631   0.31678   0.31941   0.32223

 Mulliken charges:
               1
     1  C   -0.298401
     2  C   -0.301768
     3  C   -0.475748
     4  H    0.149729
     5  H    0.149932
     6  H    0.154171
     7  H    0.151911
     8  H    0.155063
     9  H    0.155469
    10  H    0.160384
    11  C   -0.307657
    12  C   -0.299577
    13  C   -0.475760
    14  H    0.157160
    15  H    0.150280
    16  H    0.151468
    17  H    0.152572
    18  H    0.155644
    19  H    0.154447
    20  H    0.160555
    21  C   -0.297809
    22  C   -0.300037
    23  C   -0.475774
    24  H    0.150148
    25  H    0.149502
    26  H    0.152202
    27  H    0.151231
    28  H    0.155392
    29  H    0.155456
    30  H    0.160436
    31  C   -0.307279
    32  C   -0.299316
    33  C   -0.479060
    34  H    0.149829
    35  H    0.157085
    36  H    0.152454
    37  H    0.151610
    38  H    0.158073
    39  H    0.155254
    40  H    0.160729
 Sum of Mulliken charges =  -0.00000

 Dipole moment (field-independent basis, Debye):
    X=             -0.0019    Y=             -0.0070    Z=              0.0043  Tot=              0.0084
 Quadrupole moment (field-independent basis, Debye-Ang):
   XX=            -83.8196   YY=            -84.9908   ZZ=            -85.7745
   XY=              1.3186   XZ=              0.0084   YZ=             -0.1180

 Normal termination of Gaussian 16 at Wed May  5 21:34:03 2021.
