 Gaussian 16, Revision A.03,
 Gaussian 16:  EM64L-G16RevA.03 25-Dec-2016

 -------------
 #p 6-31g* mp2
 -------------

 ------------------------------------------------------
 Input file generated by CHIRIPA (05-May-2021 14:51:12)
 ------------------------------------------------------
 Symbolic Z-matrix:
 Charge =  0 Multiplicity = 1

                         Standard orientation:
 ---------------------------------------------------------------------
 Center     Atomic      Atomic             Coordinates (Angstroms)
 Number     Number       Type             X           Y           Z
 ---------------------------------------------------------------------
      1          6           0        3.406119    0.769175   -0.696830
      2          6           0        2.516656    1.777496    0.031270
      3          6           0        2.285526    3.054194   -0.777689
      4          1           0        4.372040    1.239962   -0.925525
      5          1           0        2.946171    0.514722   -1.661764
      6          1           0        2.977453    2.028921    0.995152
      7          1           0        1.552809    1.304194    0.258428
      8          1           0        1.804087    2.822855   -1.733356
      9          1           0        3.236824    3.551700   -0.992446
     10          1           0        1.647136    3.761044   -0.238539
     11          6           0        3.646392   -0.512357    0.099205
     12          6           0        4.535854   -1.520678   -0.628895
     13          6           0        4.766984   -2.797376    0.180064
     14          1           0        4.106339   -0.257904    1.064139
     15          1           0        2.680470   -0.983143    0.327900
     16          1           0        5.499701   -1.047375   -0.856053
     17          1           0        4.075058   -1.772102   -1.592777
     18          1           0        3.815686   -3.294881    0.394821
     19          1           0        5.248423   -2.566036    1.135731
     20          1           0        5.405374   -3.504225   -0.359086
     21          6           0       -4.161373    0.077825   -0.072030
     22          6           0       -5.047267   -1.105848   -0.462021
     23          6           0       -6.314046   -0.677200   -1.203185
     24          1           0       -4.739541    0.768922    0.556502
     25          1           0       -3.886293    0.635181   -0.978166
     26          1           0       -5.319457   -1.661606    0.444434
     27          1           0       -4.466865   -1.794303   -1.089540
     28          1           0       -6.059366   -0.141487   -2.123376
     29          1           0       -6.916802   -0.008036   -0.580685
     30          1           0       -6.932664   -1.538978   -1.472468
     31          6           0       -2.891137   -0.334644    0.669655
     32          6           0       -2.005243    0.849030    1.059647
     33          6           0       -0.738464    0.420381    1.800810
     34          1           0       -3.166217   -0.891999    1.575791
     35          1           0       -2.312969   -1.025740    0.041123
     36          1           0       -2.585645    1.537485    1.687166
     37          1           0       -1.733053    1.404788    0.153191
     38          1           0       -0.135708   -0.248783    1.178310
     39          1           0       -0.993145   -0.115331    2.721000
     40          1           0       -0.119847    1.282159    2.070093
 ---------------------------------------------------------------------

 SCF Done:  E(RHF) =  -470.732651100     A.U. after   11 cycles
 E2 =    -0.1583183212D+01 EUMP2 =    -0.47231583431221D+03

 The electronic state is 1-A.
 Alpha  occ. eigenvalues --  -11.21649 -11.21627 -11.21584 -11.21452 -11.21441
 Alpha  occ. eigenvalues --  -11.21381 -11.21369 -11.21305 -11.21094 -11.21090
 Alpha  occ. eigenvalues --  -11.21056 -11.21027  -1.08471  -1.08385  -1.03585
 Alpha  occ. eigenvalues --   -1.03471  -0.96027  -0.95939  -0.87059  -0.86941
 Alpha  occ. eigenvalues --   -0.79690  -0.79500  -0.78288  -0.78188  -0.65167
 Alpha  occ. eigenvalues --   -0.64973  -0.61109  -0.60778  -0.59480  -0.59222
 Alpha  occ. eigenvalues --   -0.57688  -0.57485  -0.55338  -0.55219  -0.52759
 Alpha  occ. eigenvalues --   -0.52612  -0.52440  -0.52356  -0.50055  -0.49836
 Alpha  occ. eigenvalues --   -0.47968  -0.47826  -0.46768  -0.46501  -0.45859
 Alpha  occ. eigenvalues --   -0.45767  -0.45709  -0.45521  -0.43806  -0.43716
 Alpha virt. eigenvalues --    0.21205   0.23103   0.23659   0.24649   0.25714
 Alpha virt. eigenvalues --    0.26822   0.26955   0.27173   0.27984   0.29314
 Alpha virt. eigenvalues --    0.30708   0.31452   0.31628   0.31915   0.32141

 Mulliken charges:
               1
     1  C   -0.297686
     2  C   -0.309712
     3  C   -0.475287
     4  H    0.149272
     5  H    0.148570
     6  H    0.150727
     7  H    0.165620
     8  H    0.154336
     9  H    0.154911
    10  H    0.159606
    11  C   -0.299754
    12  C   -0.299590
    13  C   -0.475656
    14  H    0.149814
    15  H    0.150377
    16  H    0.152049
    17  H    0.151623
    18  H    0.155095
    19  H    0.155277
    20  H    0.160144
    21  C   -0.298318
    22  C   -0.299678
    23  C   -0.475729
    24  H    0.149811
    25  H    0.149565
    26  H    0.152003
    27  H    0.151869
    28  H    0.155216
    29  H    0.155252
    30  H    0.160327
    31  C   -0.298348
    32  C   -0.301680
    33  C   -0.480645
    34  H    0.149822
    35  H    0.149391
    36  H    0.152536
    37  H    0.152702
    38  H    0.155841
    39  H    0.156391
    40  H    0.163937
 Sum of Mulliken charges =  -0.00000

 Dipole moment (field-independent basis, Debye):
    X=             -0.0395    Y=             -0.0064    Z=              0.0345  Tot=              0.0528
 Quadrupole moment (field-independent basis, Debye-Ang):
   XX=            -84.9294   YY=            -85.6951   ZZ=            -84.3018
   XY=              0.6475   XZ=             -0.6846   YZ=              0.8433

 Normal termination of Gaussian 16 at Wed May  5 21:31:41 2021.
