 Gaussian 16, Revision A.03,
 Gaussian 16:  EM64L-G16RevA.03 25-Dec-2016

 -------------
 #p 6-31g* mp2
 -------------

 ------------------------------------------------------
 Input file generated by CHIRIPA (05-May-2021 14:55:20)
 ------------------------------------------------------
 Symbolic Z-matrix:
 Charge =  0 Multiplicity = 1

                         Standard orientation:
 ---------------------------------------------------------------------
 Center     Atomic      Atomic             Coordinates (Angstroms)
 Number     Number       Type             X           Y           Z
 ---------------------------------------------------------------------
      1          6           0       -1.822767    1.334370    0.499599
      2          6           0       -1.888733   -0.058914    0.604132
      3          6           0       -3.076179   -0.737282    0.313720
      4          6           0       -4.183445    0.012475   -0.080128
      5          6           0       -4.149191    1.401443   -0.193645
      6          6           0       -2.951217    2.058825    0.101745
      7          1           0       -0.896242    1.853191    0.727132
      8          1           0       -1.013940   -0.624122    0.912876
      9          1           0       -3.155016   -1.815207    0.386380
     10          1           0       -5.037831    1.937616   -0.503895
     11          1           0       -2.902898    3.140942    0.019697
     12          7           0       -5.446113   -0.694574   -0.390209
     13          8           0       -6.407599   -0.011028   -0.735097
     14          8           0       -5.450399   -1.918917   -0.282492
     15          6           0        5.830730   -0.207917    0.212089
     16          6           0        6.750887    0.110956   -0.966731
     17          6           0        8.232786    0.021157   -0.601072
     18          1           0        6.048910    0.484115    1.036973
     19          1           0        6.057413   -1.217238    0.582605
     20          1           0        6.521590    1.118840   -1.335795
     21          1           0        6.530359   -0.581792   -1.788975
     22          1           0        8.483354   -0.986177   -0.253084
     23          1           0        8.474536    0.724119    0.202670
     24          1           0        8.872570    0.252887   -1.458299
     25          6           0        4.346146   -0.122337   -0.137791
     26          6           0        3.425989   -0.441210    1.041029
     27          6           0        1.944090   -0.351411    0.675370
     28          1           0        4.119463    0.886983   -0.508307
     29          1           0        4.127966   -0.814369   -0.962675
     30          1           0        3.646516    0.251538    1.863272
     31          1           0        3.655286   -1.449095    1.410092
     32          1           0        1.702340   -1.054373   -0.128372
     33          1           0        1.693522    0.655922    0.327382
     34          1           0        1.304306   -0.583141    1.532597
 ---------------------------------------------------------------------

 SCF Done:  E(RHF) =  -669.535384992     A.U. after   15 cycles
 E2 =    -0.2091242530D+01 EUMP2 =    -0.67162662752147D+03

 The electronic state is 1-A.
 Alpha  occ. eigenvalues --  -20.60683 -20.60678 -15.85734 -11.31075 -11.27643
 Alpha  occ. eigenvalues --  -11.27619 -11.27355 -11.26658 -11.26565 -11.22581
 Alpha  occ. eigenvalues --  -11.22451 -11.22153 -11.22100 -11.21974 -11.21483
 Alpha  occ. eigenvalues --   -1.59759  -1.39313  -1.19238  -1.09166  -1.08636
 Alpha  occ. eigenvalues --   -1.04639  -1.04317  -0.96806  -0.95477  -0.87849
 Alpha  occ. eigenvalues --   -0.86025  -0.82311  -0.80403  -0.78925  -0.77362
 Alpha  occ. eigenvalues --   -0.71953  -0.71081  -0.70349  -0.65789  -0.64887
 Alpha  occ. eigenvalues --   -0.64666  -0.62028  -0.61710  -0.60178  -0.58375
 Alpha  occ. eigenvalues --   -0.56102  -0.55122  -0.53633  -0.53230  -0.52954
 Alpha  occ. eigenvalues --   -0.52597  -0.50729  -0.48715  -0.48709  -0.48694
 Alpha  occ. eigenvalues --   -0.47396  -0.46480  -0.46370  -0.44724  -0.44551
 Alpha  occ. eigenvalues --   -0.37215  -0.36239
 Alpha virt. eigenvalues --    0.05162   0.11381   0.16652   0.20105   0.22354
 Alpha virt. eigenvalues --    0.23810   0.25548   0.25879   0.26524   0.27352
 Alpha virt. eigenvalues --    0.29087   0.29421   0.30850   0.31587   0.32172

 Mulliken charges:
               1
     1  C   -0.174309
     2  C   -0.223784
     3  C   -0.172525
     4  C    0.158887
     5  C   -0.171497
     6  C   -0.218606
     7  H    0.226382
     8  H    0.234006
     9  H    0.275376
    10  H    0.275067
    11  H    0.222762
    12  N    0.487977
    13  O   -0.460822
    14  O   -0.460729
    15  C   -0.299003
    16  C   -0.300139
    17  C   -0.476098
    18  H    0.150278
    19  H    0.151015
    20  H    0.152141
    21  H    0.153036
    22  H    0.156050
    23  H    0.155561
    24  H    0.161762
    25  C   -0.299408
    26  C   -0.299486
    27  C   -0.483328
    28  H    0.149399
    29  H    0.151738
    30  H    0.153815
    31  H    0.155820
    32  H    0.160653
    33  H    0.153030
    34  H    0.154978
 Sum of Mulliken charges =  -0.00000

 Dipole moment (field-independent basis, Debye):
    X=              4.7590    Y=              2.4546    Z=              1.0722  Tot=              5.4610
 Quadrupole moment (field-independent basis, Debye-Ang):
   XX=           -132.0106   YY=            -90.0222   ZZ=            -95.5444
   XY=            -12.7233   XZ=             -4.5734   YZ=             -0.9695

 Normal termination of Gaussian 16 at Wed May  5 18:55:01 2021.
