 Gaussian 16, Revision A.03,
 Gaussian 16:  EM64L-G16RevA.03 25-Dec-2016

 -------------
 #p 6-31g* mp2
 -------------

 ------------------------------------------------------
 Input file generated by CHIRIPA (05-May-2021 14:55:22)
 ------------------------------------------------------
 Symbolic Z-matrix:
 Charge =  0 Multiplicity = 1

                         Standard orientation:
 ---------------------------------------------------------------------
 Center     Atomic      Atomic             Coordinates (Angstroms)
 Number     Number       Type             X           Y           Z
 ---------------------------------------------------------------------
      1          6           0        1.381572   -1.037578   -0.072460
      2          6           0        1.687931    0.327142   -0.086778
      3          6           0        3.018113    0.756547   -0.058938
      4          6           0        4.021433   -0.210337   -0.016800
      5          6           0        3.748231   -1.577239   -0.001577
      6          6           0        2.410885   -1.983744   -0.029980
      7          1           0        0.345472   -1.362256   -0.094306
      8          1           0        0.890608    1.064185   -0.119752
      9          1           0        3.283550    1.806716   -0.069178
     10          1           0        4.564689   -2.288380    0.031474
     11          1           0        2.175925   -3.044269   -0.018772
     12          7           0        5.433429    0.232133    0.012972
     13          8           0        6.299080   -0.639600    0.049942
     14          8           0        5.647765    1.442297   -0.001228
     15          6           0       -4.184688    0.562180    0.346432
     16          6           0       -3.488258    1.715945   -0.375922
     17          6           0       -2.159418    2.103774    0.273360
     18          1           0       -4.355467    0.843901    1.394483
     19          1           0       -3.515125   -0.308932    0.362048
     20          1           0       -4.159476    2.584186   -0.391384
     21          1           0       -3.319290    1.431518   -1.422424
     22          1           0       -1.469050    1.254073    0.275163
     23          1           0       -2.314010    2.413290    1.312061
     24          1           0       -1.678631    2.930399   -0.258990
     25          6           0       -5.514431    0.162971   -0.290863
     26          6           0       -6.210862   -0.990795    0.431491
     27          6           0       -7.539703   -1.378624   -0.217791
     28          1           0       -6.183996    1.034082   -0.306479
     29          1           0       -5.343654   -0.118750   -1.338915
     30          1           0       -6.379831   -0.706368    1.477993
     31          1           0       -5.539644   -1.859036    0.446953
     32          1           0       -7.385110   -1.688141   -1.256492
     33          1           0       -8.230070   -0.528923   -0.219594
     34          1           0       -8.020490   -2.205249    0.314559
 ---------------------------------------------------------------------

 SCF Done:  E(RHF) =  -669.535468046     A.U. after   15 cycles
 E2 =    -0.2090940951D+01 EUMP2 =    -0.67162640899709D+03

 The electronic state is 1-A.
 Alpha  occ. eigenvalues --  -20.60720 -20.60715 -15.85772 -11.31131 -11.27700
 Alpha  occ. eigenvalues --  -11.27681 -11.27444 -11.26725 -11.26656 -11.22546
 Alpha  occ. eigenvalues --  -11.22292 -11.22246 -11.22207 -11.22059 -11.21574
 Alpha  occ. eigenvalues --   -1.59796  -1.39349  -1.19300  -1.09222  -1.08701
 Alpha  occ. eigenvalues --   -1.04701  -1.04337  -0.96807  -0.95537  -0.87831
 Alpha  occ. eigenvalues --   -0.86101  -0.82366  -0.80408  -0.79005  -0.77413
 Alpha  occ. eigenvalues --   -0.71992  -0.71118  -0.70421  -0.65866  -0.64954
 Alpha  occ. eigenvalues --   -0.64725  -0.62116  -0.61675  -0.60180  -0.58389
 Alpha  occ. eigenvalues --   -0.56113  -0.55211  -0.53518  -0.53255  -0.53032
 Alpha  occ. eigenvalues --   -0.52750  -0.50729  -0.48772  -0.48747  -0.48689
 Alpha  occ. eigenvalues --   -0.47427  -0.46553  -0.46462  -0.44756  -0.44581
 Alpha  occ. eigenvalues --   -0.37287  -0.36301
 Alpha virt. eigenvalues --    0.05117   0.11340   0.16612   0.19551   0.22407
 Alpha virt. eigenvalues --    0.23764   0.25383   0.25901   0.26539   0.27986
 Alpha virt. eigenvalues --    0.28687   0.30080   0.30949   0.31338   0.31545

 Mulliken charges:
               1
     1  C   -0.172812
     2  C   -0.224547
     3  C   -0.171882
     4  C    0.158942
     5  C   -0.171448
     6  C   -0.218431
     7  H    0.224412
     8  H    0.232931
     9  H    0.275845
    10  H    0.275370
    11  H    0.223065
    12  N    0.487958
    13  O   -0.460621
    14  O   -0.460451
    15  C   -0.297801
    16  C   -0.300249
    17  C   -0.480123
    18  H    0.152172
    19  H    0.144265
    20  H    0.156721
    21  H    0.152986
    22  H    0.145052
    23  H    0.161483
    24  H    0.162499
    25  C   -0.298948
    26  C   -0.299901
    27  C   -0.476111
    28  H    0.151814
    29  H    0.150169
    30  H    0.153165
    31  H    0.150643
    32  H    0.155624
    33  H    0.156488
    34  H    0.161719
 Sum of Mulliken charges =  -0.00000

 Dipole moment (field-independent basis, Debye):
    X=             -5.2380    Y=             -1.4849    Z=             -0.0937  Tot=              5.4452
 Quadrupole moment (field-independent basis, Debye-Ang):
   XX=           -134.6671   YY=            -89.0556   ZZ=            -95.4049
   XY=             -7.8372   XZ=             -0.9744   YZ=              0.2272

 Normal termination of Gaussian 16 at Wed May  5 17:29:52 2021.
