 Gaussian 16, Revision A.03,
 Gaussian 16:  EM64L-G16RevA.03 25-Dec-2016

 -------------
 #p 6-31g* mp2
 -------------

 ------------------------------------------------------
 Input file generated by CHIRIPA (05-May-2021 14:55:25)
 ------------------------------------------------------
 Symbolic Z-matrix:
 Charge =  0 Multiplicity = 1

                         Standard orientation:
 ---------------------------------------------------------------------
 Center     Atomic      Atomic             Coordinates (Angstroms)
 Number     Number       Type             X           Y           Z
 ---------------------------------------------------------------------
      1          6           0        1.961019    2.247436    0.417704
      2          6           0        1.477275    1.300355    1.326303
      3          6           0        1.788356   -0.054024    1.173220
      4          6           0        2.589333   -0.427926    0.095295
      5          6           0        3.086485    0.491859   -0.826727
      6          6           0        2.762667    1.840882   -0.654021
      7          1           0        1.714416    3.297469    0.544244
      8          1           0        0.854494    1.613208    2.159556
      9          1           0        1.427257   -0.808235    1.861835
     10          1           0        3.705086    0.149627   -1.647476
     11          1           0        3.139753    2.574195   -1.361201
     12          7           0        2.925403   -1.858911   -0.077154
     13          8           0        3.632937   -2.162684   -1.035150
     14          8           0        2.474917   -2.649649    0.748941
     15          6           0       -2.773996    0.727654   -0.520195
     16          6           0       -2.510715    2.017097    0.258269
     17          6           0       -1.569761    2.970789   -0.478527
     18          1           0       -1.817835    0.223248   -0.715833
     19          1           0       -3.200544    0.980216   -1.500839
     20          1           0       -2.086077    1.762110    1.237698
     21          1           0       -3.467633    2.518394    0.452242
     22          1           0       -1.990546    3.254012   -1.448745
     23          1           0       -0.601141    2.493432   -0.658828
     24          1           0       -1.395285    3.885983    0.095789
     25          6           0       -3.712902   -0.235922    0.203481
     26          6           0       -3.976183   -1.525365   -0.574982
     27          6           0       -4.917137   -2.479057    0.161813
     28          1           0       -3.286354   -0.488485    1.184126
     29          1           0       -4.669065    0.268484    0.399119
     30          1           0       -3.019266   -2.026662   -0.768957
     31          1           0       -4.400821   -1.270378   -1.554412
     32          1           0       -5.885757   -2.001700    0.342114
     33          1           0       -4.496352   -2.762281    1.132031
     34          1           0       -5.091613   -3.394251   -0.412503
 ---------------------------------------------------------------------

 SCF Done:  E(RHF) =  -669.534951739     A.U. after   15 cycles
 E2 =    -0.2092862358D+01 EUMP2 =    -0.67162781409694D+03

 The electronic state is 1-A.
 Alpha  occ. eigenvalues --  -20.60831 -20.60826 -15.85887 -11.31268 -11.27858
 Alpha  occ. eigenvalues --  -11.27851 -11.27565 -11.26853 -11.26842 -11.22133
 Alpha  occ. eigenvalues --  -11.21693 -11.21671 -11.21602 -11.21580 -11.21090
 Alpha  occ. eigenvalues --   -1.59907  -1.39460  -1.19460  -1.08861  -1.08703
 Alpha  occ. eigenvalues --   -1.04859  -1.03823  -0.96289  -0.95666  -0.87304
 Alpha  occ. eigenvalues --   -0.86250  -0.82502  -0.79905  -0.78500  -0.77544
 Alpha  occ. eigenvalues --   -0.72104  -0.71232  -0.70558  -0.65370  -0.65102
 Alpha  occ. eigenvalues --   -0.64837  -0.62205  -0.61234  -0.59673  -0.57883
 Alpha  occ. eigenvalues --   -0.55677  -0.55302  -0.53249  -0.52975  -0.52942
 Alpha  occ. eigenvalues --   -0.52633  -0.50193  -0.48864  -0.48857  -0.48209
 Alpha  occ. eigenvalues --   -0.46928  -0.46047  -0.45951  -0.44862  -0.44079
 Alpha  occ. eigenvalues --   -0.37339  -0.36465
 Alpha virt. eigenvalues --    0.04972   0.11121   0.16406   0.20426   0.22830
 Alpha virt. eigenvalues --    0.24137   0.25803   0.26842   0.26965   0.27996
 Alpha virt. eigenvalues --    0.28961   0.29946   0.31334   0.31600   0.32280

 Mulliken charges:
               1
     1  C   -0.171969
     2  C   -0.217565
     3  C   -0.171684
     4  C    0.158098
     5  C   -0.170397
     6  C   -0.219380
     7  H    0.229391
     8  H    0.225032
     9  H    0.275796
    10  H    0.276111
    11  H    0.224416
    12  N    0.488115
    13  O   -0.460120
    14  O   -0.460451
    15  C   -0.299705
    16  C   -0.296928
    17  C   -0.485650
    18  H    0.152830
    19  H    0.150698
    20  H    0.144344
    21  H    0.153520
    22  H    0.157414
    23  H    0.163711
    24  H    0.151947
    25  C   -0.298092
    26  C   -0.300608
    27  C   -0.475875
    28  H    0.147756
    29  H    0.149495
    30  H    0.155468
    31  H    0.152051
    32  H    0.154295
    33  H    0.155779
    34  H    0.162159
 Sum of Mulliken charges =  -0.00000

 Dipole moment (field-independent basis, Debye):
    X=             -1.1421    Y=              4.9633    Z=              0.5512  Tot=              5.1228
 Quadrupole moment (field-independent basis, Debye-Ang):
   XX=            -99.7206   YY=           -100.0972   ZZ=            -91.5387
   XY=             13.8796   XZ=             -0.2801   YZ=             -0.7397

 Normal termination of Gaussian 16 at Wed May  5 17:40:20 2021.
