 Gaussian 16, Revision A.03,
 Gaussian 16:  EM64L-G16RevA.03 25-Dec-2016

 -------------
 #p 6-31g* mp2
 -------------

 ------------------------------------------------------
 Input file generated by CHIRIPA (05-May-2021 14:53:15)
 ------------------------------------------------------
 Symbolic Z-matrix:
 Charge =  0 Multiplicity = 1

                         Standard orientation:
 ---------------------------------------------------------------------
 Center     Atomic      Atomic             Coordinates (Angstroms)
 Number     Number       Type             X           Y           Z
 ---------------------------------------------------------------------
      1          6           0       -3.594175    0.869722   -0.188794
      2          6           0       -2.294293    0.843930   -0.993546
      3          6           0       -1.419065    2.072219   -0.742395
      4          1           0       -4.155886    1.779668   -0.440633
      5          1           0       -3.353532    0.937039    0.881231
      6          1           0       -2.537295    0.775287   -2.061653
      7          1           0       -1.735701   -0.066157   -0.739904
      8          1           0       -1.147769    2.142045    0.315964
      9          1           0       -1.953917    2.988269   -1.013295
     10          1           0       -0.495031    2.033201   -1.327628
     11          6           0       -4.479835   -0.351571   -0.429164
     12          6           0       -5.779718   -0.325780    0.375588
     13          6           0       -6.654945   -1.554069    0.124437
     14          1           0       -4.720479   -0.418888   -1.499189
     15          1           0       -3.918124   -1.261518   -0.177325
     16          1           0       -6.338309    0.584307    0.121946
     17          1           0       -5.536716   -0.257136    1.443695
     18          1           0       -6.120093   -2.470118    0.395337
     19          1           0       -6.926241   -1.623894   -0.933922
     20          1           0       -7.578980   -1.515051    0.709670
     21          6           0        5.430297   -0.635448   -0.756837
     22          6           0        4.490255   -1.668596   -0.683053
     23          6           0        3.225886   -1.440080   -0.131963
     24          6           0        2.933838   -0.160538    0.337895
     25          6           0        3.848968    0.889360    0.278388
     26          6           0        5.107224    0.637988   -0.276728
     27          1           0        6.410115   -0.821841   -1.186502
     28          1           0        4.738399   -2.658561   -1.055127
     29          1           0        2.479203   -2.221781   -0.062482
     30          1           0        3.572527    1.865693    0.657561
     31          1           0        5.835288    1.442246   -0.332735
     32          7           0        1.598543    0.093480    0.923440
     33          8           0        1.365799    1.229636    1.330402
     34          8           0        0.809967   -0.848386    0.964341
 ---------------------------------------------------------------------

 SCF Done:  E(RHF) =  -669.536443508     A.U. after   15 cycles
 E2 =    -0.2091804896D+01 EUMP2 =    -0.67162824840431D+03

 The electronic state is 1-A.
 Alpha  occ. eigenvalues --  -20.61023 -20.61001 -15.86023 -11.31323 -11.27880
 Alpha  occ. eigenvalues --  -11.27876 -11.27614 -11.26881 -11.26871 -11.20790
 Alpha  occ. eigenvalues --  -11.20410 -11.20399 -11.20205 -11.20146 -11.19496
 Alpha  occ. eigenvalues --   -1.60056  -1.39615  -1.19486  -1.08896  -1.07337
 Alpha  occ. eigenvalues --   -1.04878  -1.02415  -0.95744  -0.94874  -0.86280
 Alpha  occ. eigenvalues --   -0.85896  -0.82577  -0.78517  -0.77633  -0.77124
 Alpha  occ. eigenvalues --   -0.72246  -0.71368  -0.70595  -0.65142  -0.64882
 Alpha  occ. eigenvalues --   -0.63953  -0.62225  -0.59785  -0.58302  -0.56496
 Alpha  occ. eigenvalues --   -0.55388  -0.54150  -0.53204  -0.52969  -0.51605
 Alpha  occ. eigenvalues --   -0.51310  -0.49170  -0.49005  -0.48633  -0.46819
 Alpha  occ. eigenvalues --   -0.45652  -0.45007  -0.44662  -0.44397  -0.42683
 Alpha  occ. eigenvalues --   -0.37462  -0.36477
 Alpha virt. eigenvalues --    0.04859   0.11178   0.16340   0.21308   0.23938
 Alpha virt. eigenvalues --    0.25421   0.27236   0.27738   0.28221   0.28566
 Alpha virt. eigenvalues --    0.29084   0.30911   0.32365   0.32579   0.32786

 Mulliken charges:
               1
     1  C   -0.297971
     2  C   -0.302993
     3  C   -0.478586
     4  H    0.144623
     5  H    0.155035
     6  H    0.142315
     7  H    0.164295
     8  H    0.179274
     9  H    0.145237
    10  H    0.148782
    11  C   -0.298125
    12  C   -0.299059
    13  C   -0.475137
    14  H    0.145563
    15  H    0.151974
    16  H    0.149817
    17  H    0.152806
    18  H    0.154827
    19  H    0.153194
    20  H    0.157848
    21  C   -0.170471
    22  C   -0.218593
    23  C   -0.170660
    24  C    0.158515
    25  C   -0.170661
    26  C   -0.218599
    27  H    0.226123
    28  H    0.223936
    29  H    0.275795
    30  H    0.276145
    31  H    0.223986
    32  N    0.489166
    33  O   -0.457753
    34  O   -0.460652
 Sum of Mulliken charges =  -0.00000

 Dipole moment (field-independent basis, Debye):
    X=              5.0484    Y=             -0.9488    Z=             -1.8531  Tot=              5.4608
 Quadrupole moment (field-independent basis, Debye-Ang):
   XX=            -68.7580   YY=            -90.6693   ZZ=            -96.5730
   XY=             -2.7729   XZ=             -4.5632   YZ=              0.9292

 Normal termination of Gaussian 16 at Thu May  6 05:52:21 2021.
