 Gaussian 16, Revision A.03,
 Gaussian 16:  EM64L-G16RevA.03 25-Dec-2016

 -------------
 #p 6-31g* mp2
 -------------

 ------------------------------------------------------
 Input file generated by CHIRIPA (05-May-2021 14:53:15)
 ------------------------------------------------------
 Symbolic Z-matrix:
 Charge =  0 Multiplicity = 1

                         Standard orientation:
 ---------------------------------------------------------------------
 Center     Atomic      Atomic             Coordinates (Angstroms)
 Number     Number       Type             X           Y           Z
 ---------------------------------------------------------------------
      1          6           0       -2.832341   -0.455285   -0.392256
      2          6           0       -3.416506   -1.814021   -0.004221
      3          6           0       -2.502799   -2.980138   -0.382512
      4          1           0       -2.644517   -0.439638   -1.474579
      5          1           0       -1.855999   -0.330724    0.096248
      6          1           0       -4.392083   -1.935397   -0.492209
      7          1           0       -3.603139   -1.826367    1.077275
      8          1           0       -1.532382   -2.886473    0.115602
      9          1           0       -2.325808   -2.996122   -1.462799
     10          1           0       -2.939761   -3.941838   -0.096054
     11          6           0       -3.734236    0.720367   -0.020565
     12          6           0       -3.150071    2.079104   -0.408601
     13          6           0       -4.063778    3.245221   -0.030309
     14          1           0       -4.710578    0.595806   -0.509069
     15          1           0       -3.922060    0.704720    1.061758
     16          1           0       -2.963438    2.091449   -1.490096
     17          1           0       -2.174494    2.200479    0.079388
     18          1           0       -4.240769    3.261204    1.049978
     19          1           0       -5.034196    3.151555   -0.528423
     20          1           0       -3.626816    4.206920   -0.316768
     21          6           0        4.363687    1.535300   -0.505882
     22          6           0        4.224190    0.328487   -1.199182
     23          6           0        3.231166   -0.587027   -0.838234
     24          6           0        2.391185   -0.261985    0.225755
     25          6           0        2.505021    0.932144    0.935956
     26          6           0        3.505171    1.832752    0.557599
     27          1           0        5.137860    2.240704   -0.793037
     28          1           0        4.889502    0.094829   -2.025505
     29          1           0        3.100982   -1.528578   -1.357803
     30          1           0        1.826815    1.137113    1.755371
     31          1           0        3.611179    2.769216    1.097824
     32          7           0        1.336143   -1.223309    0.617089
     33          8           0        0.608775   -0.913348    1.558098
     34          8           0        1.256546   -2.268553   -0.024601
 ---------------------------------------------------------------------

 SCF Done:  E(RHF) =  -669.537142164     A.U. after   15 cycles
 E2 =    -0.2092517757D+01 EUMP2 =    -0.67162965992107D+03

 The electronic state is 1-A.
 Alpha  occ. eigenvalues --  -20.61203 -20.61187 -15.86164 -11.31405 -11.27952
 Alpha  occ. eigenvalues --  -11.27946 -11.27674 -11.26937 -11.26927 -11.21032
 Alpha  occ. eigenvalues --  -11.20652 -11.20518 -11.20225 -11.20118 -11.19221
 Alpha  occ. eigenvalues --   -1.60218  -1.39777  -1.19559  -1.08982  -1.07421
 Alpha  occ. eigenvalues --   -1.04940  -1.02476  -0.95837  -0.94907  -0.86346
 Alpha  occ. eigenvalues --   -0.85925  -0.82676  -0.78616  -0.77743  -0.77168
 Alpha  occ. eigenvalues --   -0.72380  -0.71510  -0.70669  -0.65215  -0.64945
 Alpha  occ. eigenvalues --   -0.64046  -0.62288  -0.59866  -0.58387  -0.56515
 Alpha  occ. eigenvalues --   -0.55453  -0.54178  -0.53275  -0.53031  -0.51646
 Alpha  occ. eigenvalues --   -0.51342  -0.49295  -0.49164  -0.48732  -0.46870
 Alpha  occ. eigenvalues --   -0.45653  -0.45241  -0.44715  -0.44398  -0.42735
 Alpha  occ. eigenvalues --   -0.37528  -0.36535
 Alpha virt. eigenvalues --    0.04741   0.11120   0.16236   0.21240   0.23804
 Alpha virt. eigenvalues --    0.25481   0.27140   0.27517   0.28058   0.28612
 Alpha virt. eigenvalues --    0.29170   0.30901   0.32346   0.32489   0.32575

 Mulliken charges:
               1
     1  C   -0.304923
     2  C   -0.296511
     3  C   -0.487427
     4  H    0.143221
     5  H    0.162940
     6  H    0.143973
     7  H    0.151599
     8  H    0.186698
     9  H    0.147055
    10  H    0.152157
    11  C   -0.296982
    12  C   -0.298309
    13  C   -0.474981
    14  H    0.146401
    15  H    0.149906
    16  H    0.149342
    17  H    0.149196
    18  H    0.154774
    19  H    0.154707
    20  H    0.156135
    21  C   -0.170188
    22  C   -0.218604
    23  C   -0.170367
    24  C    0.159607
    25  C   -0.170558
    26  C   -0.218537
    27  H    0.226475
    28  H    0.224287
    29  H    0.276308
    30  H    0.275797
    31  H    0.224286
    32  N    0.488178
    33  O   -0.459457
    34  O   -0.456197
 Sum of Mulliken charges =  -0.00000

 Dipole moment (field-independent basis, Debye):
    X=              4.1772    Y=              3.3112    Z=             -1.2540  Tot=              5.4759
 Quadrupole moment (field-independent basis, Debye-Ang):
   XX=            -78.2504   YY=            -96.3735   ZZ=            -92.4708
   XY=              6.7262   XZ=             -3.7399   YZ=              3.4607

 Normal termination of Gaussian 16 at Thu May  6 17:09:50 2021.
