 Gaussian 16, Revision A.03,
 Gaussian 16:  EM64L-G16RevA.03 25-Dec-2016

 -------------
 #p 6-31g* mp2
 -------------

 ------------------------------------------------------
 Input file generated by CHIRIPA (05-May-2021 14:55:22)
 ------------------------------------------------------
 Symbolic Z-matrix:
 Charge =  0 Multiplicity = 1

                         Standard orientation:
 ---------------------------------------------------------------------
 Center     Atomic      Atomic             Coordinates (Angstroms)
 Number     Number       Type             X           Y           Z
 ---------------------------------------------------------------------
      1          6           0        4.421138    0.846510    0.225321
      2          6           0        3.377851    1.074934    1.128591
      3          6           0        2.197149    0.330131    1.052702
      4          6           0        2.093137   -0.639499    0.056565
      5          6           0        3.114844   -0.890560   -0.857969
      6          6           0        4.286542   -0.133779   -0.763333
      7          1           0        5.334838    1.429743    0.291555
      8          1           0        3.479597    1.835587    1.897421
      9          1           0        1.373813    0.486254    1.739115
     10          1           0        2.984095   -1.655694   -1.613544
     11          1           0        5.095131   -0.313348   -1.466173
     12          7           0        0.847946   -1.434328   -0.033699
     13          8           0        0.781069   -2.282766   -0.920444
     14          8           0       -0.037578   -1.193826    0.784006
     15          6           0       -3.202580   -0.010501   -0.370821
     16          6           0       -3.666796   -0.985206    0.711970
     17          6           0       -4.185554   -2.303758    0.137421
     18          1           0       -4.036854    0.189871   -1.056956
     19          1           0       -2.413349   -0.486605   -0.969015
     20          1           0       -4.453950   -0.506896    1.308815
     21          1           0       -2.831374   -1.183132    1.395718
     22          1           0       -3.403758   -2.805672   -0.441784
     23          1           0       -5.035553   -2.125594   -0.529181
     24          1           0       -4.512124   -2.985641    0.928780
     25          6           0       -2.681220    1.312264    0.187932
     26          6           0       -2.217003    2.286969   -0.894860
     27          6           0       -1.698246    3.605521   -0.320310
     28          1           0       -3.470451    1.788368    0.786125
     29          1           0       -1.846945    1.111892    0.874068
     30          1           0       -3.052426    2.484895   -1.578607
     31          1           0       -1.429849    1.808659   -1.491705
     32          1           0       -0.848246    3.427357    0.346292
     33          1           0       -2.480041    4.107435    0.258895
     34          1           0       -1.371676    4.287403   -1.111669
 ---------------------------------------------------------------------

 SCF Done:  E(RHF) =  -669.536532425     A.U. after   15 cycles
 E2 =    -0.2092947011D+01 EUMP2 =    -0.67162947943544D+03

 The electronic state is 1-A.
 Alpha  occ. eigenvalues --  -20.61169 -20.61159 -15.86172 -11.31414 -11.27968
 Alpha  occ. eigenvalues --  -11.27960 -11.27684 -11.26952 -11.26943 -11.20938
 Alpha  occ. eigenvalues --  -11.20724 -11.20293 -11.19978 -11.19917 -11.19589
 Alpha  occ. eigenvalues --   -1.60212  -1.39771  -1.19572  -1.08993  -1.07261
 Alpha  occ. eigenvalues --   -1.04955  -1.02433  -0.95849  -0.94919  -0.86360
 Alpha  occ. eigenvalues --   -0.85950  -0.82689  -0.78565  -0.77762  -0.76982
 Alpha  occ. eigenvalues --   -0.72417  -0.71525  -0.70680  -0.65240  -0.64958
 Alpha  occ. eigenvalues --   -0.63833  -0.62305  -0.59807  -0.58368  -0.56516
 Alpha  occ. eigenvalues --   -0.55460  -0.54206  -0.53284  -0.53046  -0.51691
 Alpha  occ. eigenvalues --   -0.51349  -0.49295  -0.49150  -0.48742  -0.46874
 Alpha  occ. eigenvalues --   -0.45615  -0.45181  -0.44500  -0.44337  -0.42659
 Alpha  occ. eigenvalues --   -0.37542  -0.36550
 Alpha virt. eigenvalues --    0.04732   0.11088   0.16225   0.20976   0.23668
 Alpha virt. eigenvalues --    0.25421   0.26505   0.27440   0.28138   0.28826
 Alpha virt. eigenvalues --    0.29216   0.31124   0.32065   0.32464   0.32714

 Mulliken charges:
               1
     1  C   -0.170190
     2  C   -0.218417
     3  C   -0.171112
     4  C    0.157641
     5  C   -0.170314
     6  C   -0.218546
     7  H    0.226590
     8  H    0.224559
     9  H    0.276074
    10  H    0.276098
    11  H    0.224308
    12  N    0.492254
    13  O   -0.458213
    14  O   -0.463171
    15  C   -0.294659
    16  C   -0.302263
    17  C   -0.477094
    18  H    0.141193
    19  H    0.159131
    20  H    0.141151
    21  H    0.171720
    22  H    0.164959
    23  H    0.147526
    24  H    0.154783
    25  C   -0.301466
    26  C   -0.298502
    27  C   -0.473403
    28  H    0.143666
    29  H    0.156364
    30  H    0.150721
    31  H    0.148993
    32  H    0.147947
    33  H    0.154664
    34  H    0.157010
 Sum of Mulliken charges =  -0.00000

 Dipole moment (field-independent basis, Debye):
    X=              4.7668    Y=              2.5666    Z=              0.3483  Tot=              5.4251
 Quadrupole moment (field-independent basis, Debye-Ang):
   XX=            -76.6800   YY=            -99.0757   ZZ=            -92.1261
   XY=              1.5757   XZ=             -0.8842   YZ=              2.0930

 Normal termination of Gaussian 16 at Thu May  6 03:04:11 2021.
