 Gaussian 16, Revision A.03,
 Gaussian 16:  EM64L-G16RevA.03 25-Dec-2016

 -------------
 #p 6-31g* mp2
 -------------

 ------------------------------------------------------
 Input file generated by CHIRIPA (05-May-2021 14:51:11)
 ------------------------------------------------------
 Symbolic Z-matrix:
 Charge =  0 Multiplicity = 1

                         Standard orientation:
 ---------------------------------------------------------------------
 Center     Atomic      Atomic             Coordinates (Angstroms)
 Number     Number       Type             X           Y           Z
 ---------------------------------------------------------------------
      1          6           0        4.405214    0.614996    0.121302
      2          6           0        5.911775    0.703271   -0.124592
      3          6           0        6.489400    2.073704    0.230453
      4          1           0        3.897967    1.391883   -0.466994
      5          1           0        4.199398    0.838275    1.177323
      6          1           0        6.114817    0.478535   -1.179525
      7          1           0        6.415477   -0.074041    0.464210
      8          1           0        6.315932    2.302941    1.286843
      9          1           0        6.013564    2.858656   -0.366231
     10          1           0        7.567607    2.114687    0.047012
     11          6           0        3.813117   -0.749001   -0.228932
     12          6           0        2.306556   -0.837276    0.016961
     13          6           0        1.728931   -2.207709   -0.338083
     14          1           0        4.018933   -0.972280   -1.284954
     15          1           0        4.320364   -1.525888    0.359364
     16          1           0        1.802854   -0.059964   -0.571840
     17          1           0        2.103514   -0.612540    1.071894
     18          1           0        2.204767   -2.992661    0.258600
     19          1           0        1.902399   -2.436946   -1.394474
     20          1           0        0.650724   -2.248692   -0.154643
     21          6           0       -3.616821   -0.422280    0.372610
     22          6           0       -3.685673   -1.827834   -0.225441
     23          6           0       -2.694777   -2.795234    0.422676
     24          1           0       -2.595635   -0.032831    0.261009
     25          1           0       -3.812814   -0.480718    1.452224
     26          1           0       -3.490975   -1.766591   -1.303847
     27          1           0       -4.706860   -2.213907   -0.112575
     28          1           0       -2.890903   -2.885947    1.495945
     29          1           0       -1.668109   -2.436090    0.297904
     30          1           0       -2.760944   -3.794036   -0.019904
     31          6           0       -4.601511    0.556286   -0.264980
     32          6           0       -4.532658    1.961838    0.333072
     33          6           0       -5.523554    2.929239   -0.315045
     34          1           0       -4.405517    0.614724   -1.344594
     35          1           0       -5.622695    0.166836   -0.153378
     36          1           0       -3.511470    2.347912    0.220205
     37          1           0       -4.727357    1.900596    1.411477
     38          1           0       -6.550223    2.570096   -0.190274
     39          1           0       -5.327427    3.019953   -1.388314
     40          1           0       -5.457386    3.928041    0.127534
 ---------------------------------------------------------------------

 SCF Done:  E(RHF) =  -470.733335147     A.U. after   11 cycles
 E2 =    -0.1582280687D+01 EUMP2 =    -0.47231561583405D+03

 The electronic state is 1-A.
 Alpha  occ. eigenvalues --  -11.21620 -11.21608 -11.21603 -11.21600 -11.21415
 Alpha  occ. eigenvalues --  -11.21405 -11.21356 -11.21346 -11.21077 -11.21072
 Alpha  occ. eigenvalues --  -11.21071 -11.21070  -1.08442  -1.08430  -1.03549
 Alpha  occ. eigenvalues --   -1.03523  -0.96014  -0.95959  -0.87045  -0.86961
 Alpha  occ. eigenvalues --   -0.79629  -0.79567  -0.78253  -0.78243  -0.65070
 Alpha  occ. eigenvalues --   -0.65064  -0.60956  -0.60934  -0.59398  -0.59326
 Alpha  occ. eigenvalues --   -0.57690  -0.57517  -0.55281  -0.55272  -0.52783
 Alpha  occ. eigenvalues --   -0.52661  -0.52466  -0.52283  -0.49927  -0.49908
 Alpha  occ. eigenvalues --   -0.47994  -0.47832  -0.46635  -0.46618  -0.45797
 Alpha  occ. eigenvalues --   -0.45782  -0.45720  -0.45708  -0.43787  -0.43767
 Alpha virt. eigenvalues --    0.21671   0.23024   0.23462   0.24853   0.26208
 Alpha virt. eigenvalues --    0.26642   0.27032   0.27484   0.27738   0.28703
 Alpha virt. eigenvalues --    0.30087   0.31407   0.31724   0.31910   0.31967

 Mulliken charges:
               1
     1  C   -0.298241
     2  C   -0.299661
     3  C   -0.475711
     4  H    0.149533
     5  H    0.149606
     6  H    0.151925
     7  H    0.152003
     8  H    0.155218
     9  H    0.155148
    10  H    0.160285
    11  C   -0.298532
    12  C   -0.298918
    13  C   -0.484157
    14  H    0.149537
    15  H    0.149825
    16  H    0.151271
    17  H    0.152168
    18  H    0.155804
    19  H    0.155299
    20  H    0.167506
    21  C   -0.298441
    22  C   -0.299193
    23  C   -0.483632
    24  H    0.149606
    25  H    0.149567
    26  H    0.151991
    27  H    0.152026
    28  H    0.155460
    29  H    0.161885
    30  H    0.160776
    31  C   -0.298309
    32  C   -0.299679
    33  C   -0.475708
    34  H    0.149512
    35  H    0.149676
    36  H    0.152018
    37  H    0.151940
    38  H    0.155178
    39  H    0.155153
    40  H    0.160262
 Sum of Mulliken charges =  -0.00000

 Dipole moment (field-independent basis, Debye):
    X=              0.0003    Y=             -0.0067    Z=              0.0048  Tot=              0.0083
 Quadrupole moment (field-independent basis, Debye-Ang):
   XX=            -84.9969   YY=            -86.1555   ZZ=            -83.5520
   XY=              0.1395   XZ=             -0.6828   YZ=             -0.4037

 Normal termination of Gaussian 16 at Wed May  5 19:49:43 2021.
