 Gaussian 16, Revision A.03,
 Gaussian 16:  EM64L-G16RevA.03 25-Dec-2016

 -------------
 #p 6-31g* mp2
 -------------

 ------------------------------------------------------
 Input file generated by CHIRIPA (05-May-2021 14:55:22)
 ------------------------------------------------------
 Symbolic Z-matrix:
 Charge =  0 Multiplicity = 1

                         Standard orientation:
 ---------------------------------------------------------------------
 Center     Atomic      Atomic             Coordinates (Angstroms)
 Number     Number       Type             X           Y           Z
 ---------------------------------------------------------------------
      1          6           0        1.885523    2.227410    0.305001
      2          6           0        1.966986    1.663634   -0.972513
      3          6           0        2.422457    0.352820   -1.142391
      4          6           0        2.789907   -0.368852   -0.007728
      5          6           0        2.720036    0.164915    1.278157
      6          6           0        2.261645    1.477573    1.424285
      7          1           0        1.530568    3.246399    0.427742
      8          1           0        1.675559    2.243618   -1.843567
      9          1           0        2.495487   -0.108288   -2.119870
     10          1           0        3.017649   -0.438005    2.127470
     11          1           0        2.199424    1.912825    2.417628
     12          7           0        3.273639   -1.757529   -0.175000
     13          8           0        3.591365   -2.372416    0.840678
     14          8           0        3.325904   -2.204792   -1.318617
     15          6           0       -3.169252    0.749711   -0.435339
     16          6           0       -2.210836    1.632661    0.364554
     17          6           0       -1.619258    2.769600   -0.469231
     18          1           0       -2.637207    0.332770   -1.301383
     19          1           0       -3.981025    1.371842   -0.837050
     20          1           0       -1.401862    1.008814    0.765793
     21          1           0       -2.745171    2.047395    1.228901
     22          1           0       -2.413043    3.415849   -0.857650
     23          1           0       -1.062101    2.371367   -1.323390
     24          1           0       -0.937067    3.388246    0.122167
     25          6           0       -3.768813   -0.391358    0.384548
     26          6           0       -4.727229   -1.274307   -0.415344
     27          6           0       -5.318806   -2.411248    0.418441
     28          1           0       -2.957040   -1.013489    0.786260
     29          1           0       -4.300858    0.025583    1.250592
     30          1           0       -4.192893   -1.689042   -1.279691
     31          1           0       -5.536203   -0.650461   -0.816584
     32          1           0       -5.875965   -2.013015    1.272599
     33          1           0       -4.525022   -3.057497    0.806861
     34          1           0       -6.000998   -3.029894   -0.172957
 ---------------------------------------------------------------------

 SCF Done:  E(RHF) =  -669.534817017     A.U. after   15 cycles
 E2 =    -0.2092640269D+01 EUMP2 =    -0.67162745728656D+03

 The electronic state is 1-A.
 Alpha  occ. eigenvalues --  -20.60793 -20.60788 -15.85848 -11.31211 -11.27796
 Alpha  occ. eigenvalues --  -11.27786 -11.27518 -11.26803 -11.26780 -11.22094
 Alpha  occ. eigenvalues --  -11.21863 -11.21751 -11.21739 -11.21595 -11.21145
 Alpha  occ. eigenvalues --   -1.59869  -1.39423  -1.19397  -1.08817  -1.08724
 Alpha  occ. eigenvalues --   -1.04802  -1.03888  -0.96377  -0.95611  -0.87396
 Alpha  occ. eigenvalues --   -0.86189  -0.82454  -0.79963  -0.78535  -0.77498
 Alpha  occ. eigenvalues --   -0.72066  -0.71195  -0.70521  -0.65387  -0.65044
 Alpha  occ. eigenvalues --   -0.64800  -0.62156  -0.61277  -0.59800  -0.57981
 Alpha  occ. eigenvalues --   -0.55678  -0.55312  -0.53211  -0.52941  -0.52898
 Alpha  occ. eigenvalues --   -0.52741  -0.50285  -0.48826  -0.48820  -0.48271
 Alpha  occ. eigenvalues --   -0.46969  -0.46088  -0.45981  -0.44829  -0.44144
 Alpha  occ. eigenvalues --   -0.37317  -0.36394
 Alpha virt. eigenvalues --    0.05023   0.11175   0.16430   0.20454   0.22736
 Alpha virt. eigenvalues --    0.24201   0.25859   0.26434   0.26626   0.27544
 Alpha virt. eigenvalues --    0.28789   0.29726   0.31320   0.31714   0.32486

 Mulliken charges:
               1
     1  C   -0.165860
     2  C   -0.218088
     3  C   -0.172448
     4  C    0.158148
     5  C   -0.170952
     6  C   -0.220744
     7  H    0.227245
     8  H    0.224201
     9  H    0.275552
    10  H    0.275738
    11  H    0.223744
    12  N    0.488079
    13  O   -0.460444
    14  O   -0.460516
    15  C   -0.298701
    16  C   -0.301369
    17  C   -0.474014
    18  H    0.150550
    19  H    0.149535
    20  H    0.156535
    21  H    0.151765
    22  H    0.156898
    23  H    0.153148
    24  H    0.148417
    25  C   -0.298956
    26  C   -0.300061
    27  C   -0.476126
    28  H    0.151695
    29  H    0.149307
    30  H    0.153323
    31  H    0.151477
    32  H    0.154724
    33  H    0.157032
    34  H    0.161164
 Sum of Mulliken charges =  -0.00000

 Dipole moment (field-independent basis, Debye):
    X=             -1.7463    Y=              4.8249    Z=              0.6004  Tot=              5.1662
 Quadrupole moment (field-independent basis, Debye-Ang):
   XX=           -104.5481   YY=            -99.6414   ZZ=            -90.0373
   XY=             13.6852   XZ=              2.4124   YZ=             -0.1002

 Normal termination of Gaussian 16 at Wed May  5 23:51:39 2021.
