 Gaussian 16, Revision A.03,
 Gaussian 16:  EM64L-G16RevA.03 25-Dec-2016

 -------------
 #p 6-31g* mp2
 -------------

 ------------------------------------------------------
 Input file generated by CHIRIPA (05-May-2021 14:53:17)
 ------------------------------------------------------
 Symbolic Z-matrix:
 Charge =  0 Multiplicity = 1

                         Standard orientation:
 ---------------------------------------------------------------------
 Center     Atomic      Atomic             Coordinates (Angstroms)
 Number     Number       Type             X           Y           Z
 ---------------------------------------------------------------------
      1          6           0        2.707898   -0.586351   -0.067672
      2          6           0        3.800413   -1.629265    0.170500
      3          6           0        3.245007   -2.964280    0.667545
      4          1           0        2.150722   -0.428531    0.865920
      5          1           0        1.988019   -0.979985   -0.798576
      6          1           0        4.518771   -1.233226    0.899700
      7          1           0        4.355176   -1.784480   -0.763717
      8          1           0        2.543813   -3.384835   -0.060507
      9          1           0        2.708338   -2.830450    1.612361
     10          1           0        4.043069   -3.695138    0.831262
     11          6           0        3.247499    0.753585   -0.564793
     12          6           0        2.154983    1.796499   -0.802965
     13          6           0        2.710389    3.131514   -1.300010
     14          1           0        3.967378    1.147220    0.166111
     15          1           0        3.804674    0.595765   -1.498385
     16          1           0        1.600221    1.951714    0.131252
     17          1           0        1.436626    1.400461   -1.532165
     18          1           0        3.247058    2.997684   -2.244826
     19          1           0        3.411583    3.552070   -0.571957
     20          1           0        1.912327    3.862373   -1.463727
     21          6           0       -3.562685   -1.259057   -1.600198
     22          6           0       -4.081420   -0.077477   -1.060474
     23          6           0       -3.404912    0.592378   -0.036667
     24          6           0       -2.206800    0.050080    0.425642
     25          6           0       -1.664335   -1.125260   -0.091655
     26          6           0       -2.357922   -1.778263   -1.114922
     27          1           0       -4.094846   -1.772870   -2.395305
     28          1           0       -5.016848    0.328058   -1.435386
     29          1           0       -3.783879    1.508793    0.399208
     30          1           0       -0.729685   -1.505152    0.302720
     31          1           0       -1.952694   -2.695717   -1.532188
     32          7           0       -1.481571    0.750304    1.509215
     33          8           0       -0.427864    0.251967    1.899081
     34          8           0       -1.980577    1.784219    1.948134
 ---------------------------------------------------------------------

 SCF Done:  E(RHF) =  -669.536536804     A.U. after   15 cycles
 E2 =    -0.2092372523D+01 EUMP2 =    -0.67162890932649D+03

 The electronic state is 1-A.
 Alpha  occ. eigenvalues --  -20.60938 -20.60931 -15.85961 -11.31238 -11.27808
 Alpha  occ. eigenvalues --  -11.27777 -11.27544 -11.26809 -11.26794 -11.21250
 Alpha  occ. eigenvalues --  -11.20964 -11.20912 -11.20854 -11.20776 -11.20555
 Alpha  occ. eigenvalues --   -1.59991  -1.39548  -1.19407  -1.08822  -1.07926
 Alpha  occ. eigenvalues --   -1.04798  -1.03092  -0.95675  -0.95549  -0.86578
 Alpha  occ. eigenvalues --   -0.86200  -0.82510  -0.79154  -0.77832  -0.77465
 Alpha  occ. eigenvalues --   -0.72191  -0.71293  -0.70519  -0.65073  -0.64805
 Alpha  occ. eigenvalues --   -0.64533  -0.62145  -0.60484  -0.58931  -0.57161
 Alpha  occ. eigenvalues --   -0.55312  -0.54842  -0.53132  -0.52894  -0.52268
 Alpha  occ. eigenvalues --   -0.51990  -0.49510  -0.48954  -0.48941  -0.47475
 Alpha  occ. eigenvalues --   -0.46161  -0.45493  -0.45272  -0.44590  -0.43317
 Alpha  occ. eigenvalues --   -0.37387  -0.36395
 Alpha virt. eigenvalues --    0.04931   0.11228   0.16406   0.20924   0.23307
 Alpha virt. eigenvalues --    0.24346   0.26442   0.27204   0.27713   0.28417
 Alpha virt. eigenvalues --    0.29192   0.31044   0.31775   0.31925   0.32186

 Mulliken charges:
               1
     1  C   -0.310612
     2  C   -0.298424
     3  C   -0.476613
     4  H    0.177570
     5  H    0.136819
     6  H    0.153894
     7  H    0.148841
     8  H    0.146540
     9  H    0.159817
    10  H    0.159929
    11  C   -0.296676
    12  C   -0.305184
    13  C   -0.475125
    14  H    0.150961
    15  H    0.145190
    16  H    0.167161
    17  H    0.144778
    18  H    0.151583
    19  H    0.156229
    20  H    0.159346
    21  C   -0.170393
    22  C   -0.218763
    23  C   -0.170702
    24  C    0.157896
    25  C   -0.171683
    26  C   -0.219625
    27  H    0.225786
    28  H    0.223576
    29  H    0.275530
    30  H    0.279895
    31  H    0.223804
    32  N    0.491084
    33  O   -0.463297
    34  O   -0.459132
 Sum of Mulliken charges =  -0.00000

 Dipole moment (field-independent basis, Debye):
    X=             -2.6704    Y=             -2.3740    Z=             -3.5938  Tot=              5.0677
 Quadrupole moment (field-independent basis, Debye-Ang):
   XX=            -81.4864   YY=            -94.2086   ZZ=            -98.0789
   XY=              2.4705   XZ=              8.2234   YZ=             -0.2728

 Normal termination of Gaussian 16 at Thu May  6 20:33:00 2021.
