 Gaussian 16, Revision A.03,
 Gaussian 16:  EM64L-G16RevA.03 25-Dec-2016

 -------------
 #p 6-31g* mp2
 -------------

 ------------------------------------------------------
 Input file generated by CHIRIPA (05-May-2021 14:55:20)
 ------------------------------------------------------
 Symbolic Z-matrix:
 Charge =  0 Multiplicity = 1

                         Standard orientation:
 ---------------------------------------------------------------------
 Center     Atomic      Atomic             Coordinates (Angstroms)
 Number     Number       Type             X           Y           Z
 ---------------------------------------------------------------------
      1          6           0        2.411262   -2.179105   -1.048909
      2          6           0        3.288176   -1.450029   -0.238976
      3          6           0        3.030547   -0.108521    0.058566
      4          6           0        1.881521    0.474952   -0.473024
      5          6           0        0.988655   -0.224960   -1.283088
      6          6           0        1.266319   -1.565326   -1.567465
      7          1           0        2.619176   -3.220777   -1.274933
      8          1           0        4.178120   -1.924104    0.165124
      9          1           0        3.692505    0.479273    0.682848
     10          1           0        0.109593    0.274958   -1.671354
     11          1           0        0.583522   -2.129086   -2.196757
     12          7           0        1.598176    1.894542   -0.164998
     13          8           0        0.579062    2.385504   -0.645622
     14          8           0        2.400570    2.489375    0.551225
     15          6           0       -2.998325    0.147997    0.363924
     16          6           0       -3.757962   -0.498070   -0.795185
     17          6           0       -4.815247    0.427452   -1.397971
     18          1           0       -3.714057    0.445530    1.142479
     19          1           0       -2.519645    1.071563    0.009965
     20          1           0       -4.233923   -1.420869   -0.439489
     21          1           0       -3.040319   -0.794272   -1.570987
     22          1           0       -4.352892    1.343565   -1.779498
     23          1           0       -5.553277    0.713409   -0.641571
     24          1           0       -5.346180   -0.054403   -2.224886
     25          6           0       -1.937918   -0.764923    0.976981
     26          6           0       -1.178281   -0.118856    2.136090
     27          6           0       -0.120996   -1.044378    2.738876
     28          1           0       -2.416597   -1.688490    1.330939
     29          1           0       -1.222186   -1.062456    0.198426
     30          1           0       -1.895924    0.177346    2.911892
     31          1           0       -0.702320    0.803942    1.780394
     32          1           0        0.617034   -1.330335    1.982476
     33          1           0       -0.583351   -1.960491    3.120403
     34          1           0        0.409938   -0.562524    3.565790
 ---------------------------------------------------------------------

 SCF Done:  E(RHF) =  -669.535076911     A.U. after   15 cycles
 E2 =    -0.2095891549D+01 EUMP2 =    -0.67163096845955D+03

 The electronic state is 1-A.
 Alpha  occ. eigenvalues --  -20.60971 -20.60965 -15.86002 -11.31325 -11.27913
 Alpha  occ. eigenvalues --  -11.27907 -11.27654 -11.26915 -11.26903 -11.21656
 Alpha  occ. eigenvalues --  -11.21331 -11.21199 -11.21117 -11.21001 -11.20880
 Alpha  occ. eigenvalues --   -1.60032  -1.39587  -1.19532  -1.08917  -1.08290
 Alpha  occ. eigenvalues --   -1.04930  -1.03409  -0.95853  -0.95752  -0.86870
 Alpha  occ. eigenvalues --   -0.86313  -0.82592  -0.79475  -0.78096  -0.77640
 Alpha  occ. eigenvalues --   -0.72224  -0.71371  -0.70630  -0.65176  -0.65070
 Alpha  occ. eigenvalues --   -0.64804  -0.62251  -0.60849  -0.59216  -0.57455
 Alpha  occ. eigenvalues --   -0.55422  -0.55152  -0.53264  -0.52997  -0.52556
 Alpha  occ. eigenvalues --   -0.52267  -0.49814  -0.48986  -0.48978  -0.47771
 Alpha  occ. eigenvalues --   -0.46506  -0.45652  -0.45583  -0.44883  -0.43642
 Alpha  occ. eigenvalues --   -0.37492  -0.36421
 Alpha virt. eigenvalues --    0.04852   0.11089   0.16264   0.20153   0.22914
 Alpha virt. eigenvalues --    0.24096   0.25871   0.27026   0.27717   0.28044
 Alpha virt. eigenvalues --    0.29695   0.30993   0.31309   0.31880   0.32010

 Mulliken charges:
               1
     1  C   -0.170565
     2  C   -0.218544
     3  C   -0.171224
     4  C    0.159926
     5  C   -0.173058
     6  C   -0.217619
     7  H    0.226851
     8  H    0.224589
     9  H    0.276472
    10  H    0.278500
    11  H    0.225088
    12  N    0.488758
    13  O   -0.460945
    14  O   -0.458277
    15  C   -0.305363
    16  C   -0.297227
    17  C   -0.476092
    18  H    0.150959
    19  H    0.163238
    20  H    0.150972
    21  H    0.140659
    22  H    0.159051
    23  H    0.156759
    24  H    0.158251
    25  C   -0.302183
    26  C   -0.303656
    27  C   -0.480813
    28  H    0.146715
    29  H    0.146415
    30  H    0.153403
    31  H    0.158897
    32  H    0.156737
    33  H    0.152181
    34  H    0.161146
 Sum of Mulliken charges =  -0.00000

 Dipole moment (field-independent basis, Debye):
    X=              1.1402    Y=             -4.8541    Z=             -1.1097  Tot=              5.1082
 Quadrupole moment (field-independent basis, Debye-Ang):
   XX=            -87.6389   YY=           -100.3080   ZZ=            -92.8239
   XY=             -8.6008   XZ=             -0.9352   YZ=              2.3067

 Normal termination of Gaussian 16 at Thu May  6 04:31:34 2021.
