 Gaussian 16, Revision A.03,
 Gaussian 16:  EM64L-G16RevA.03 25-Dec-2016

 -------------
 #p 6-31g* mp2
 -------------

 ------------------------------------------------------
 Input file generated by CHIRIPA (05-May-2021 14:55:24)
 ------------------------------------------------------
 Symbolic Z-matrix:
 Charge =  0 Multiplicity = 1

                         Standard orientation:
 ---------------------------------------------------------------------
 Center     Atomic      Atomic             Coordinates (Angstroms)
 Number     Number       Type             X           Y           Z
 ---------------------------------------------------------------------
      1          6           0        3.722958    2.232291   -0.851361
      2          6           0        3.145034    2.295971    0.420830
      3          6           0        2.610111    1.149523    1.015861
      4          6           0        2.670320   -0.049393    0.307154
      5          6           0        3.239539   -0.144987   -0.961759
      6          6           0        3.768286    1.014163   -1.537386
      7          1           0        4.136100    3.127814   -1.306058
      8          1           0        3.108440    3.240623    0.955937
      9          1           0        2.156895    1.170455    1.999514
     10          1           0        3.261353   -1.101022   -1.470619
     11          1           0        4.216501    0.961736   -2.525515
     12          7           0        2.107290   -1.269810    0.926815
     13          8           0        2.172716   -2.313933    0.281707
     14          8           0        1.611223   -1.159142    2.045880
     15          6           0       -2.802613   -0.403927   -0.283666
     16          6           0       -2.592661   -1.824382   -0.809228
     17          6           0       -1.118738   -2.229361   -0.845744
     18          1           0       -2.242961    0.300109   -0.914591
     19          1           0       -2.375140   -0.326968    0.725660
     20          1           0       -3.021631   -1.899022   -1.816716
     21          1           0       -3.153033   -2.525099   -0.177093
     22          1           0       -0.681564   -2.183119    0.156924
     23          1           0       -0.549416   -1.553486   -1.492015
     24          1           0       -0.991617   -3.248261   -1.224615
     25          6           0       -4.270959    0.015458   -0.241202
     26          6           0       -4.480912    1.435912    0.284360
     27          6           0       -5.954836    1.840891    0.320876
     28          1           0       -4.698433   -0.061502   -1.250528
     29          1           0       -4.830612   -0.688579    0.389723
     30          1           0       -3.920539    2.136628   -0.347776
     31          1           0       -4.051942    1.510552    1.291848
     32          1           0       -6.524157    1.165015    0.967146
     33          1           0       -6.392008    1.794649   -0.681792
     34          1           0       -6.081956    2.859791    0.699747
 ---------------------------------------------------------------------

 SCF Done:  E(RHF) =  -669.536052488     A.U. after   15 cycles
 E2 =    -0.2091861415D+01 EUMP2 =    -0.67162791390272D+03

 The electronic state is 1-A.
 Alpha  occ. eigenvalues --  -20.60888 -20.60872 -15.85884 -11.31236 -11.27800
 Alpha  occ. eigenvalues --  -11.27796 -11.27544 -11.26813 -11.26803 -11.21320
 Alpha  occ. eigenvalues --  -11.20972 -11.20852 -11.20851 -11.20791 -11.19971
 Alpha  occ. eigenvalues --   -1.59931  -1.39486  -1.19405  -1.08806  -1.07926
 Alpha  occ. eigenvalues --   -1.04804  -1.02967  -0.95650  -0.95392  -0.86409
 Alpha  occ. eigenvalues --   -0.86203  -0.82482  -0.79056  -0.77732  -0.77531
 Alpha  occ. eigenvalues --   -0.72117  -0.71247  -0.70515  -0.65060  -0.64809
 Alpha  occ. eigenvalues --   -0.64558  -0.62151  -0.60362  -0.58807  -0.57012
 Alpha  occ. eigenvalues --   -0.55313  -0.54682  -0.53134  -0.52897  -0.52069
 Alpha  occ. eigenvalues --   -0.51829  -0.49400  -0.48887  -0.48826  -0.47359
 Alpha  occ. eigenvalues --   -0.46087  -0.45315  -0.45168  -0.44809  -0.43211
 Alpha  occ. eigenvalues --   -0.37380  -0.36405
 Alpha virt. eigenvalues --    0.04966   0.11233   0.16456   0.21373   0.23338
 Alpha virt. eigenvalues --    0.24869   0.27099   0.27302   0.27876   0.28167
 Alpha virt. eigenvalues --    0.28668   0.30948   0.31802   0.32249   0.32576

 Mulliken charges:
               1
     1  C   -0.170652
     2  C   -0.218588
     3  C   -0.170699
     4  C    0.159933
     5  C   -0.171103
     6  C   -0.218721
     7  H    0.225768
     8  H    0.223652
     9  H    0.275625
    10  H    0.276166
    11  H    0.223621
    12  N    0.487944
    13  O   -0.456807
    14  O   -0.461529
    15  C   -0.299061
    16  C   -0.300366
    17  C   -0.477645
    18  H    0.144898
    19  H    0.153377
    20  H    0.147098
    21  H    0.152165
    22  H    0.173182
    23  H    0.144060
    24  H    0.161589
    25  C   -0.297549
    26  C   -0.299156
    27  C   -0.475332
    28  H    0.147911
    29  H    0.150323
    30  H    0.149300
    31  H    0.152047
    32  H    0.155679
    33  H    0.154433
    34  H    0.158435
 Sum of Mulliken charges =  -0.00000

 Dipole moment (field-independent basis, Debye):
    X=              2.1820    Y=              4.2028    Z=             -2.0864  Tot=              5.1747
 Quadrupole moment (field-independent basis, Debye-Ang):
   XX=            -86.1151   YY=            -94.0884   ZZ=            -92.3493
   XY=             11.4023   XZ=             -6.8077   YZ=              3.3642

 Normal termination of Gaussian 16 at Thu May  6 16:00:59 2021.
