 Gaussian 16, Revision A.03,
 Gaussian 16:  EM64L-G16RevA.03 25-Dec-2016

 -------------
 #p 6-31g* mp2
 -------------

 ------------------------------------------------------
 Input file generated by CHIRIPA (05-May-2021 14:53:16)
 ------------------------------------------------------
 Symbolic Z-matrix:
 Charge =  0 Multiplicity = 1

                         Standard orientation:
 ---------------------------------------------------------------------
 Center     Atomic      Atomic             Coordinates (Angstroms)
 Number     Number       Type             X           Y           Z
 ---------------------------------------------------------------------
      1          6           0       -4.763003   -0.359254   -0.164203
      2          6           0       -6.257482   -0.169912   -0.426252
      3          6           0       -6.941921   -1.452768   -0.899135
      4          1           0       -4.278683   -0.717744   -1.082824
      5          1           0       -4.626916   -1.147627    0.589018
      6          1           0       -6.390765    0.618831   -1.177742
      7          1           0       -6.738268    0.188352    0.493045
      8          1           0       -6.838480   -2.243573   -0.149117
      9          1           0       -6.489003   -1.810649   -1.829397
     10          1           0       -8.009629   -1.294754   -1.080493
     11          6           0       -4.064816    0.914396    0.309167
     12          6           0       -2.570338    0.725054    0.571216
     13          6           0       -1.885899    2.007909    1.044099
     14          1           0       -4.200904    1.702769   -0.444054
     15          1           0       -4.549137    1.272886    1.227788
     16          1           0       -2.089552    0.366790   -0.348081
     17          1           0       -2.437055   -0.063689    1.322706
     18          1           0       -2.338817    2.365790    1.974361
     19          1           0       -1.989340    2.798715    0.294081
     20          1           0       -0.818191    1.849896    1.225457
     21          6           0        1.001564   -0.530455    0.473216
     22          6           0        1.404373    0.487439   -0.397507
     23          6           0        2.757376    0.670425   -0.698257
     24          6           0        3.684915   -0.186534   -0.107850
     25          6           0        3.314904   -1.209799    0.763535
     26          6           0        1.956431   -1.374337    1.049942
     27          1           0       -0.051604   -0.665438    0.701274
     28          1           0        0.665014    1.144305   -0.846862
     29          1           0        3.096851    1.450404   -1.368934
     30          1           0        4.075147   -1.848829    1.196075
     31          1           0        1.646501   -2.165689    1.726513
     32          7           0        5.120173   -0.002580   -0.418648
     33          8           0        5.917739   -0.770874    0.114503
     34          8           0        5.420385    0.906416   -1.189516
 ---------------------------------------------------------------------

 SCF Done:  E(RHF) =  -669.534818824     A.U. after   15 cycles
 E2 =    -0.2092792484D+01 EUMP2 =    -0.67162761130768D+03

 The electronic state is 1-A.
 Alpha  occ. eigenvalues --  -20.60715 -20.60710 -15.85769 -11.31122 -11.27695
 Alpha  occ. eigenvalues --  -11.27691 -11.27334 -11.26683 -11.26664 -11.23033
 Alpha  occ. eigenvalues --  -11.22421 -11.22293 -11.22251 -11.22220 -11.21644
 Alpha  occ. eigenvalues --   -1.59792  -1.39345  -1.19292  -1.09435  -1.08680
 Alpha  occ. eigenvalues --   -1.04707  -1.04516  -0.96934  -0.95514  -0.87940
 Alpha  occ. eigenvalues --   -0.86089  -0.82366  -0.80653  -0.79207  -0.77411
 Alpha  occ. eigenvalues --   -0.71987  -0.71115  -0.70403  -0.66066  -0.64948
 Alpha  occ. eigenvalues --   -0.64739  -0.62133  -0.61846  -0.60295  -0.58548
 Alpha  occ. eigenvalues --   -0.56181  -0.55116  -0.53670  -0.53408  -0.52929
 Alpha  occ. eigenvalues --   -0.52748  -0.50858  -0.48932  -0.48743  -0.48727
 Alpha  occ. eigenvalues --   -0.47683  -0.46728  -0.46627  -0.44758  -0.44747
 Alpha  occ. eigenvalues --   -0.37237  -0.36299
 Alpha virt. eigenvalues --    0.05110   0.11228   0.16587   0.19908   0.22339
 Alpha virt. eigenvalues --    0.23922   0.25146   0.25958   0.26669   0.27646
 Alpha virt. eigenvalues --    0.29415   0.29857   0.30698   0.31220   0.31538

 Mulliken charges:
               1
     1  C   -0.299420
     2  C   -0.300472
     3  C   -0.476259
     4  H    0.149980
     5  H    0.149327
     6  H    0.153416
     7  H    0.153397
     8  H    0.155623
     9  H    0.155950
    10  H    0.162606
    11  C   -0.296551
    12  C   -0.310611
    13  C   -0.484001
    14  H    0.152757
    15  H    0.153668
    16  H    0.147332
    17  H    0.149442
    18  H    0.162274
    19  H    0.158046
    20  H    0.162522
    21  C   -0.177350
    22  C   -0.224580
    23  C   -0.171416
    24  C    0.157991
    25  C   -0.170688
    26  C   -0.220690
    27  H    0.239684
    28  H    0.227064
    29  H    0.275443
    30  H    0.275291
    31  H    0.223410
    32  N    0.488063
    33  O   -0.460617
    34  O   -0.460630
 Sum of Mulliken charges =  -0.00000

 Dipole moment (field-independent basis, Debye):
    X=             -5.3371    Y=             -0.5978    Z=              1.1131  Tot=              5.4846
 Quadrupole moment (field-independent basis, Debye-Ang):
   XX=           -131.7260   YY=            -92.3751   ZZ=            -92.8595
   XY=             -3.1087   XZ=              4.9358   YZ=             -3.2926

 Normal termination of Gaussian 16 at Wed May  5 20:22:21 2021.
