 Gaussian 16, Revision A.03,
 Gaussian 16:  EM64L-G16RevA.03 25-Dec-2016

 -------------
 #p 6-31g* mp2
 -------------

 ------------------------------------------------------
 Input file generated by CHIRIPA (05-May-2021 14:51:14)
 ------------------------------------------------------
 Symbolic Z-matrix:
 Charge =  0 Multiplicity = 1

                         Standard orientation:
 ---------------------------------------------------------------------
 Center     Atomic      Atomic             Coordinates (Angstroms)
 Number     Number       Type             X           Y           Z
 ---------------------------------------------------------------------
      1          6           0       -2.603597   -0.606414   -0.051263
      2          6           0       -2.316026   -1.508396    1.149452
      3          6           0       -2.258100   -2.989821    0.775528
      4          1           0       -3.555800   -0.908094   -0.508694
      5          1           0       -1.827360   -0.763179   -0.813021
      6          1           0       -3.091806   -1.348962    1.909296
      7          1           0       -1.364491   -1.204410    1.604193
      8          1           0       -1.472103   -3.169767    0.034968
      9          1           0       -3.209232   -3.315140    0.341804
     10          1           0       -2.051424   -3.616490    1.648701
     11          6           0       -2.664571    0.877485    0.306581
     12          6           0       -2.952141    1.779467   -0.894134
     13          6           0       -3.010068    3.260892   -0.520209
     14          1           0       -3.440808    1.034250    1.068340
     15          1           0       -1.712367    1.179165    0.764012
     16          1           0       -3.903676    1.475481   -1.348875
     17          1           0       -2.176361    1.620033   -1.653978
     18          1           0       -2.058935    3.586211   -0.086485
     19          1           0       -3.796065    3.440838    0.220351
     20          1           0       -3.216743    3.887561   -1.393382
     21          6           0        3.016340    0.331118    0.340899
     22          6           0        2.905930    1.805505   -0.048945
     23          6           0        3.675931    2.726588    0.897890
     24          1           0        2.643122    0.200500    1.365883
     25          1           0        4.076099    0.041095    0.354799
     26          1           0        1.846611    2.092297   -0.063453
     27          1           0        3.279276    1.932597   -1.073190
     28          1           0        4.739880    2.468617    0.905697
     29          1           0        3.299076    2.629225    1.921170
     30          1           0        3.583425    3.775860    0.600686
     31          6           0        2.251828   -0.602189   -0.596218
     32          6           0        2.362237   -2.076575   -0.206373
     33          6           0        1.592237   -2.997659   -1.153209
     34          1           0        1.192069   -0.312165   -0.610117
     35          1           0        2.625046   -0.471570   -1.621202
     36          1           0        1.988891   -2.203668    0.817871
     37          1           0        3.421555   -2.363368   -0.191865
     38          1           0        1.969091   -2.900295   -2.176489
     39          1           0        0.528286   -2.739688   -1.161016
     40          1           0        1.684743   -4.046931   -0.856005
 ---------------------------------------------------------------------

 SCF Done:  E(RHF) =  -470.733319518     A.U. after   11 cycles
 E2 =    -0.1583595378D+01 EUMP2 =    -0.47231691489595D+03

 The electronic state is 1-A.
 Alpha  occ. eigenvalues --  -11.21662 -11.21660 -11.21646 -11.21632 -11.21474
 Alpha  occ. eigenvalues --  -11.21461 -11.21413 -11.21402 -11.21123 -11.21113
 Alpha  occ. eigenvalues --  -11.21096 -11.21058  -1.08506  -1.08465  -1.03606
 Alpha  occ. eigenvalues --   -1.03545  -0.96063  -0.95986  -0.87086  -0.86996
 Alpha  occ. eigenvalues --   -0.79683  -0.79593  -0.78327  -0.78269  -0.65305
 Alpha  occ. eigenvalues --   -0.64944  -0.61203  -0.60758  -0.59411  -0.59370
 Alpha  occ. eigenvalues --   -0.57678  -0.57597  -0.55570  -0.55078  -0.52734
 Alpha  occ. eigenvalues --   -0.52694  -0.52515  -0.52378  -0.50190  -0.49741
 Alpha  occ. eigenvalues --   -0.48054  -0.47864  -0.46836  -0.46519  -0.45994
 Alpha  occ. eigenvalues --   -0.45817  -0.45775  -0.45539  -0.43844  -0.43819
 Alpha virt. eigenvalues --    0.18674   0.22401   0.23686   0.25432   0.25530
 Alpha virt. eigenvalues --    0.26122   0.26822   0.27608   0.28921   0.30042
 Alpha virt. eigenvalues --    0.30258   0.31364   0.31673   0.31826   0.32181

 Mulliken charges:
               1
     1  C   -0.301203
     2  C   -0.299774
     3  C   -0.481894
     4  H    0.150287
     5  H    0.150991
     6  H    0.152298
     7  H    0.151392
     8  H    0.161722
     9  H    0.155297
    10  H    0.160330
    11  C   -0.298604
    12  C   -0.299850
    13  C   -0.475677
    14  H    0.149949
    15  H    0.149129
    16  H    0.152157
    17  H    0.152272
    18  H    0.155025
    19  H    0.155246
    20  H    0.160515
    21  C   -0.298277
    22  C   -0.299675
    23  C   -0.475787
    24  H    0.149594
    25  H    0.149958
    26  H    0.151216
    27  H    0.152223
    28  H    0.155395
    29  H    0.155292
    30  H    0.160493
    31  C   -0.300925
    32  C   -0.299834
    33  C   -0.481402
    34  H    0.150820
    35  H    0.149997
    36  H    0.152525
    37  H    0.152432
    38  H    0.155578
    39  H    0.159785
    40  H    0.160983
 Sum of Mulliken charges =  -0.00000

 Dipole moment (field-independent basis, Debye):
    X=              0.0121    Y=             -0.0092    Z=             -0.0100  Tot=              0.0181
 Quadrupole moment (field-independent basis, Debye-Ang):
   XX=            -83.1860   YY=            -86.5575   ZZ=            -84.7788
   XY=             -0.3397   XZ=             -0.9534   YZ=             -0.5460

 Normal termination of Gaussian 16 at Thu May  6 02:24:54 2021.
