 Gaussian 16, Revision A.03,
 Gaussian 16:  EM64L-G16RevA.03 25-Dec-2016

 -------------
 #p 6-31g* mp2
 -------------

 ------------------------------------------------------
 Input file generated by CHIRIPA (05-May-2021 14:57:26)
 ------------------------------------------------------
 Symbolic Z-matrix:
 Charge =  0 Multiplicity = 1

                         Standard orientation:
 ---------------------------------------------------------------------
 Center     Atomic      Atomic             Coordinates (Angstroms)
 Number     Number       Type             X           Y           Z
 ---------------------------------------------------------------------
      1          6           0       -3.454563    2.546861    0.693899
      2          6           0       -2.361578    1.824064    0.204543
      3          6           0       -2.519790    0.504434   -0.229154
      4          6           0       -3.790811   -0.063802   -0.159133
      5          6           0       -4.899237    0.630363    0.323378
      6          6           0       -4.717677    1.948758    0.751653
      7          1           0       -3.322591    3.571501    1.028700
      8          1           0       -1.379466    2.286000    0.158536
      9          1           0       -1.690807   -0.078049   -0.612451
     10          1           0       -5.866025    0.142918    0.357077
     11          1           0       -5.568304    2.507688    1.131227
     12          7           0       -3.970662   -1.460182   -0.615398
     13          8           0       -5.100758   -1.938034   -0.543441
     14          8           0       -2.978128   -2.050371   -1.036337
     15          6           0        5.761111    1.084895   -0.810814
     16          6           0        4.482187    1.365813   -1.302709
     17          6           0        3.366875    0.678747   -0.814277
     18          6           0        3.567822   -0.287302    0.170435
     19          6           0        4.829348   -0.589817    0.680659
     20          6           0        5.930311    0.109696    0.177557
     21          1           0        6.621939    1.623459   -1.195938
     22          1           0        4.347791    2.122651   -2.070290
     23          1           0        2.365571    0.876257   -1.177320
     24          1           0        4.931777   -1.349695    1.445846
     25          1           0        6.922366   -0.110562    0.561432
     26          7           0        2.394687   -1.021257    0.695282
     27          8           0        2.598355   -1.867768    1.562792
     28          8           0        1.293729   -0.736122    0.229207
 ---------------------------------------------------------------------

 SCF Done:  E(RHF) =  -868.338187391     A.U. after   16 cycles
 E2 =    -0.2598958179D+01 EUMP2 =    -0.87093714557063D+03

 The electronic state is 1-A.
 Alpha  occ. eigenvalues --  -20.61172 -20.61128 -20.59920 -20.59879 -15.86211
 Alpha  occ. eigenvalues --  -15.84956 -11.31537 -11.30334 -11.28139 -11.28067
 Alpha  occ. eigenvalues --  -11.27818 -11.27118 -11.27077 -11.27000 -11.26805
 Alpha  occ. eigenvalues --  -11.26778 -11.26034 -11.25952  -1.60209  -1.58980
 Alpha  occ. eigenvalues --   -1.39772  -1.38529  -1.19700  -1.18544  -1.09095
 Alpha  occ. eigenvalues --   -1.07957  -1.05102  -1.03943  -0.95940  -0.94772
 Alpha  occ. eigenvalues --   -0.86500  -0.85353  -0.82783  -0.81597  -0.77839
 Alpha  occ. eigenvalues --   -0.76616  -0.72436  -0.71526  -0.71177  -0.70809
 Alpha  occ. eigenvalues --   -0.70304  -0.69665  -0.65358  -0.65102  -0.64203
 Alpha  occ. eigenvalues --   -0.63968  -0.62456  -0.61264  -0.55593  -0.54503
 Alpha  occ. eigenvalues --   -0.53426  -0.53195  -0.52292  -0.52039  -0.49186
 Alpha  occ. eigenvalues --   -0.49151  -0.47952  -0.47915  -0.45183  -0.43930
 Alpha  occ. eigenvalues --   -0.37669  -0.36703  -0.36574  -0.35545
 Alpha virt. eigenvalues --    0.04707   0.05907   0.10952   0.12097   0.16211
 Alpha virt. eigenvalues --    0.17361   0.20914   0.22140   0.26657   0.27366
 Alpha virt. eigenvalues --    0.28496   0.29123   0.30850   0.31602   0.32431

 Mulliken charges:
               1
     1  C   -0.171168
     2  C   -0.219778
     3  C   -0.170993
     4  C    0.156641
     5  C   -0.171130
     6  C   -0.219644
     7  H    0.221493
     8  H    0.220068
     9  H    0.292194
    10  H    0.273364
    11  H    0.220063
    12  N    0.487578
    13  O   -0.464930
    14  O   -0.455214
    15  C   -0.170606
    16  C   -0.218192
    17  C   -0.170653
    18  C    0.158968
    19  C   -0.170413
    20  C   -0.218272
    21  H    0.226697
    22  H    0.223465
    23  H    0.270267
    24  H    0.277132
    25  H    0.224897
    26  N    0.493039
    27  O   -0.454828
    28  O   -0.470045
 Sum of Mulliken charges =  -0.00000

 Dipole moment (field-independent basis, Debye):
    X=              5.1628    Y=              7.3288    Z=             -0.2289  Tot=              8.9676
 Quadrupole moment (field-independent basis, Debye-Ang):
   XX=            -74.4065   YY=           -107.0609   ZZ=           -105.1467
   XY=            -12.4991   XZ=            -11.2111   YZ=             -1.8615

 Normal termination of Gaussian 16 at Thu May  6 03:37:07 2021.
