 Gaussian 16, Revision A.03,
 Gaussian 16:  EM64L-G16RevA.03 25-Dec-2016

 -------------
 #p 6-31g* mp2
 -------------

 ------------------------------------------------------
 Input file generated by CHIRIPA (05-May-2021 14:55:19)
 ------------------------------------------------------
 Symbolic Z-matrix:
 Charge =  0 Multiplicity = 1

                         Standard orientation:
 ---------------------------------------------------------------------
 Center     Atomic      Atomic             Coordinates (Angstroms)
 Number     Number       Type             X           Y           Z
 ---------------------------------------------------------------------
      1          6           0       -1.470435   -2.396276    0.828846
      2          6           0       -2.868192   -2.409877    0.777755
      3          6           0       -3.572647   -1.294484    0.314948
      4          6           0       -2.844133   -0.177352   -0.090729
      5          6           0       -1.451359   -0.133194   -0.051739
      6          6           0       -0.767718   -1.259982    0.414667
      7          1           0       -0.931282   -3.267166    1.189764
      8          1           0       -3.416556   -3.290952    1.098767
      9          1           0       -4.654608   -1.278007    0.264882
     10          1           0       -0.932381    0.759710   -0.378543
     11          1           0        0.317813   -1.246588    0.453243
     12          7           0       -3.578891    1.009495   -0.582587
     13          8           0       -2.913718    1.981360   -0.934244
     14          8           0       -4.806053    0.945409   -0.607134
     15          6           0        2.857758    0.909684    0.062455
     16          6           0        3.104880    2.262465    0.730960
     17          6           0        1.839636    3.115887    0.823817
     18          1           0        2.450153    1.074401   -0.944357
     19          1           0        2.087641    0.365177    0.626219
     20          1           0        3.875293    2.803681    0.166901
     21          1           0        3.512123    2.094510    1.736226
     22          1           0        1.068437    2.599542    1.404542
     23          1           0        1.433671    3.312744   -0.173700
     24          1           0        2.039076    4.078478    1.304963
     25          6           0        4.113215    0.045091   -0.037714
     26          6           0        3.866093   -1.307689   -0.706219
     27          6           0        5.131337   -2.161112   -0.799076
     28          1           0        4.883332    0.589598   -0.601477
     29          1           0        4.520820   -0.119626    0.969099
     30          1           0        3.458850   -1.139735   -1.711485
     31          1           0        3.095679   -1.848907   -0.142159
     32          1           0        5.537302   -2.357968    0.198441
     33          1           0        5.902536   -1.644768   -1.379801
     34          1           0        4.931896   -3.123704   -1.280222
 ---------------------------------------------------------------------

 SCF Done:  E(RHF) =  -669.535623567     A.U. after   15 cycles
 E2 =    -0.2091987109D+01 EUMP2 =    -0.67162761067564D+03

 The electronic state is 1-A.
 Alpha  occ. eigenvalues --  -20.60697 -20.60691 -15.85749 -11.31102 -11.27680
 Alpha  occ. eigenvalues --  -11.27643 -11.27416 -11.26697 -11.26636 -11.22450
 Alpha  occ. eigenvalues --  -11.22270 -11.22124 -11.22109 -11.21733 -11.21409
 Alpha  occ. eigenvalues --   -1.59772  -1.39326  -1.19274  -1.09174  -1.08673
 Alpha  occ. eigenvalues --   -1.04672  -1.04163  -0.96597  -0.95509  -0.87608
 Alpha  occ. eigenvalues --   -0.86075  -0.82346  -0.80235  -0.79043  -0.77374
 Alpha  occ. eigenvalues --   -0.71968  -0.71095  -0.70385  -0.65841  -0.64924
 Alpha  occ. eigenvalues --   -0.64658  -0.62026  -0.61549  -0.59976  -0.58219
 Alpha  occ. eigenvalues --   -0.55880  -0.55184  -0.53255  -0.53065  -0.53008
 Alpha  occ. eigenvalues --   -0.52725  -0.50533  -0.48730  -0.48723  -0.48541
 Alpha  occ. eigenvalues --   -0.47276  -0.46514  -0.46451  -0.44734  -0.44447
 Alpha  occ. eigenvalues --   -0.37262  -0.36274
 Alpha virt. eigenvalues --    0.05131   0.11358   0.16592   0.19245   0.22703
 Alpha virt. eigenvalues --    0.22882   0.24486   0.26004   0.26783   0.28483
 Alpha virt. eigenvalues --    0.29990   0.30592   0.31210   0.31437   0.32108

 Mulliken charges:
               1
     1  C   -0.171870
     2  C   -0.218576
     3  C   -0.171061
     4  C    0.158744
     5  C   -0.175552
     6  C   -0.226790
     7  H    0.225385
     8  H    0.222989
     9  H    0.275261
    10  H    0.278437
    11  H    0.233728
    12  N    0.488034
    13  O   -0.460321
    14  O   -0.460899
    15  C   -0.305417
    16  C   -0.299527
    17  C   -0.479060
    18  H    0.152135
    19  H    0.142282
    20  H    0.155368
    21  H    0.153090
    22  H    0.154391
    23  H    0.160254
    24  H    0.164870
    25  C   -0.298362
    26  C   -0.301263
    27  C   -0.476043
    28  H    0.154183
    29  H    0.151237
    30  H    0.154924
    31  H    0.143376
    32  H    0.156116
    33  H    0.158573
    34  H    0.161363
 Sum of Mulliken charges =  -0.00000

 Dipole moment (field-independent basis, Debye):
    X=              2.8122    Y=             -4.0430    Z=              1.6923  Tot=              5.2075
 Quadrupole moment (field-independent basis, Debye-Ang):
   XX=           -105.6714   YY=            -92.5455   ZZ=            -94.9444
   XY=             14.8187   XZ=             -6.1929   YZ=             -0.7864

 Normal termination of Gaussian 16 at Thu May  6 04:30:15 2021.
