 Gaussian 16, Revision A.03,
 Gaussian 16:  EM64L-G16RevA.03 25-Dec-2016

 -------------
 #p 6-31g* mp2
 -------------

 ------------------------------------------------------
 Input file generated by CHIRIPA (05-May-2021 14:53:12)
 ------------------------------------------------------
 Symbolic Z-matrix:
 Charge =  0 Multiplicity = 1

                         Standard orientation:
 ---------------------------------------------------------------------
 Center     Atomic      Atomic             Coordinates (Angstroms)
 Number     Number       Type             X           Y           Z
 ---------------------------------------------------------------------
      1          6           0       -3.089522   -0.418574    0.187418
      2          6           0       -2.509431   -0.575401    1.593435
      3          6           0       -1.020503   -0.922937    1.583252
      4          1           0       -2.932867   -1.350413   -0.373010
      5          1           0       -2.532943    0.364363   -0.346085
      6          1           0       -3.067836   -1.356849    2.124603
      7          1           0       -2.667656    0.356854    2.150644
      8          1           0       -0.445745   -0.140553    1.077158
      9          1           0       -0.848198   -1.863993    1.050969
     10          1           0       -0.626376   -1.030401    2.598622
     11          6           0       -4.577120   -0.071098    0.181101
     12          6           0       -5.157211    0.085729   -1.224916
     13          6           0       -6.646140    0.433266   -1.214733
     14          1           0       -5.133699   -0.854035    0.714604
     15          1           0       -4.733775    0.860742    0.741530
     16          1           0       -4.998986   -0.846525   -1.782125
     17          1           0       -4.598806    0.867178   -1.756084
     18          1           0       -6.818444    1.374322   -0.682450
     19          1           0       -7.220897   -0.349118   -0.708639
     20          1           0       -7.040266    0.540730   -2.230103
     21          6           0        2.358744    2.546402    0.500075
     22          6           0        2.044111    1.479571    1.348247
     23          6           0        2.391663    0.170534    1.001576
     24          6           0        3.056272   -0.036407   -0.206215
     25          6           0        3.383587    1.005585   -1.072475
     26          6           0        3.026302    2.306428   -0.705454
     27          1           0        2.084978    3.560110    0.777281
     28          1           0        1.525723    1.662965    2.285096
     29          1           0        2.160294   -0.673829    1.639492
     30          1           0        3.900824    0.791435   -1.999851
     31          1           0        3.271930    3.133008   -1.366118
     32          7           0        3.429362   -1.417888   -0.583992
     33          8           0        4.014476   -1.573749   -1.653564
     34          8           0        3.129611   -2.318671    0.196633
 ---------------------------------------------------------------------

 SCF Done:  E(RHF) =  -669.534730094     A.U. after   15 cycles
 E2 =    -0.2092288032D+01 EUMP2 =    -0.67162701812600D+03

 The electronic state is 1-A.
 Alpha  occ. eigenvalues --  -20.60743 -20.60738 -15.85798 -11.31159 -11.27754
 Alpha  occ. eigenvalues --  -11.27716 -11.27506 -11.26761 -11.26737 -11.21847
 Alpha  occ. eigenvalues --  -11.21726 -11.21570 -11.21509 -11.21299 -11.21187
 Alpha  occ. eigenvalues --   -1.59818  -1.39371  -1.19358  -1.08748  -1.08606
 Alpha  occ. eigenvalues --   -1.04771  -1.03716  -0.96184  -0.95575  -0.87210
 Alpha  occ. eigenvalues --   -0.86149  -0.82413  -0.79797  -0.78413  -0.77443
 Alpha  occ. eigenvalues --   -0.72016  -0.71142  -0.70461  -0.65245  -0.65002
 Alpha  occ. eigenvalues --   -0.64754  -0.62124  -0.61109  -0.59551  -0.57790
 Alpha  occ. eigenvalues --   -0.55500  -0.55260  -0.53249  -0.52936  -0.52775
 Alpha  occ. eigenvalues --   -0.52461  -0.50083  -0.48776  -0.48767  -0.48095
 Alpha  occ. eigenvalues --   -0.46809  -0.45953  -0.45876  -0.44774  -0.43983
 Alpha  occ. eigenvalues --   -0.37350  -0.36270
 Alpha virt. eigenvalues --    0.05067   0.11249   0.16483   0.21062   0.22733
 Alpha virt. eigenvalues --    0.24102   0.26287   0.26531   0.27380   0.28007
 Alpha virt. eigenvalues --    0.28820   0.30624   0.31454   0.31537   0.31823

 Mulliken charges:
               1
     1  C   -0.298751
     2  C   -0.299187
     3  C   -0.486303
     4  H    0.153028
     5  H    0.148615
     6  H    0.153857
     7  H    0.147932
     8  H    0.158772
     9  H    0.165100
    10  H    0.152994
    11  C   -0.298342
    12  C   -0.299769
    13  C   -0.475763
    14  H    0.150495
    15  H    0.148067
    16  H    0.153595
    17  H    0.151149
    18  H    0.154363
    19  H    0.155800
    20  H    0.160753
    21  C   -0.171400
    22  C   -0.220355
    23  C   -0.169032
    24  C    0.157769
    25  C   -0.170993
    26  C   -0.218993
    27  H    0.225493
    28  H    0.224794
    29  H    0.280123
    30  H    0.275593
    31  H    0.223297
    32  N    0.488230
    33  O   -0.460718
    34  O   -0.460212
 Sum of Mulliken charges =  -0.00000

 Dipole moment (field-independent basis, Debye):
    X=             -1.3237    Y=              4.8121    Z=              1.2790  Tot=              5.1521
 Quadrupole moment (field-independent basis, Debye-Ang):
   XX=           -103.7479   YY=            -94.0720   ZZ=            -92.1656
   XY=             16.4968   XZ=              2.3796   YZ=             -2.6462

 Normal termination of Gaussian 16 at Thu May  6 10:26:56 2021.
