 Gaussian 16, Revision A.03,
 Gaussian 16:  EM64L-G16RevA.03 25-Dec-2016

 -------------
 #p 6-31g* mp2
 -------------

 ------------------------------------------------------
 Input file generated by CHIRIPA (05-May-2021 14:55:21)
 ------------------------------------------------------
 Symbolic Z-matrix:
 Charge =  0 Multiplicity = 1

                         Standard orientation:
 ---------------------------------------------------------------------
 Center     Atomic      Atomic             Coordinates (Angstroms)
 Number     Number       Type             X           Y           Z
 ---------------------------------------------------------------------
      1          6           0       -1.193724    2.578584    0.997864
      2          6           0       -1.592893    2.599658   -0.342562
      3          6           0       -2.203847    1.482122   -0.919102
      4          6           0       -2.401119    0.355250   -0.122526
      5          6           0       -2.014548    0.303485    1.215821
      6          6           0       -1.405452    1.432585    1.771413
      7          1           0       -0.719842    3.451204    1.437598
      8          1           0       -1.429728    3.488276   -0.945703
      9          1           0       -2.522692    1.471288   -1.954302
     10          1           0       -2.190530   -0.596870    1.791851
     11          1           0       -1.096481    1.413372    2.812669
     12          7           0       -3.046925   -0.833956   -0.721795
     13          8           0       -3.209468   -1.814460    0.001274
     14          8           0       -3.378336   -0.763034   -1.903224
     15          6           0        3.582147   -0.560923   -0.352389
     16          6           0        4.116248    0.854076   -0.127671
     17          6           0        5.406944    1.128365   -0.900112
     18          1           0        4.350584   -1.287571   -0.055016
     19          1           0        3.407120   -0.712999   -1.426463
     20          1           0        4.288907    1.003908    0.945807
     21          1           0        3.346378    1.577440   -0.425435
     22          1           0        5.245354    1.006257   -1.976021
     23          1           0        6.193237    0.429466   -0.596988
     24          1           0        5.771155    2.145497   -0.725032
     25          6           0        2.292240   -0.850266    0.413213
     26          6           0        1.758140   -2.265265    0.188496
     27          6           0        0.467444   -2.539554    0.960937
     28          1           0        2.467266   -0.698189    1.487287
     29          1           0        1.523803   -0.123617    0.115841
     30          1           0        2.528009   -2.988628    0.486259
     31          1           0        1.585480   -2.415097   -0.884982
     32          1           0       -0.318850   -1.840655    0.657813
     33          1           0        0.629033   -2.417445    2.036846
     34          1           0        0.103233   -3.556686    0.785857
 ---------------------------------------------------------------------

 SCF Done:  E(RHF) =  -669.534887090     A.U. after   15 cycles
 E2 =    -0.2093581743D+01 EUMP2 =    -0.67162846883305D+03

 The electronic state is 1-A.
 Alpha  occ. eigenvalues --  -20.60872 -20.60844 -15.85891 -11.31246 -11.27831
 Alpha  occ. eigenvalues --  -11.27803 -11.27572 -11.26833 -11.26816 -11.21822
 Alpha  occ. eigenvalues --  -11.21484 -11.21461 -11.21383 -11.21271 -11.20777
 Alpha  occ. eigenvalues --   -1.59925  -1.39479  -1.19439  -1.08828  -1.08481
 Alpha  occ. eigenvalues --   -1.04837  -1.03549  -0.95998  -0.95656  -0.87022
 Alpha  occ. eigenvalues --   -0.86226  -0.82488  -0.79636  -0.78303  -0.77531
 Alpha  occ. eigenvalues --   -0.72113  -0.71258  -0.70541  -0.65134  -0.65071
 Alpha  occ. eigenvalues --   -0.64827  -0.62195  -0.60950  -0.59363  -0.57609
 Alpha  occ. eigenvalues --   -0.55395  -0.55239  -0.53220  -0.52948  -0.52645
 Alpha  occ. eigenvalues --   -0.52375  -0.49964  -0.48876  -0.48869  -0.47938
 Alpha  occ. eigenvalues --   -0.46688  -0.45837  -0.45763  -0.44789  -0.43790
 Alpha  occ. eigenvalues --   -0.37398  -0.36379
 Alpha virt. eigenvalues --    0.04982   0.11135   0.16462   0.21311   0.22784
 Alpha virt. eigenvalues --    0.24325   0.26481   0.26839   0.27455   0.27815
 Alpha virt. eigenvalues --    0.28688   0.30628   0.31482   0.31681   0.32100

 Mulliken charges:
               1
     1  C   -0.170814
     2  C   -0.219037
     3  C   -0.171216
     4  C    0.159221
     5  C   -0.174310
     6  C   -0.217331
     7  H    0.226254
     8  H    0.223708
     9  H    0.275759
    10  H    0.278581
    11  H    0.224321
    12  N    0.488728
    13  O   -0.458572
    14  O   -0.459762
    15  C   -0.298102
    16  C   -0.298946
    17  C   -0.475599
    18  H    0.150259
    19  H    0.150841
    20  H    0.150001
    21  H    0.148969
    22  H    0.155996
    23  H    0.156221
    24  H    0.158825
    25  C   -0.299792
    26  C   -0.300365
    27  C   -0.478855
    28  H    0.145149
    29  H    0.150816
    30  H    0.151197
    31  H    0.154692
    32  H    0.158359
    33  H    0.146670
    34  H    0.168133
 Sum of Mulliken charges =  -0.00000

 Dipole moment (field-independent basis, Debye):
    X=              2.1654    Y=              4.1598    Z=              2.0785  Tot=              5.1296
 Quadrupole moment (field-independent basis, Debye-Ang):
   XX=           -107.2174   YY=            -90.8963   ZZ=            -91.2710
   XY=            -10.0192   XZ=             -4.2611   YZ=             -2.1065

 Normal termination of Gaussian 16 at Thu May  6 20:43:12 2021.
