 Gaussian 16, Revision A.03,
 Gaussian 16:  EM64L-G16RevA.03 25-Dec-2016

 -------------
 #p 6-31g* mp2
 -------------

 ------------------------------------------------------
 Input file generated by CHIRIPA (05-May-2021 14:51:14)
 ------------------------------------------------------
 Symbolic Z-matrix:
 Charge =  0 Multiplicity = 1

                         Standard orientation:
 ---------------------------------------------------------------------
 Center     Atomic      Atomic             Coordinates (Angstroms)
 Number     Number       Type             X           Y           Z
 ---------------------------------------------------------------------
      1          6           0        2.912973    0.114207   -0.392172
      2          6           0        2.402150   -1.118786   -1.138346
      3          6           0        3.515973   -1.874197   -1.863979
      4          1           0        3.409893    0.786519   -1.104921
      5          1           0        3.679324   -0.195374    0.331887
      6          1           0        1.636000   -0.807147   -1.859811
      7          1           0        1.906219   -1.788151   -0.423770
      8          1           0        4.277453   -2.213055   -1.154102
      9          1           0        4.005698   -1.226477   -2.598302
     10          1           0        3.128645   -2.751924   -2.390698
     11          6           0        1.811194    0.879922    0.338234
     12          6           0        2.322017    2.112914    1.084407
     13          6           0        1.208193    2.868325    1.810041
     14          1           0        1.044843    1.189502   -0.385825
     15          1           0        1.314274    0.207609    1.050982
     16          1           0        2.817948    2.782280    0.369832
     17          1           0        3.088167    1.801275    1.805873
     18          1           0        0.718469    2.220605    2.544363
     19          1           0        0.446714    3.207183    1.100164
     20          1           0        1.595522    3.746052    2.336760
     21          6           0       -1.809706   -0.979365    0.240738
     22          6           0       -2.180946   -1.824599    1.459649
     23          6           0       -1.065773   -2.784549    1.875195
     24          1           0       -1.565316   -1.644992   -0.598405
     25          1           0       -0.897361   -0.408751    0.463041
     26          1           0       -3.093099   -2.392398    1.235604
     27          1           0       -2.424667   -1.156882    2.295933
     28          1           0       -0.154669   -2.231440    2.125320
     29          1           0       -0.826899   -3.473977    1.058966
     30          1           0       -1.352339   -3.378902    2.748399
     31          6           0       -2.914460   -0.014762   -0.186799
     32          6           0       -2.543221    0.830471   -1.405711
     33          6           0       -3.658395    1.790420   -1.821257
     34          1           0       -3.826807   -0.585377   -0.409102
     35          1           0       -3.158852    0.650863    0.652344
     36          1           0       -2.299500    0.162753   -2.241995
     37          1           0       -1.631067    1.398270   -1.181666
     38          1           0       -3.897268    2.479849   -1.005028
     39          1           0       -4.569498    1.237312   -2.071381
     40          1           0       -3.371828    2.384774   -2.694460
 ---------------------------------------------------------------------

 SCF Done:  E(RHF) =  -470.732782389     A.U. after   11 cycles
 E2 =    -0.1584744594D+01 EUMP2 =    -0.47231752698267D+03

 The electronic state is 1-A.
 Alpha  occ. eigenvalues --  -11.21667 -11.21591 -11.21572 -11.21555 -11.21456
 Alpha  occ. eigenvalues --  -11.21386 -11.21319 -11.21185 -11.21160 -11.21095
 Alpha  occ. eigenvalues --  -11.21064 -11.21059  -1.08498  -1.08351  -1.03563
 Alpha  occ. eigenvalues --   -1.03507  -0.96028  -0.95944  -0.87041  -0.86965
 Alpha  occ. eigenvalues --   -0.79628  -0.79573  -0.78560  -0.77934  -0.65122
 Alpha  occ. eigenvalues --   -0.65000  -0.60989  -0.60879  -0.59395  -0.59311
 Alpha  occ. eigenvalues --   -0.57679  -0.57524  -0.55312  -0.55241  -0.52723
 Alpha  occ. eigenvalues --   -0.52653  -0.52481  -0.52350  -0.49975  -0.49890
 Alpha  occ. eigenvalues --   -0.47987  -0.47910  -0.46767  -0.46601  -0.46465
 Alpha  occ. eigenvalues --   -0.45692  -0.45658  -0.44874  -0.43817  -0.43733
 Alpha virt. eigenvalues --    0.20384   0.21893   0.23563   0.24166   0.25094
 Alpha virt. eigenvalues --    0.26300   0.27007   0.27875   0.28236   0.30278
 Alpha virt. eigenvalues --    0.31027   0.31382   0.31659   0.31819   0.32054

 Mulliken charges:
               1
     1  C   -0.297627
     2  C   -0.301849
     3  C   -0.475729
     4  H    0.149667
     5  H    0.149455
     6  H    0.152801
     7  H    0.154488
     8  H    0.155109
     9  H    0.155002
    10  H    0.160197
    11  C   -0.307619
    12  C   -0.298654
    13  C   -0.476525
    14  H    0.154446
    15  H    0.153111
    16  H    0.152281
    17  H    0.152178
    18  H    0.154708
    19  H    0.154926
    20  H    0.161051
    21  C   -0.308764
    22  C   -0.299264
    23  C   -0.477448
    24  H    0.149107
    25  H    0.162875
    26  H    0.151633
    27  H    0.151335
    28  H    0.154806
    29  H    0.155628
    30  H    0.160344
    31  C   -0.297529
    32  C   -0.302894
    33  C   -0.475600
    34  H    0.149002
    35  H    0.149359
    36  H    0.151682
    37  H    0.153815
    38  H    0.155284
    39  H    0.155387
    40  H    0.159823
 Sum of Mulliken charges =  -0.00000

 Dipole moment (field-independent basis, Debye):
    X=              0.0449    Y=              0.0158    Z=             -0.0008  Tot=              0.0476
 Quadrupole moment (field-independent basis, Debye-Ang):
   XX=            -85.6926   YY=            -84.9551   ZZ=            -84.2555
   XY=              1.1849   XZ=              0.4787   YZ=             -0.0542

 Normal termination of Gaussian 16 at Wed May  5 15:23:24 2021.
