 Gaussian 16, Revision A.03,
 Gaussian 16:  EM64L-G16RevA.03 25-Dec-2016

 -------------
 #p 6-31g* mp2
 -------------

 ------------------------------------------------------
 Input file generated by CHIRIPA (05-May-2021 14:57:24)
 ------------------------------------------------------
 Symbolic Z-matrix:
 Charge =  0 Multiplicity = 1

                         Standard orientation:
 ---------------------------------------------------------------------
 Center     Atomic      Atomic             Coordinates (Angstroms)
 Number     Number       Type             X           Y           Z
 ---------------------------------------------------------------------
      1          6           0       -0.918685    2.585441    0.625612
      2          6           0       -1.577294    2.444449   -0.600306
      3          6           0       -2.397292    1.338371   -0.842676
      4          6           0       -2.536781    0.388092    0.167671
      5          6           0       -1.893830    0.500355    1.399459
      6          6           0       -1.078773    1.614655    1.619830
      7          1           0       -0.283610    3.447863    0.805347
      8          1           0       -1.454819    3.196808   -1.374258
      9          1           0       -2.918846    1.204327   -1.782587
     10          1           0       -2.035421   -0.266142    2.151691
     11          1           0       -0.568513    1.721542    2.572854
     12          7           0       -3.402261   -0.787216   -0.077270
     13          8           0       -3.508687   -1.610476    0.829125
     14          8           0       -3.957809   -0.862908   -1.171013
     15          6           0        0.274330   -1.930725   -0.437651
     16          6           0        0.593348   -0.960135   -1.393006
     17          6           0        1.765237   -0.206805   -1.275881
     18          6           0        2.599075   -0.451388   -0.185842
     19          6           0        2.308768   -1.411313    0.782432
     20          6           0        1.131547   -2.152824    0.645110
     21          1           0       -0.638093   -2.511339   -0.536482
     22          1           0       -0.070507   -0.785495   -2.234934
     23          1           0        2.036511    0.550856   -2.000987
     24          1           0        2.990246   -1.562697    1.610737
     25          1           0        0.886339   -2.905941    1.388570
     26          7           0        3.842524    0.339874   -0.051156
     27          8           0        4.560493    0.105225    0.918430
     28          8           0        4.075626    1.179730   -0.917726
 ---------------------------------------------------------------------

 SCF Done:  E(RHF) =  -868.338579761     A.U. after   16 cycles
 E2 =    -0.2603518226D+01 EUMP2 =    -0.87094209798737D+03

 The electronic state is 1-A.
 Alpha  occ. eigenvalues --  -20.61681 -20.61675 -20.61041 -20.61033 -15.86701
 Alpha  occ. eigenvalues --  -15.86088 -11.31764 -11.31315 -11.28347 -11.28320
 Alpha  occ. eigenvalues --  -11.27971 -11.27881 -11.27866 -11.27472 -11.27278
 Alpha  occ. eigenvalues --  -11.27230 -11.26809 -11.26797  -1.60769  -1.60122
 Alpha  occ. eigenvalues --   -1.40324  -1.39678  -1.19942  -1.19459  -1.09377
 Alpha  occ. eigenvalues --   -1.08868  -1.05303  -1.04850  -0.96256  -0.95733
 Alpha  occ. eigenvalues --   -0.86713  -0.86246  -0.83099  -0.82572  -0.78194
 Alpha  occ. eigenvalues --   -0.77657  -0.72919  -0.72309  -0.72167  -0.71451
 Alpha  occ. eigenvalues --   -0.71024  -0.70479  -0.65586  -0.65294  -0.65108
 Alpha  occ. eigenvalues --   -0.64838  -0.62664  -0.62211  -0.55769  -0.55282
 Alpha  occ. eigenvalues --   -0.54206  -0.53387  -0.52941  -0.52608  -0.49702
 Alpha  occ. eigenvalues --   -0.49654  -0.49072  -0.49050  -0.45782  -0.45115
 Alpha  occ. eigenvalues --   -0.38327  -0.37216  -0.36824  -0.36206
 Alpha virt. eigenvalues --    0.04262   0.04870   0.10409   0.11480   0.15825
 Alpha virt. eigenvalues --    0.16462   0.20788   0.21550   0.26529   0.27418
 Alpha virt. eigenvalues --    0.27714   0.28378   0.30651   0.30860   0.31735

 Mulliken charges:
               1
     1  C   -0.168677
     2  C   -0.219395
     3  C   -0.176587
     4  C    0.158356
     5  C   -0.167239
     6  C   -0.216284
     7  H    0.231664
     8  H    0.225540
     9  H    0.273717
    10  H    0.273255
    11  H    0.226849
    12  N    0.484367
    13  O   -0.462701
    14  O   -0.460659
    15  C   -0.177379
    16  C   -0.214638
    17  C   -0.171191
    18  C    0.156997
    19  C   -0.173654
    20  C   -0.221545
    21  H    0.238388
    22  H    0.224375
    23  H    0.272350
    24  H    0.274187
    25  H    0.226092
    26  N    0.487549
    27  O   -0.461089
    28  O   -0.462647
 Sum of Mulliken charges =  -0.00000

 Dipole moment (field-independent basis, Debye):
    X=             -1.3943    Y=              1.4460    Z=              0.4736  Tot=              2.0638
 Quadrupole moment (field-independent basis, Debye-Ang):
   XX=           -145.0032   YY=            -97.8016   ZZ=            -96.8831
   XY=            -15.7901   XZ=              0.0126   YZ=             -2.2137

 Normal termination of Gaussian 16 at Thu May  6 19:39:15 2021.
