 Gaussian 16, Revision A.03,
 Gaussian 16:  EM64L-G16RevA.03 25-Dec-2016

 -------------
 #p 6-31g* mp2
 -------------

 ------------------------------------------------------
 Input file generated by CHIRIPA (05-May-2021 14:51:07)
 ------------------------------------------------------
 Symbolic Z-matrix:
 Charge =  0 Multiplicity = 1

                         Standard orientation:
 ---------------------------------------------------------------------
 Center     Atomic      Atomic             Coordinates (Angstroms)
 Number     Number       Type             X           Y           Z
 ---------------------------------------------------------------------
      1          6           0        4.080310    0.273488   -0.306216
      2          6           0        4.548779    1.607263    0.276508
      3          6           0        5.607354    2.291332   -0.589092
      4          1           0        4.946190   -0.392387   -0.423718
      5          1           0        3.677341    0.443071   -1.314310
      6          1           0        4.949474    1.435421    1.283747
      7          1           0        3.681654    2.269972    0.392815
      8          1           0        5.214873    2.491537   -1.591329
      9          1           0        6.489896    1.652245   -0.695335
     10          1           0        5.928030    3.243012   -0.153970
     11          6           0        3.022026   -0.422452    0.547850
     12          6           0        2.553556   -1.756227   -0.034873
     13          6           0        1.494982   -2.440297    0.830726
     14          1           0        3.424994   -0.592036    1.555944
     15          1           0        2.156146    0.243423    0.665352
     16          1           0        3.420681   -2.418936   -0.151181
     17          1           0        2.152862   -1.584385   -1.042112
     18          1           0        0.612440   -1.801209    0.936969
     19          1           0        1.887462   -2.640502    1.832963
     20          1           0        1.174305   -3.391976    0.395604
     21          6           0       -3.604891   -0.683111   -0.202056
     22          6           0       -2.250704   -1.372082   -0.373762
     23          6           0       -2.374663   -2.887468   -0.535110
     24          1           0       -4.115829   -1.105961    0.673779
     25          1           0       -4.236655   -0.909687   -1.072074
     26          1           0       -1.621189   -1.143139    0.495669
     27          1           0       -1.742849   -0.947407   -1.249177
     28          1           0       -2.980820   -3.133096   -1.413087
     29          1           0       -2.858470   -3.329940    0.341674
     30          1           0       -1.394829   -3.359771   -0.656410
     31          6           0       -3.497445    0.832075   -0.039579
     32          6           0       -4.851631    1.521045    0.132128
     33          6           0       -4.727672    3.036432    0.293476
     34          1           0       -2.865680    1.058651    0.830439
     35          1           0       -2.986507    1.254925   -0.915413
     36          1           0       -5.359487    1.096372    1.007543
     37          1           0       -5.481146    1.292102   -0.737303
     38          1           0       -4.243866    3.478903   -0.583308
     39          1           0       -4.121515    3.282061    1.171451
     40          1           0       -5.707506    3.508735    0.414776
 ---------------------------------------------------------------------

 SCF Done:  E(RHF) =  -470.732978687     A.U. after   11 cycles
 E2 =    -0.1582982172D+01 EUMP2 =    -0.47231596085880D+03

 The electronic state is 1-A.
 Alpha  occ. eigenvalues --  -11.21615 -11.21604 -11.21594 -11.21584 -11.21418
 Alpha  occ. eigenvalues --  -11.21394 -11.21357 -11.21335 -11.21085 -11.21066
 Alpha  occ. eigenvalues --  -11.21024 -11.21019  -1.08447  -1.08412  -1.03566
 Alpha  occ. eigenvalues --   -1.03484  -0.96027  -0.95918  -0.87016  -0.86965
 Alpha  occ. eigenvalues --   -0.79641  -0.79548  -0.78278  -0.78213  -0.65110
 Alpha  occ. eigenvalues --   -0.65019  -0.61057  -0.60829  -0.59457  -0.59235
 Alpha  occ. eigenvalues --   -0.57610  -0.57579  -0.55335  -0.55157  -0.52814
 Alpha  occ. eigenvalues --   -0.52563  -0.52418  -0.52325  -0.49989  -0.49846
 Alpha  occ. eigenvalues --   -0.48049  -0.47782  -0.46781  -0.46472  -0.45858
 Alpha  occ. eigenvalues --   -0.45762  -0.45727  -0.45559  -0.43858  -0.43694
 Alpha virt. eigenvalues --    0.21382   0.23089   0.23435   0.25199   0.25763
 Alpha virt. eigenvalues --    0.26660   0.26974   0.27311   0.27896   0.29096
 Alpha virt. eigenvalues --    0.29586   0.30978   0.31426   0.31885   0.32629

 Mulliken charges:
               1
     1  C   -0.298268
     2  C   -0.299679
     3  C   -0.475694
     4  H    0.149616
     5  H    0.149517
     6  H    0.151872
     7  H    0.152013
     8  H    0.155163
     9  H    0.155155
    10  H    0.160235
    11  C   -0.298532
    12  C   -0.299429
    13  C   -0.482840
    14  H    0.149407
    15  H    0.149817
    16  H    0.151753
    17  H    0.151989
    18  H    0.162679
    19  H    0.154685
    20  H    0.160639
    21  C   -0.297662
    22  C   -0.303001
    23  C   -0.478169
    24  H    0.149816
    25  H    0.149577
    26  H    0.154635
    27  H    0.151280
    28  H    0.154734
    29  H    0.155107
    30  H    0.163975
    31  C   -0.298353
    32  C   -0.299630
    33  C   -0.475730
    34  H    0.149234
    35  H    0.149392
    36  H    0.152071
    37  H    0.152011
    38  H    0.155094
    39  H    0.155175
    40  H    0.160345
 Sum of Mulliken charges =  -0.00000

 Dipole moment (field-independent basis, Debye):
    X=             -0.0088    Y=             -0.0037    Z=              0.0049  Tot=              0.0108
 Quadrupole moment (field-independent basis, Debye-Ang):
   XX=            -84.9040   YY=            -86.1617   ZZ=            -83.7662
   XY=             -0.7416   XZ=              0.8421   YZ=             -0.1976

 Normal termination of Gaussian 16 at Thu May  6 08:24:00 2021.
