 Gaussian 16, Revision A.03,
 Gaussian 16:  EM64L-G16RevA.03 25-Dec-2016

 -------------
 #p 6-31g* mp2
 -------------

 ------------------------------------------------------
 Input file generated by CHIRIPA (05-May-2021 14:57:24)
 ------------------------------------------------------
 Symbolic Z-matrix:
 Charge =  0 Multiplicity = 1

                         Standard orientation:
 ---------------------------------------------------------------------
 Center     Atomic      Atomic             Coordinates (Angstroms)
 Number     Number       Type             X           Y           Z
 ---------------------------------------------------------------------
      1          6           0        2.551400    2.627212    0.447436
      2          6           0        2.187784    1.608288    1.334058
      3          6           0        2.486605    0.273875    1.043203
      4          6           0        3.152958   -0.007019   -0.148586
      5          6           0        3.528424    0.985885   -1.052165
      6          6           0        3.219382    2.313312   -0.740751
      7          1           0        2.315299    3.661103    0.681364
      8          1           0        1.668945    1.849121    2.257556
      9          1           0        2.216741   -0.534596    1.711758
     10          1           0        4.044823    0.714769   -1.964988
     11          1           0        3.502990    3.102562   -1.431183
     12          7           0        3.474716   -1.416005   -0.467383
     13          8           0        4.062454   -1.637266   -1.523908
     14          8           0        3.133080   -2.272428    0.345305
     15          6           0       -1.161591   -1.471383    1.123564
     16          6           0       -2.168089   -2.173278    0.452129
     17          6           0       -3.246738   -1.493167   -0.121032
     18          6           0       -3.287319   -0.104722   -0.003292
     19          6           0       -2.299992    0.622866    0.659346
     20          6           0       -1.230632   -0.078007    1.224851
     21          1           0       -0.327278   -2.007773    1.565837
     22          1           0       -2.117079   -3.255409    0.371913
     23          1           0       -4.039587   -2.011605   -0.646419
     24          1           0       -2.378331    1.701403    0.722912
     25          1           0       -0.450404    0.469709    1.745710
     26          7           0       -4.424319    0.626271   -0.606020
     27          8           0       -4.436864    1.849651   -0.488447
     28          8           0       -5.281426   -0.037997   -1.184599
 ---------------------------------------------------------------------

 SCF Done:  E(RHF) =  -868.336733783     A.U. after   16 cycles
 E2 =    -0.2601651444D+01 EUMP2 =    -0.87093838522713D+03

 The electronic state is 1-A.
 Alpha  occ. eigenvalues --  -20.61634 -20.61589 -20.60859 -20.60844 -15.86667
 Alpha  occ. eigenvalues --  -15.85907 -11.32060 -11.31244 -11.28766 -11.28571
 Alpha  occ. eigenvalues --  -11.28349 -11.27860 -11.27768 -11.27740 -11.27552
 Alpha  occ. eigenvalues --  -11.27500 -11.26858 -11.26741  -1.60679  -1.59930
 Alpha  occ. eigenvalues --   -1.40237  -1.39485  -1.20243  -1.19410  -1.09613
 Alpha  occ. eigenvalues --   -1.08806  -1.05688  -1.04814  -0.96451  -0.95644
 Alpha  occ. eigenvalues --   -0.87060  -0.86232  -0.83311  -0.82481  -0.78375
 Alpha  occ. eigenvalues --   -0.77540  -0.72888  -0.72128  -0.71997  -0.71347
 Alpha  occ. eigenvalues --   -0.71252  -0.70489  -0.65922  -0.65703  -0.65066
 Alpha  occ. eigenvalues --   -0.64880  -0.63040  -0.62142  -0.56119  -0.55299
 Alpha  occ. eigenvalues --   -0.54029  -0.53777  -0.53112  -0.52840  -0.49652
 Alpha  occ. eigenvalues --   -0.49630  -0.48886  -0.48879  -0.45637  -0.44898
 Alpha  occ. eigenvalues --   -0.38186  -0.37590  -0.37095  -0.36321
 Alpha virt. eigenvalues --    0.04173   0.04996   0.10265   0.11266   0.15521
 Alpha virt. eigenvalues --    0.16519   0.18875   0.22262   0.25379   0.25660
 Alpha virt. eigenvalues --    0.27872   0.29050   0.30326   0.31397   0.33132

 Mulliken charges:
               1
     1  C   -0.169804
     2  C   -0.223822
     3  C   -0.169763
     4  C    0.159999
     5  C   -0.168662
     6  C   -0.217541
     7  H    0.229697
     8  H    0.220236
     9  H    0.269233
    10  H    0.278958
    11  H    0.228094
    12  N    0.488906
    13  O   -0.455306
    14  O   -0.465929
    15  C   -0.174805
    16  C   -0.218019
    17  C   -0.170921
    18  C    0.158534
    19  C   -0.173420
    20  C   -0.214620
    21  H    0.232358
    22  H    0.227687
    23  H    0.276350
    24  H    0.271918
    25  H    0.214272
    26  N    0.488209
    27  O   -0.462460
    28  O   -0.459379
 Sum of Mulliken charges =  -0.00000

 Dipole moment (field-independent basis, Debye):
    X=              3.0996    Y=              2.3776    Z=              2.9841  Tot=              4.9158
 Quadrupole moment (field-independent basis, Debye-Ang):
   XX=           -137.2710   YY=           -100.2526   ZZ=           -102.0706
   XY=             27.2112   XZ=             -5.1724   YZ=             -0.9482

 Normal termination of Gaussian 16 at Wed May  5 16:25:12 2021.
