 Gaussian 16, Revision A.03,
 Gaussian 16:  EM64L-G16RevA.03 25-Dec-2016

 -------------
 #p 6-31g* mp2
 -------------

 ------------------------------------------------------
 Input file generated by CHIRIPA (05-May-2021 14:55:18)
 ------------------------------------------------------
 Symbolic Z-matrix:
 Charge =  0 Multiplicity = 1

                         Standard orientation:
 ---------------------------------------------------------------------
 Center     Atomic      Atomic             Coordinates (Angstroms)
 Number     Number       Type             X           Y           Z
 ---------------------------------------------------------------------
      1          6           0        1.752720    1.556200   -0.905429
      2          6           0        1.464363    0.220149   -0.608210
      3          6           0        2.484874   -0.661417   -0.239503
      4          6           0        3.788329   -0.171011   -0.177882
      5          6           0        4.107453    1.154598   -0.468071
      6          6           0        3.071020    2.018346   -0.834535
      7          1           0        0.953778    2.234101   -1.190978
      8          1           0        0.441478   -0.141530   -0.662434
      9          1           0        2.289720   -1.700624   -0.004168
     10          1           0        5.136861    1.485941   -0.405236
     11          1           0        3.297906    3.055429   -1.064810
     12          7           0        4.877126   -1.094854    0.211264
     13          8           0        6.017244   -0.638156    0.258137
     14          8           0        4.569792   -2.258167    0.462035
     15          6           0       -5.319183    0.134044    0.024155
     16          6           0       -5.961698   -1.144158   -0.515620
     17          6           0       -7.361439   -0.907835   -1.083660
     18          1           0       -5.965409    0.560875    0.803355
     19          1           0       -5.267803    0.878960   -0.781981
     20          1           0       -6.010588   -1.886922    0.290933
     21          1           0       -5.313773   -1.568099   -1.293492
     22          1           0       -7.326603   -0.186147   -1.906190
     23          1           0       -8.027377   -0.506781   -0.312762
     24          1           0       -7.802119   -1.834672   -1.463968
     25          6           0       -3.919556   -0.086042    0.595411
     26          6           0       -3.277041    1.192161    1.135188
     27          6           0       -1.877300    0.955837    1.703227
     28          1           0       -3.970936   -0.830958    1.401548
     29          1           0       -3.273330   -0.512873   -0.183788
     30          1           0       -3.924966    1.616102    1.913059
     31          1           0       -3.228150    1.934924    0.328634
     32          1           0       -1.211362    0.554783    0.932330
     33          1           0       -1.912135    0.234149    2.525756
     34          1           0       -1.436620    1.882674    2.083535
 ---------------------------------------------------------------------

 SCF Done:  E(RHF) =  -669.535249690     A.U. after   15 cycles
 E2 =    -0.2091128746D+01 EUMP2 =    -0.67162637843547D+03

 The electronic state is 1-A.
 Alpha  occ. eigenvalues --  -20.60748 -20.60743 -15.85802 -11.31172 -11.27748
 Alpha  occ. eigenvalues --  -11.27742 -11.27493 -11.26760 -11.26749 -11.22366
 Alpha  occ. eigenvalues --  -11.22100 -11.22081 -11.21942 -11.21922 -11.21472
 Alpha  occ. eigenvalues --   -1.59824  -1.39377  -1.19349  -1.09073  -1.08743
 Alpha  occ. eigenvalues --   -1.04757  -1.04162  -0.96615  -0.95575  -0.87632
 Alpha  occ. eigenvalues --   -0.86154  -0.82409  -0.80227  -0.78872  -0.77457
 Alpha  occ. eigenvalues --   -0.72021  -0.71147  -0.70454  -0.65726  -0.65002
 Alpha  occ. eigenvalues --   -0.64784  -0.62156  -0.61526  -0.59982  -0.58215
 Alpha  occ. eigenvalues --   -0.55928  -0.55251  -0.53310  -0.53156  -0.53025
 Alpha  occ. eigenvalues --   -0.52774  -0.50545  -0.48787  -0.48775  -0.48526
 Alpha  occ. eigenvalues --   -0.47263  -0.46414  -0.46332  -0.44782  -0.44409
 Alpha  occ. eigenvalues --   -0.37319  -0.36345
 Alpha virt. eigenvalues --    0.05085   0.11193   0.16554   0.19856   0.22567
 Alpha virt. eigenvalues --    0.23806   0.25333   0.26479   0.27150   0.28092
 Alpha virt. eigenvalues --    0.28788   0.30064   0.31105   0.31442   0.31831

 Mulliken charges:
               1
     1  C   -0.170741
     2  C   -0.217738
     3  C   -0.171648
     4  C    0.158481
     5  C   -0.170755
     6  C   -0.218750
     7  H    0.225783
     8  H    0.224778
     9  H    0.275850
    10  H    0.275609
    11  H    0.223366
    12  N    0.488084
    13  O   -0.460503
    14  O   -0.460367
    15  C   -0.298506
    16  C   -0.300043
    17  C   -0.476026
    18  H    0.151563
    19  H    0.149010
    20  H    0.153310
    21  H    0.151422
    22  H    0.155191
    23  H    0.156112
    24  H    0.161817
    25  C   -0.297608
    26  C   -0.300305
    27  C   -0.477748
    28  H    0.152385
    29  H    0.144009
    30  H    0.155722
    31  H    0.148987
    32  H    0.146280
    33  H    0.160319
    34  H    0.162660
 Sum of Mulliken charges =  -0.00000

 Dipole moment (field-independent basis, Debye):
    X=             -3.9680    Y=              3.2648    Z=             -1.3068  Tot=              5.3020
 Quadrupole moment (field-independent basis, Debye-Ang):
   XX=           -122.1797   YY=            -93.3445   ZZ=            -94.2648
   XY=             16.0874   XZ=             -5.9221   YZ=             -0.9270

 Normal termination of Gaussian 16 at Wed May  5 18:50:34 2021.
