 Gaussian 16, Revision A.03,
 Gaussian 16:  EM64L-G16RevA.03 25-Dec-2016

 -------------
 #p 6-31g* mp2
 -------------

 ------------------------------------------------------
 Input file generated by CHIRIPA (05-May-2021 14:55:24)
 ------------------------------------------------------
 Symbolic Z-matrix:
 Charge =  0 Multiplicity = 1

                         Standard orientation:
 ---------------------------------------------------------------------
 Center     Atomic      Atomic             Coordinates (Angstroms)
 Number     Number       Type             X           Y           Z
 ---------------------------------------------------------------------
      1          6           0        0.556972   -1.546294    0.187907
      2          6           0        1.264178   -1.546863   -1.018898
      3          6           0        2.505598   -0.911051   -1.114651
      4          6           0        3.012373   -0.281574    0.021231
      5          6           0        2.331823   -0.263660    1.237711
      6          6           0        1.092109   -0.905824    1.310381
      7          1           0       -0.406730   -2.042675    0.253325
      8          1           0        0.851026   -2.043462   -1.892248
      9          1           0        3.074321   -0.896185   -2.036470
     10          1           0        2.769398    0.239794    2.091221
     11          1           0        0.545108   -0.903778    2.248908
     12          7           0        4.325706    0.394893   -0.067920
     13          8           0        4.750457    0.942355    0.947220
     14          8           0        4.905476    0.364838   -1.151248
     15          6           0       -3.112395    1.057246    0.196640
     16          6           0       -3.333661    2.391573   -0.516520
     17          6           0       -2.393183    3.490203   -0.020228
     18          1           0       -3.249981    1.199116    1.277329
     19          1           0       -2.069846    0.741198    0.053109
     20          1           0       -4.375851    2.704328   -0.372849
     21          1           0       -3.195721    2.246469   -1.595655
     22          1           0       -1.348493    3.203512   -0.178442
     23          1           0       -2.535329    3.663972    1.051313
     24          1           0       -2.568563    4.435399   -0.543399
     25          6           0       -4.045159   -0.051002   -0.288607
     26          6           0       -3.823892   -1.385329    0.424553
     27          6           0       -4.764371   -2.483959   -0.071738
     28          1           0       -5.087708    0.265047   -0.145075
     29          1           0       -3.907573   -0.192871   -1.369295
     30          1           0       -3.961834   -1.240224    1.503689
     31          1           0       -2.781703   -1.698083    0.280882
     32          1           0       -4.622225   -2.657727   -1.143280
     33          1           0       -5.809061   -2.197267    0.086475
     34          1           0       -4.588991   -3.429154    0.451432
 ---------------------------------------------------------------------

 SCF Done:  E(RHF) =  -669.535667377     A.U. after   15 cycles
 E2 =    -0.2091714685D+01 EUMP2 =    -0.67162738206203D+03

 The electronic state is 1-A.
 Alpha  occ. eigenvalues --  -20.60781 -20.60776 -15.85835 -11.31216 -11.27779
 Alpha  occ. eigenvalues --  -11.27771 -11.27511 -11.26806 -11.26793 -11.22666
 Alpha  occ. eigenvalues --  -11.22161 -11.22081 -11.21998 -11.21946 -11.21409
 Alpha  occ. eigenvalues --   -1.59856  -1.39409  -1.19387  -1.09162  -1.08779
 Alpha  occ. eigenvalues --   -1.04788  -1.04224  -0.96637  -0.95613  -0.87656
 Alpha  occ. eigenvalues --   -0.86183  -0.82445  -0.80327  -0.78956  -0.77486
 Alpha  occ. eigenvalues --   -0.72052  -0.71180  -0.70512  -0.65795  -0.65037
 Alpha  occ. eigenvalues --   -0.64784  -0.62132  -0.61629  -0.60037  -0.58255
 Alpha  occ. eigenvalues --   -0.55917  -0.55314  -0.53339  -0.53136  -0.53035
 Alpha  occ. eigenvalues --   -0.52877  -0.50582  -0.48818  -0.48807  -0.48612
 Alpha  occ. eigenvalues --   -0.47369  -0.46484  -0.46393  -0.44811  -0.44470
 Alpha  occ. eigenvalues --   -0.37349  -0.36391
 Alpha virt. eigenvalues --    0.05011   0.11247   0.16385   0.19746   0.22648
 Alpha virt. eigenvalues --    0.23684   0.25196   0.26318   0.27266   0.27466
 Alpha virt. eigenvalues --    0.28953   0.30313   0.31056   0.31239   0.32277

 Mulliken charges:
               1
     1  C   -0.175782
     2  C   -0.221103
     3  C   -0.170923
     4  C    0.158615
     5  C   -0.170980
     6  C   -0.220753
     7  H    0.235444
     8  H    0.223694
     9  H    0.275660
    10  H    0.275844
    11  H    0.224748
    12  N    0.487979
    13  O   -0.460213
    14  O   -0.460352
    15  C   -0.301924
    16  C   -0.299832
    17  C   -0.476589
    18  H    0.149001
    19  H    0.149889
    20  H    0.152953
    21  H    0.152673
    22  H    0.157546
    23  H    0.154987
    24  H    0.162521
    25  C   -0.297920
    26  C   -0.303789
    27  C   -0.475674
    28  H    0.153047
    29  H    0.150163
    30  H    0.154012
    31  H    0.141374
    32  H    0.155767
    33  H    0.159590
    34  H    0.160327
 Sum of Mulliken charges =  -0.00000

 Dipole moment (field-independent basis, Debye):
    X=             -4.7369    Y=             -2.3099    Z=              0.3056  Tot=              5.2789
 Quadrupole moment (field-independent basis, Debye-Ang):
   XX=           -122.6371   YY=            -94.3693   ZZ=            -89.6804
   XY=             -6.7948   XZ=             -0.1264   YZ=              1.2896

 Normal termination of Gaussian 16 at Thu May  6 14:19:15 2021.
