 Gaussian 16, Revision A.03,
 Gaussian 16:  EM64L-G16RevA.03 25-Dec-2016

 -------------
 #p 6-31g* mp2
 -------------

 ------------------------------------------------------
 Input file generated by CHIRIPA (05-May-2021 14:55:20)
 ------------------------------------------------------
 Symbolic Z-matrix:
 Charge =  0 Multiplicity = 1

                         Standard orientation:
 ---------------------------------------------------------------------
 Center     Atomic      Atomic             Coordinates (Angstroms)
 Number     Number       Type             X           Y           Z
 ---------------------------------------------------------------------
      1          6           0       -1.101368    1.588047    1.351013
      2          6           0       -1.066315    0.239359    1.720247
      3          6           0       -1.911151   -0.687937    1.103058
      4          6           0       -2.782545   -0.229877    0.116070
      5          6           0       -2.840994    1.107251   -0.273754
      6          6           0       -1.987035    2.016933    0.356944
      7          1           0       -0.441535    2.301551    1.835708
      8          1           0       -0.379514   -0.096563    2.491937
      9          1           0       -1.904773   -1.737872    1.369540
     10          1           0       -3.536370    1.412146   -1.046353
     11          1           0       -2.016433    3.063731    0.068163
     12          7           0       -3.681764   -1.202240   -0.544471
     13          8           0       -4.440397   -0.773388   -1.411189
     14          8           0       -3.610913   -2.374818   -0.182978
     15          6           0        2.761156    0.533139   -0.402783
     16          6           0        3.100519    2.021781   -0.485018
     17          6           0        1.868231    2.897194   -0.715041
     18          1           0        2.259551    0.226120   -1.330725
     19          1           0        2.039575    0.373067    0.410293
     20          1           0        3.822302    2.178807   -1.296799
     21          1           0        3.601548    2.325249    0.443149
     22          1           0        1.147819    2.769963    0.099464
     23          1           0        1.369827    2.622688   -1.650371
     24          1           0        2.133726    3.957518   -0.770599
     25          6           0        3.982760   -0.354912   -0.173050
     26          6           0        3.643396   -1.843554   -0.090815
     27          6           0        4.875685   -2.718967    0.139209
     28          1           0        4.704341   -0.194840   -0.986126
     29          1           0        4.484366   -0.047893    0.754891
     30          1           0        3.142368   -2.147022   -1.018983
     31          1           0        2.921615   -2.000580    0.720966
     32          1           0        5.374089   -2.444462    1.074538
     33          1           0        5.596098   -2.591736   -0.675297
     34          1           0        4.610190   -3.779291    0.194767
 ---------------------------------------------------------------------

 SCF Done:  E(RHF) =  -669.534655793     A.U. after   15 cycles
 E2 =    -0.2092924210D+01 EUMP2 =    -0.67162758000295D+03

 The electronic state is 1-A.
 Alpha  occ. eigenvalues --  -20.60782 -20.60777 -15.85836 -11.31214 -11.27798
 Alpha  occ. eigenvalues --  -11.27783 -11.27542 -11.26823 -11.26787 -11.22195
 Alpha  occ. eigenvalues --  -11.21971 -11.21866 -11.21785 -11.21765 -11.21365
 Alpha  occ. eigenvalues --   -1.59857  -1.39410  -1.19398  -1.08918  -1.08786
 Alpha  occ. eigenvalues --   -1.04799  -1.04019  -0.96478  -0.95627  -0.87498
 Alpha  occ. eigenvalues --   -0.86197  -0.82458  -0.80087  -0.78700  -0.77490
 Alpha  occ. eigenvalues --   -0.72055  -0.71180  -0.70554  -0.65556  -0.65055
 Alpha  occ. eigenvalues --   -0.64795  -0.62145  -0.61435  -0.59840  -0.58081
 Alpha  occ. eigenvalues --   -0.55908  -0.55219  -0.53217  -0.53167  -0.52895
 Alpha  occ. eigenvalues --   -0.52811  -0.50416  -0.48814  -0.48808  -0.48387
 Alpha  occ. eigenvalues --   -0.47120  -0.46241  -0.46172  -0.44813  -0.44262
 Alpha  occ. eigenvalues --   -0.37294  -0.36386
 Alpha virt. eigenvalues --    0.05004   0.11121   0.16389   0.20336   0.22742
 Alpha virt. eigenvalues --    0.23937   0.25838   0.26428   0.26847   0.28176
 Alpha virt. eigenvalues --    0.28678   0.30429   0.31154   0.31612   0.32061

 Mulliken charges:
               1
     1  C   -0.169221
     2  C   -0.218883
     3  C   -0.170902
     4  C    0.158587
     5  C   -0.171172
     6  C   -0.216017
     7  H    0.225759
     8  H    0.223282
     9  H    0.275874
    10  H    0.275823
    11  H    0.224736
    12  N    0.488069
    13  O   -0.460377
    14  O   -0.460335
    15  C   -0.298978
    16  C   -0.300168
    17  C   -0.477218
    18  H    0.153402
    19  H    0.145532
    20  H    0.154868
    21  H    0.149893
    22  H    0.147091
    23  H    0.159033
    24  H    0.159793
    25  C   -0.298848
    26  C   -0.298917
    27  C   -0.476030
    28  H    0.151306
    29  H    0.148080
    30  H    0.155069
    31  H    0.147978
    32  H    0.154414
    33  H    0.156453
    34  H    0.162024
 Sum of Mulliken charges =  -0.00000

 Dipole moment (field-independent basis, Debye):
    X=              3.1698    Y=              3.3722    Z=              2.2475  Tot=              5.1450
 Quadrupole moment (field-independent basis, Debye-Ang):
   XX=           -112.8313   YY=            -94.6238   ZZ=            -92.0952
   XY=            -11.5837   XZ=             -5.3907   YZ=             -2.3248

 Normal termination of Gaussian 16 at Thu May  6 01:21:34 2021.
