 Gaussian 16, Revision A.03,
 Gaussian 16:  EM64L-G16RevA.03 25-Dec-2016

 -------------
 #p 6-31g* mp2
 -------------

 ------------------------------------------------------
 Input file generated by CHIRIPA (05-May-2021 14:53:15)
 ------------------------------------------------------
 Symbolic Z-matrix:
 Charge =  0 Multiplicity = 1

                         Standard orientation:
 ---------------------------------------------------------------------
 Center     Atomic      Atomic             Coordinates (Angstroms)
 Number     Number       Type             X           Y           Z
 ---------------------------------------------------------------------
      1          6           0       -2.928951   -0.861254    0.319753
      2          6           0       -2.228351   -1.848089   -0.614752
      3          6           0       -1.438288   -2.917741    0.139861
      4          1           0       -2.179549   -0.380072    0.963030
      5          1           0       -3.604214   -1.414909    0.986747
      6          1           0       -1.555645   -1.292591   -1.280713
      7          1           0       -2.979486   -2.326837   -1.256010
      8          1           0       -2.099971   -3.497259    0.791731
      9          1           0       -0.668040   -2.457136    0.766887
     10          1           0       -0.945544   -3.612514   -0.547419
     11          6           0       -3.722902    0.214109   -0.419817
     12          6           0       -4.423503    1.200944    0.514688
     13          6           0       -5.213566    2.270596   -0.239925
     14          1           0       -3.047639    0.767764   -1.086811
     15          1           0       -4.472305   -0.267073   -1.063094
     16          1           0       -3.672367    1.679692    1.155946
     17          1           0       -5.096209    0.645446    1.180649
     18          1           0       -5.983814    1.809991   -0.866951
     19          1           0       -4.551882    2.850113   -0.891795
     20          1           0       -5.706309    2.965369    0.447355
     21          6           0        2.906804    2.755642   -0.041741
     22          6           0        3.044416    1.995371   -1.207748
     23          6           0        2.875734    0.607926   -1.174739
     24          6           0        2.568563    0.010825    0.046902
     25          6           0        2.424950    0.740997    1.225678
     26          6           0        2.598055    2.127137    1.169116
     27          1           0        3.039558    3.832936   -0.076533
     28          1           0        3.284154    2.480786   -2.149525
     29          1           0        2.976528   -0.004743   -2.062374
     30          1           0        2.185535    0.228757    2.149642
     31          1           0        2.490581    2.715047    2.076230
     32          7           0        2.387646   -1.457311    0.094315
     33          8           0        2.117392   -1.959419    1.183116
     34          8           0        2.519523   -2.078127   -0.958221
 ---------------------------------------------------------------------

 SCF Done:  E(RHF) =  -669.536125024     A.U. after   15 cycles
 E2 =    -0.2091469745D+01 EUMP2 =    -0.67162759476906D+03

 The electronic state is 1-A.
 Alpha  occ. eigenvalues --  -20.60947 -20.60937 -15.85964 -11.31304 -11.27867
 Alpha  occ. eigenvalues --  -11.27863 -11.27604 -11.26876 -11.26866 -11.21471
 Alpha  occ. eigenvalues --  -11.21124 -11.21020 -11.20951 -11.20881 -11.19857
 Alpha  occ. eigenvalues --   -1.59996  -1.39554  -1.19472  -1.08873  -1.08047
 Alpha  occ. eigenvalues --   -1.04870  -1.03051  -0.95714  -0.95468  -0.86480
 Alpha  occ. eigenvalues --   -0.86269  -0.82545  -0.79142  -0.77830  -0.77598
 Alpha  occ. eigenvalues --   -0.72187  -0.71318  -0.70579  -0.65126  -0.64871
 Alpha  occ. eigenvalues --   -0.64690  -0.62216  -0.60455  -0.58897  -0.57071
 Alpha  occ. eigenvalues --   -0.55373  -0.54764  -0.53201  -0.52960  -0.52126
 Alpha  occ. eigenvalues --   -0.51892  -0.49463  -0.48950  -0.48909  -0.47442
 Alpha  occ. eigenvalues --   -0.46229  -0.45408  -0.45330  -0.44792  -0.43303
 Alpha  occ. eigenvalues --   -0.37450  -0.36472
 Alpha virt. eigenvalues --    0.04902   0.11177   0.16371   0.21313   0.23158
 Alpha virt. eigenvalues --    0.24773   0.26951   0.27240   0.27820   0.28161
 Alpha virt. eigenvalues --    0.28673   0.30849   0.31910   0.32082   0.32428

 Mulliken charges:
               1
     1  C   -0.296944
     2  C   -0.300269
     3  C   -0.481658
     4  H    0.146561
     5  H    0.149344
     6  H    0.148399
     7  H    0.149343
     8  H    0.149860
     9  H    0.168378
    10  H    0.167186
    11  C   -0.297427
    12  C   -0.298839
    13  C   -0.475251
    14  H    0.147092
    15  H    0.149678
    16  H    0.149328
    17  H    0.152369
    18  H    0.155677
    19  H    0.153333
    20  H    0.158941
    21  C   -0.170654
    22  C   -0.218563
    23  C   -0.171002
    24  C    0.158450
    25  C   -0.171371
    26  C   -0.218539
    27  H    0.226086
    28  H    0.223918
    29  H    0.275934
    30  H    0.275826
    31  H    0.223931
    32  N    0.488177
    33  O   -0.458945
    34  O   -0.458349
 Sum of Mulliken charges =  -0.00000

 Dipole moment (field-independent basis, Debye):
    X=              0.8500    Y=              5.1001    Z=             -0.1587  Tot=              5.1729
 Quadrupole moment (field-independent basis, Debye-Ang):
   XX=            -92.2592   YY=            -95.3924   ZZ=            -90.1631
   XY=             14.4798   XZ=             -1.7844   YZ=              0.8732

 Normal termination of Gaussian 16 at Thu May  6 04:14:55 2021.
