 Gaussian 16, Revision A.03,
 Gaussian 16:  EM64L-G16RevA.03 25-Dec-2016

 -------------
 #p 6-31g* mp2
 -------------

 ------------------------------------------------------
 Input file generated by CHIRIPA (05-May-2021 14:53:16)
 ------------------------------------------------------
 Symbolic Z-matrix:
 Charge =  0 Multiplicity = 1

                         Standard orientation:
 ---------------------------------------------------------------------
 Center     Atomic      Atomic             Coordinates (Angstroms)
 Number     Number       Type             X           Y           Z
 ---------------------------------------------------------------------
      1          6           0       -3.768672    0.068436   -0.308671
      2          6           0       -3.611329   -1.452475   -0.316384
      3          6           0       -4.900188   -2.178161   -0.703705
      4          1           0       -4.570523    0.344197    0.389853
      5          1           0       -4.093133    0.401565   -1.304234
      6          1           0       -3.285925   -1.782495    0.678510
      7          1           0       -2.809630   -1.724634   -1.014828
      8          1           0       -5.225668   -1.877437   -1.704819
      9          1           0       -5.704669   -1.935627   -0.001859
     10          1           0       -4.765180   -3.264270   -0.702843
     11          6           0       -2.488678    0.807955    0.076629
     12          6           0       -2.646021    2.328865    0.084342
     13          6           0       -1.357162    3.054551    0.471663
     14          1           0       -2.164217    0.474825    1.072192
     15          1           0       -1.686827    0.532194   -0.621895
     16          1           0       -3.447720    2.601024    0.782786
     17          1           0       -2.971425    2.658886   -0.910552
     18          1           0       -0.552681    2.812018   -0.230183
     19          1           0       -1.031682    2.753828    1.472777
     20          1           0       -1.492170    4.140660    0.470801
     21          6           0        3.662802    0.100181   -2.073913
     22          6           0        4.377775    0.000719   -0.875813
     23          6           0        3.713043   -0.244244    0.329456
     24          6           0        2.326475   -0.385121    0.299903
     25          6           0        1.586097   -0.291327   -0.877524
     26          6           0        2.271698   -0.045902   -2.070950
     27          1           0        4.187288    0.290654   -3.005595
     28          1           0        5.458178    0.113738   -0.875108
     29          1           0        4.241813   -0.325923    1.271341
     30          1           0        0.509658   -0.408541   -0.846548
     31          1           0        1.713848    0.030851   -2.999905
     32          7           0        1.611706   -0.644698    1.569598
     33          8           0        0.389665   -0.764969    1.516816
     34          8           0        2.287046   -0.722967    2.593525
 ---------------------------------------------------------------------

 SCF Done:  E(RHF) =  -669.535435050     A.U. after   15 cycles
 E2 =    -0.2092748548D+01 EUMP2 =    -0.67162818359783D+03

 The electronic state is 1-A.
 Alpha  occ. eigenvalues --  -20.60828 -20.60823 -15.85869 -11.31210 -11.27781
 Alpha  occ. eigenvalues --  -11.27754 -11.27524 -11.26797 -11.26787 -11.21211
 Alpha  occ. eigenvalues --  -11.21146 -11.20952 -11.20789 -11.20726 -11.20713
 Alpha  occ. eigenvalues --   -1.59897  -1.39451  -1.19383  -1.08785  -1.07980
 Alpha  occ. eigenvalues --   -1.04785  -1.03126  -0.95642  -0.95561  -0.86596
 Alpha  occ. eigenvalues --   -0.86184  -0.82463  -0.79184  -0.77917  -0.77359
 Alpha  occ. eigenvalues --   -0.72092  -0.71211  -0.70501  -0.65044  -0.64848
 Alpha  occ. eigenvalues --   -0.64573  -0.62139  -0.60530  -0.58939  -0.57177
 Alpha  occ. eigenvalues --   -0.55299  -0.54868  -0.53113  -0.52896  -0.52289
 Alpha  occ. eigenvalues --   -0.51987  -0.49525  -0.48864  -0.48855  -0.47499
 Alpha  occ. eigenvalues --   -0.46217  -0.45388  -0.45248  -0.44691  -0.43363
 Alpha  occ. eigenvalues --   -0.37362  -0.36381
 Alpha virt. eigenvalues --    0.04997   0.11220   0.16486   0.20557   0.23237
 Alpha virt. eigenvalues --    0.24617   0.25130   0.27567   0.27768   0.28229
 Alpha virt. eigenvalues --    0.29616   0.31306   0.31632   0.32085   0.32264

 Mulliken charges:
               1
     1  C   -0.298453
     2  C   -0.298586
     3  C   -0.475546
     4  H    0.150106
     5  H    0.144176
     6  H    0.162354
     7  H    0.144574
     8  H    0.152060
     9  H    0.155514
    10  H    0.159727
    11  C   -0.301826
    12  C   -0.299457
    13  C   -0.475610
    14  H    0.175747
    15  H    0.135015
    16  H    0.152650
    17  H    0.146696
    18  H    0.148122
    19  H    0.163179
    20  H    0.157767
    21  C   -0.170362
    22  C   -0.218826
    23  C   -0.170021
    24  C    0.155915
    25  C   -0.176094
    26  C   -0.221810
    27  H    0.225721
    28  H    0.223551
    29  H    0.275637
    30  H    0.287687
    31  H    0.223544
    32  N    0.490023
    33  O   -0.462993
    34  O   -0.460181
 Sum of Mulliken charges =  -0.00000

 Dipole moment (field-independent basis, Debye):
    X=              2.5813    Y=              0.8409    Z=             -4.2179  Tot=              5.0161
 Quadrupole moment (field-independent basis, Debye-Ang):
   XX=            -80.2351   YY=            -97.1614   ZZ=            -95.7761
   XY=              0.8415   XZ=             -8.5524   YZ=              1.9217

 Normal termination of Gaussian 16 at Thu May  6 18:55:23 2021.
