 Gaussian 16, Revision A.03,
 Gaussian 16:  EM64L-G16RevA.03 25-Dec-2016

 -------------
 #p 6-31g* mp2
 -------------

 ------------------------------------------------------
 Input file generated by CHIRIPA (05-May-2021 14:51:13)
 ------------------------------------------------------
 Symbolic Z-matrix:
 Charge =  0 Multiplicity = 1

                         Standard orientation:
 ---------------------------------------------------------------------
 Center     Atomic      Atomic             Coordinates (Angstroms)
 Number     Number       Type             X           Y           Z
 ---------------------------------------------------------------------
      1          6           0       -2.865614    1.002278   -0.094083
      2          6           0       -2.074082    2.063850    0.670462
      3          6           0       -2.659184    3.467289    0.509811
      4          1           0       -2.892297    1.270250   -1.159176
      5          1           0       -3.907148    1.008605    0.256006
      6          1           0       -1.034027    2.054577    0.320011
      7          1           0       -2.049117    1.793219    1.733830
      8          1           0       -3.689951    3.499327    0.877363
      9          1           0       -2.669093    3.762170   -0.544489
     10          1           0       -2.077951    4.210483    1.064510
     11          6           0       -2.292958   -0.405927    0.056751
     12          6           0       -3.084490   -1.467498   -0.707793
     13          6           0       -2.499388   -2.870937   -0.547142
     14          1           0       -1.251424   -0.412253   -0.293338
     15          1           0       -2.266275   -0.673899    1.121845
     16          1           0       -3.109454   -1.196868   -1.771161
     17          1           0       -4.124545   -1.458226   -0.357342
     18          1           0       -2.489479   -3.165819    0.507158
     19          1           0       -1.468621   -2.902976   -0.914694
     20          1           0       -3.080621   -3.614131   -1.101841
     21          6           0        3.064315    0.282217    0.125075
     22          6           0        2.733916    1.511624   -0.721907
     23          6           0        3.713177    2.664312   -0.497960
     24          1           0        3.063258    0.565126    1.186634
     25          1           0        4.084781   -0.051768   -0.108378
     26          1           0        1.713875    1.842361   -0.487931
     27          1           0        2.735573    1.225711   -1.781561
     28          1           0        4.733454    2.357496   -0.749957
     29          1           0        3.705951    2.977650    0.551024
     30          1           0        3.458356    3.532855   -1.113234
     31          6           0        2.094256   -0.878568   -0.087745
     32          6           0        2.424655   -2.107975    0.759238
     33          6           0        1.445395   -3.260664    0.535292
     34          1           0        1.073791   -0.544583    0.145709
     35          1           0        2.095314   -1.161477   -1.149303
     36          1           0        2.423000   -1.822063    1.818892
     37          1           0        3.444697   -2.438713    0.525262
     38          1           0        1.452621   -3.574001   -0.513692
     39          1           0        0.425118   -2.953849    0.787288
     40          1           0        1.700216   -4.129206    1.150565
 ---------------------------------------------------------------------

 SCF Done:  E(RHF) =  -470.732731075     A.U. after   11 cycles
 E2 =    -0.1584678708D+01 EUMP2 =    -0.47231740978266D+03

 The electronic state is 1-A.
 Alpha  occ. eigenvalues --  -11.21659 -11.21638 -11.21593 -11.21572 -11.21426
 Alpha  occ. eigenvalues --  -11.21402 -11.21362 -11.21337 -11.21106 -11.21090
 Alpha  occ. eigenvalues --  -11.21008 -11.20986  -1.08479  -1.08411  -1.03570
 Alpha  occ. eigenvalues --   -1.03501  -0.96034  -0.95930  -0.87074  -0.86923
 Alpha  occ. eigenvalues --   -0.79717  -0.79497  -0.78456  -0.78085  -0.65220
 Alpha  occ. eigenvalues --   -0.64935  -0.61015  -0.60862  -0.59419  -0.59280
 Alpha  occ. eigenvalues --   -0.57797  -0.57440  -0.55349  -0.55187  -0.52705
 Alpha  occ. eigenvalues --   -0.52672  -0.52643  -0.52140  -0.50002  -0.49810
 Alpha  occ. eigenvalues --   -0.48246  -0.47670  -0.46762  -0.46518  -0.46443
 Alpha  occ. eigenvalues --   -0.45768  -0.45747  -0.44937  -0.43800  -0.43773
 Alpha virt. eigenvalues --    0.20306   0.22276   0.23491   0.24521   0.25280
 Alpha virt. eigenvalues --    0.26508   0.26517   0.27185   0.28903   0.29658
 Alpha virt. eigenvalues --    0.30481   0.31355   0.31526   0.31746   0.32164

 Mulliken charges:
               1
     1  C   -0.297283
     2  C   -0.304310
     3  C   -0.475526
     4  H    0.149880
     5  H    0.149810
     6  H    0.154802
     7  H    0.151830
     8  H    0.155469
     9  H    0.155453
    10  H    0.160317
    11  C   -0.308057
    12  C   -0.298782
    13  C   -0.479988
    14  H    0.158779
    15  H    0.148499
    16  H    0.151831
    17  H    0.151716
    18  H    0.154662
    19  H    0.161126
    20  H    0.160053
    21  C   -0.297076
    22  C   -0.303851
    23  C   -0.475536
    24  H    0.149833
    25  H    0.149687
    26  H    0.154619
    27  H    0.151819
    28  H    0.155387
    29  H    0.155404
    30  H    0.160258
    31  C   -0.307966
    32  C   -0.298858
    33  C   -0.480973
    34  H    0.158622
    35  H    0.148423
    36  H    0.151746
    37  H    0.151622
    38  H    0.154171
    39  H    0.162452
    40  H    0.159936
 Sum of Mulliken charges =  -0.00000

 Dipole moment (field-independent basis, Debye):
    X=             -0.0137    Y=             -0.0039    Z=             -0.0017  Tot=              0.0144
 Quadrupole moment (field-independent basis, Debye-Ang):
   XX=            -84.6462   YY=            -86.6250   ZZ=            -83.5197
   XY=             -0.3502   XZ=             -0.9450   YZ=              0.1205

 Normal termination of Gaussian 16 at Wed May  5 19:57:11 2021.
