 Gaussian 16, Revision A.03,
 Gaussian 16:  EM64L-G16RevA.03 25-Dec-2016

 -------------
 #p 6-31g* mp2
 -------------

 ------------------------------------------------------
 Input file generated by CHIRIPA (05-May-2021 14:55:23)
 ------------------------------------------------------
 Symbolic Z-matrix:
 Charge =  0 Multiplicity = 1

                         Standard orientation:
 ---------------------------------------------------------------------
 Center     Atomic      Atomic             Coordinates (Angstroms)
 Number     Number       Type             X           Y           Z
 ---------------------------------------------------------------------
      1          6           0        5.367577   -1.327245    0.265079
      2          6           0        4.276007   -1.995129   -0.299656
      3          6           0        3.060109   -1.332398   -0.491820
      4          6           0        2.970519    0.004176   -0.106029
      5          6           0        4.040042    0.696933    0.459214
      6          6           0        5.246325    0.014290    0.642047
      7          1           0        6.308382   -1.849804    0.410733
      8          1           0        4.367286   -3.036980   -0.593358
      9          1           0        2.199137   -1.825339   -0.926739
     10          1           0        3.918627    1.735530    0.742042
     11          1           0        6.092385    0.535505    1.080866
     12          7           0        1.688392    0.716320   -0.304526
     13          8           0        1.635149    1.893818    0.043757
     14          8           0        0.760982    0.083515   -0.804631
     15          6           0       -3.467888    0.550171    0.324774
     16          6           0       -3.349128    1.909218   -0.365785
     17          6           0       -2.134187    2.708243    0.106731
     18          1           0       -3.527048    0.701992    1.411235
     19          1           0       -2.552493   -0.028709    0.139447
     20          1           0       -4.265049    2.484825   -0.180365
     21          1           0       -3.290436    1.754154   -1.450741
     22          1           0       -1.209393    2.157381   -0.093042
     23          1           0       -2.189544    2.892203    1.184550
     24          1           0       -2.068610    3.676263   -0.399727
     25          6           0       -4.677595   -0.260394   -0.137090
     26          6           0       -4.796356   -1.619441    0.553470
     27          6           0       -6.011297   -2.418466    0.080954
     28          1           0       -5.592990    0.318486    0.048237
     29          1           0       -4.618436   -0.412215   -1.223550
     30          1           0       -4.855047   -1.464378    1.638425
     31          1           0       -3.880434   -2.195047    0.368051
     32          1           0       -5.955940   -2.602426   -0.996865
     33          1           0       -6.936090   -1.867604    0.280727
     34          1           0       -6.076873   -3.386485    0.587412
 ---------------------------------------------------------------------

 SCF Done:  E(RHF) =  -669.537211924     A.U. after   15 cycles
 E2 =    -0.2091980805D+01 EUMP2 =    -0.67162919272818D+03

 The electronic state is 1-A.
 Alpha  occ. eigenvalues --  -20.61206 -20.61200 -15.86178 -11.31428 -11.27972
 Alpha  occ. eigenvalues --  -11.27966 -11.27694 -11.26958 -11.26948 -11.20783
 Alpha  occ. eigenvalues --  -11.20428 -11.20325 -11.20008 -11.19930 -11.18892
 Alpha  occ. eigenvalues --   -1.60225  -1.39782  -1.19580  -1.09001  -1.07207
 Alpha  occ. eigenvalues --   -1.04961  -1.02238  -0.95854  -0.94665  -0.86366
 Alpha  occ. eigenvalues --   -0.85680  -0.82690  -0.78375  -0.77758  -0.76942
 Alpha  occ. eigenvalues --   -0.72376  -0.71517  -0.70688  -0.65234  -0.64965
 Alpha  occ. eigenvalues --   -0.63842  -0.62308  -0.59635  -0.58150  -0.56279
 Alpha  occ. eigenvalues --   -0.55475  -0.53949  -0.53297  -0.53051  -0.51387
 Alpha  occ. eigenvalues --   -0.51119  -0.49350  -0.49152  -0.48407  -0.46616
 Alpha  occ. eigenvalues --   -0.45387  -0.45211  -0.44501  -0.44269  -0.42501
 Alpha  occ. eigenvalues --   -0.37553  -0.36557
 Alpha virt. eigenvalues --    0.04766   0.11100   0.16280   0.21240   0.23994
 Alpha virt. eigenvalues --    0.25701   0.27170   0.27811   0.28151   0.28680
 Alpha virt. eigenvalues --    0.29430   0.30819   0.32353   0.32690   0.32831

 Mulliken charges:
               1
     1  C   -0.170252
     2  C   -0.218618
     3  C   -0.170569
     4  C    0.160160
     5  C   -0.170527
     6  C   -0.218628
     7  H    0.226502
     8  H    0.224294
     9  H    0.275909
    10  H    0.276370
    11  H    0.224351
    12  N    0.488489
    13  O   -0.456165
    14  O   -0.460478
    15  C   -0.301481
    16  C   -0.296636
    17  C   -0.488761
    18  H    0.144329
    19  H    0.161783
    20  H    0.143166
    21  H    0.149901
    22  H    0.189984
    23  H    0.144984
    24  H    0.151983
    25  C   -0.297150
    26  C   -0.298605
    27  C   -0.474902
    28  H    0.146098
    29  H    0.148474
    30  H    0.149855
    31  H    0.151258
    32  H    0.154091
    33  H    0.153947
    34  H    0.156846
 Sum of Mulliken charges =  -0.00000

 Dipole moment (field-independent basis, Debye):
    X=              5.1075    Y=             -2.5755    Z=              0.6421  Tot=              5.7561
 Quadrupole moment (field-independent basis, Debye-Ang):
   XX=            -69.4868   YY=            -92.4834   ZZ=            -94.5853
   XY=             -6.2326   XZ=              2.1843   YZ=              2.2875

 Normal termination of Gaussian 16 at Thu May  6 14:17:25 2021.
