 Gaussian 16, Revision A.03,
 Gaussian 16:  EM64L-G16RevA.03 25-Dec-2016

 -------------
 #p 6-31g* mp2
 -------------

 ------------------------------------------------------
 Input file generated by CHIRIPA (05-May-2021 14:53:18)
 ------------------------------------------------------
 Symbolic Z-matrix:
 Charge =  0 Multiplicity = 1

                         Standard orientation:
 ---------------------------------------------------------------------
 Center     Atomic      Atomic             Coordinates (Angstroms)
 Number     Number       Type             X           Y           Z
 ---------------------------------------------------------------------
      1          6           0        5.833941   -0.389410    0.185274
      2          6           0        6.772119    0.638907   -0.447476
      3          6           0        8.246005    0.348436   -0.162732
      4          1           0        6.001921   -0.410525    1.270761
      5          1           0        6.090703   -1.389630   -0.190264
      6          1           0        6.512765    1.637057   -0.071914
      7          1           0        6.601751    0.657713   -1.531560
      8          1           0        8.527154   -0.635142   -0.552772
      9          1           0        8.437662    0.349767    0.915168
     10          1           0        8.898934    1.095745   -0.624331
     11          6           0        4.357116   -0.112549   -0.090519
     12          6           0        3.418938   -1.140866    0.542232
     13          6           0        1.945052   -0.850395    0.257487
     14          1           0        4.100354    0.887671    0.285019
     15          1           0        4.189136   -0.091434   -1.176006
     16          1           0        3.589306   -1.159672    1.626315
     17          1           0        3.678292   -2.139016    0.166670
     18          1           0        1.753395   -0.851726   -0.820412
     19          1           0        1.663903    0.133183    0.647527
     20          1           0        1.292123   -1.597704    0.719086
     21          6           0       -1.764207    1.397995    0.050556
     22          6           0       -1.801964    0.011189   -0.127949
     23          6           0       -3.024471   -0.665213   -0.177998
     24          6           0       -4.195181    0.079881   -0.045480
     25          6           0       -4.190379    1.462357    0.133478
     26          6           0       -2.956433    2.117884    0.180470
     27          1           0       -0.810090    1.915333    0.088249
     28          1           0       -0.877651   -0.550462   -0.229127
     29          1           0       -3.082658   -1.738155   -0.315212
     30          1           0       -5.128479    1.995097    0.231333
     31          1           0       -2.930144    3.194968    0.319202
     32          7           0       -5.495450   -0.625146   -0.096847
     33          8           0       -6.512750    0.054199    0.022437
     34          8           0       -5.472680   -1.843741   -0.255420
 ---------------------------------------------------------------------

 SCF Done:  E(RHF) =  -669.535567055     A.U. after   15 cycles
 E2 =    -0.2091115557D+01 EUMP2 =    -0.67162668261220D+03

 The electronic state is 1-A.
 Alpha  occ. eigenvalues --  -20.60682 -20.60677 -15.85733 -11.31073 -11.27640
 Alpha  occ. eigenvalues --  -11.27613 -11.27359 -11.26660 -11.26550 -11.22565
 Alpha  occ. eigenvalues --  -11.22435 -11.22188 -11.22136 -11.21995 -11.21509
 Alpha  occ. eigenvalues --   -1.59758  -1.39312  -1.19235  -1.09184  -1.08635
 Alpha  occ. eigenvalues --   -1.04635  -1.04327  -0.96820  -0.95477  -0.87866
 Alpha  occ. eigenvalues --   -0.86021  -0.82309  -0.80421  -0.78954  -0.77356
 Alpha  occ. eigenvalues --   -0.71952  -0.71080  -0.70350  -0.65806  -0.64884
 Alpha  occ. eigenvalues --   -0.64641  -0.62000  -0.61721  -0.60192  -0.58389
 Alpha  occ. eigenvalues --   -0.56108  -0.55138  -0.53628  -0.53249  -0.52967
 Alpha  occ. eigenvalues --   -0.52584  -0.50753  -0.48746  -0.48709  -0.48676
 Alpha  occ. eigenvalues --   -0.47413  -0.46507  -0.46398  -0.44723  -0.44560
 Alpha  occ. eigenvalues --   -0.37217  -0.36234
 Alpha virt. eigenvalues --    0.05164   0.11398   0.16659   0.20296   0.22252
 Alpha virt. eigenvalues --    0.23724   0.25537   0.25733   0.26662   0.27435
 Alpha virt. eigenvalues --    0.28925   0.29669   0.30632   0.31551   0.32189

 Mulliken charges:
               1
     1  C   -0.299074
     2  C   -0.300083
     3  C   -0.476116
     4  H    0.150972
     5  H    0.151253
     6  H    0.151815
     7  H    0.152530
     8  H    0.156179
     9  H    0.155907
    10  H    0.161605
    11  C   -0.299229
    12  C   -0.299551
    13  C   -0.485396
    14  H    0.148360
    15  H    0.150512
    16  H    0.155744
    17  H    0.156163
    18  H    0.155507
    19  H    0.151971
    20  H    0.161385
    21  C   -0.175150
    22  C   -0.227465
    23  C   -0.173467
    24  C    0.159074
    25  C   -0.171664
    26  C   -0.218436
    27  H    0.225415
    28  H    0.241586
    29  H    0.275430
    30  H    0.275051
    31  H    0.222756
    32  N    0.487982
    33  O   -0.460853
    34  O   -0.460715
 Sum of Mulliken charges =  -0.00000

 Dipole moment (field-independent basis, Debye):
    X=              4.8938    Y=              2.4309    Z=              0.1941  Tot=              5.4677
 Quadrupole moment (field-independent basis, Debye-Ang):
   XX=           -132.9823   YY=            -90.3664   ZZ=            -94.8657
   XY=            -12.6029   XZ=             -1.4459   YZ=              1.0267

 Normal termination of Gaussian 16 at Thu May  6 15:38:48 2021.
