 Gaussian 16, Revision A.03,
 Gaussian 16:  EM64L-G16RevA.03 25-Dec-2016

 -------------
 #p 6-31g* mp2
 -------------

 ------------------------------------------------------
 Input file generated by CHIRIPA (05-May-2021 14:51:14)
 ------------------------------------------------------
 Symbolic Z-matrix:
 Charge =  0 Multiplicity = 1

                         Standard orientation:
 ---------------------------------------------------------------------
 Center     Atomic      Atomic             Coordinates (Angstroms)
 Number     Number       Type             X           Y           Z
 ---------------------------------------------------------------------
      1          6           0        3.786760    0.220959    0.276358
      2          6           0        4.700885    0.070113   -0.940032
      3          6           0        5.847844    1.081170   -0.946567
      4          1           0        3.378609    1.240747    0.296112
      5          1           0        4.383812    0.105462    1.191555
      6          1           0        4.102038    0.184484   -1.852676
      7          1           0        5.106756   -0.949493   -0.956998
      8          1           0        6.469585    0.964210   -0.053058
      9          1           0        5.459159    2.104631   -0.953824
     10          1           0        6.488834    0.955465   -1.824741
     11          6           0        2.635361   -0.782823    0.297084
     12          6           0        1.721236   -0.631977    1.513475
     13          6           0        0.574277   -1.643034    1.520010
     14          1           0        2.038309   -0.667327   -0.618112
     15          1           0        3.043512   -1.802612    0.277331
     16          1           0        1.315365    0.387629    1.530441
     17          1           0        2.320083   -0.746348    2.426118
     18          1           0        0.962962   -2.666495    1.527267
     19          1           0       -0.047464   -1.526075    0.626501
     20          1           0       -0.066713   -1.517329    2.398184
     21          6           0       -2.955219   -0.339612   -0.651280
     22          6           0       -3.704880   -1.617405   -0.272811
     23          6           0       -3.181578   -2.850266   -1.010374
     24          1           0       -3.036391   -0.181939   -1.735483
     25          1           0       -1.886289   -0.471870   -0.433820
     26          1           0       -4.772281   -1.482273   -0.489631
     27          1           0       -3.622076   -1.771951    0.810644
     28          1           0       -2.122540   -3.013019   -0.785543
     29          1           0       -3.279279   -2.721696   -2.093207
     30          1           0       -3.731552   -3.752414   -0.724858
     31          6           0       -3.466902    0.901476    0.077838
     32          6           0       -2.717241    2.179269   -0.300632
     33          6           0       -3.240543    3.412131    0.436932
     34          1           0       -4.535832    1.033735   -0.139622
     35          1           0       -3.385731    0.743803    1.162041
     36          1           0       -2.800045    2.333815   -1.384087
     37          1           0       -1.649840    2.044137   -0.083812
     38          1           0       -3.142842    3.283559    1.519764
     39          1           0       -4.299582    3.574883    0.212100
     40          1           0       -2.690569    4.314278    0.151415
 ---------------------------------------------------------------------

 SCF Done:  E(RHF) =  -470.733276189     A.U. after   11 cycles
 E2 =    -0.1583024805D+01 EUMP2 =    -0.47231630099426D+03

 The electronic state is 1-A.
 Alpha  occ. eigenvalues --  -11.21674 -11.21621 -11.21621 -11.21571 -11.21445
 Alpha  occ. eigenvalues --  -11.21394 -11.21383 -11.21332 -11.21149 -11.21085
 Alpha  occ. eigenvalues --  -11.21085 -11.21034  -1.08477  -1.08421  -1.03582
 Alpha  occ. eigenvalues --   -1.03517  -0.96031  -0.95968  -0.87052  -0.86982
 Alpha  occ. eigenvalues --   -0.79657  -0.79570  -0.78299  -0.78228  -0.65201
 Alpha  occ. eigenvalues --   -0.64980  -0.61050  -0.60852  -0.59397  -0.59338
 Alpha  occ. eigenvalues --   -0.57636  -0.57582  -0.55388  -0.55195  -0.52721
 Alpha  occ. eigenvalues --   -0.52664  -0.52462  -0.52395  -0.50067  -0.49845
 Alpha  occ. eigenvalues --   -0.48020  -0.47867  -0.46790  -0.46538  -0.45909
 Alpha  occ. eigenvalues --   -0.45779  -0.45753  -0.45479  -0.43830  -0.43776
 Alpha virt. eigenvalues --    0.20322   0.23066   0.23739   0.24485   0.25960
 Alpha virt. eigenvalues --    0.26793   0.27166   0.27662   0.28034   0.29180
 Alpha virt. eigenvalues --    0.30465   0.31453   0.31666   0.31896   0.32175

 Mulliken charges:
               1
     1  C   -0.298350
     2  C   -0.299740
     3  C   -0.475745
     4  H    0.149724
     5  H    0.149610
     6  H    0.152150
     7  H    0.152004
     8  H    0.155189
     9  H    0.155246
    10  H    0.160363
    11  C   -0.298504
    12  C   -0.299759
    13  C   -0.483507
    14  H    0.149632
    15  H    0.149918
    16  H    0.151623
    17  H    0.152480
    18  H    0.155973
    19  H    0.161817
    20  H    0.160194
    21  C   -0.304882
    22  C   -0.299134
    23  C   -0.477894
    24  H    0.149384
    25  H    0.155295
    26  H    0.151805
    27  H    0.152582
    28  H    0.157277
    29  H    0.154792
    30  H    0.160322
    31  C   -0.297783
    32  C   -0.299695
    33  C   -0.475712
    34  H    0.149579
    35  H    0.149895
    36  H    0.151916
    37  H    0.151198
    38  H    0.155281
    39  H    0.155325
    40  H    0.160132
 Sum of Mulliken charges =  -0.00000

 Dipole moment (field-independent basis, Debye):
    X=              0.0181    Y=             -0.0096    Z=              0.0078  Tot=              0.0219
 Quadrupole moment (field-independent basis, Debye-Ang):
   XX=            -84.8051   YY=            -85.7282   ZZ=            -84.1774
   XY=             -0.8432   XZ=              1.0374   YZ=             -0.8438

 Normal termination of Gaussian 16 at Thu May  6 02:26:21 2021.
