 Gaussian 16, Revision A.03,
 Gaussian 16:  EM64L-G16RevA.03 25-Dec-2016

 -------------
 #p 6-31g* mp2
 -------------

 ------------------------------------------------------
 Input file generated by CHIRIPA (05-May-2021 14:51:08)
 ------------------------------------------------------
 Symbolic Z-matrix:
 Charge =  0 Multiplicity = 1

                         Standard orientation:
 ---------------------------------------------------------------------
 Center     Atomic      Atomic             Coordinates (Angstroms)
 Number     Number       Type             X           Y           Z
 ---------------------------------------------------------------------
      1          6           0       -4.420136   -0.299445   -0.197994
      2          6           0       -5.928706   -0.324204    0.050178
      3          6           0       -6.549874   -1.694902   -0.220251
      4          1           0       -4.221005   -0.595271   -1.237118
      5          1           0       -3.938278   -1.053627    0.439514
      6          1           0       -6.407424    0.430754   -0.586598
      7          1           0       -6.124281   -0.028100    1.088777
      8          1           0       -6.099250   -2.456104    0.424815
      9          1           0       -6.384002   -1.994643   -1.260079
     10          1           0       -7.628808   -1.690019   -0.036571
     11          6           0       -3.784711    1.064072    0.068059
     12          6           0       -2.276141    1.088830   -0.180113
     13          6           0       -1.654973    2.459528    0.090316
     14          1           0       -4.266569    1.818254   -0.569450
     15          1           0       -3.983842    1.359897    1.107183
     16          1           0       -2.080566    0.792726   -1.218713
     17          1           0       -1.797423    0.333873    0.456663
     18          1           0       -1.820845    2.759269    1.130144
     19          1           0       -2.105597    3.220730   -0.554751
     20          1           0       -0.576039    2.454646   -0.093365
     21          6           0        3.492300   -0.448456    0.519729
     22          6           0        2.198533   -0.742481   -0.240335
     23          6           0        0.986813   -0.872034    0.683107
     24          1           0        3.670567   -1.248884    1.250811
     25          1           0        3.368267    0.479030    1.095731
     26          1           0        2.325442   -1.668400   -0.815822
     27          1           0        2.023426    0.058641   -0.969827
     28          1           0        0.832034    0.053130    1.247655
     29          1           0        1.135766   -1.683723    1.402536
     30          1           0        0.072781   -1.082181    0.118978
     31          6           0        4.712546   -0.316170   -0.389793
     32          6           0        6.006315   -0.022145    0.370271
     33          6           0        7.218033    0.107408   -0.553172
     34          1           0        4.836579   -1.243657   -0.965796
     35          1           0        4.534280    0.484258   -1.120876
     36          1           0        6.181422   -0.823267    1.099762
     37          1           0        5.879405    0.903773    0.945758
     38          1           0        7.069081    0.919097   -1.272600
     39          1           0        7.372814   -0.817757   -1.117720
     40          1           0        8.132066    0.317555    0.010958
 ---------------------------------------------------------------------

 SCF Done:  E(RHF) =  -470.732788705     A.U. after   11 cycles
 E2 =    -0.1582876505D+01 EUMP2 =    -0.47231566521032D+03

 The electronic state is 1-A.
 Alpha  occ. eigenvalues --  -11.21602 -11.21601 -11.21581 -11.21490 -11.21405
 Alpha  occ. eigenvalues --  -11.21369 -11.21346 -11.21304 -11.21071 -11.21055
 Alpha  occ. eigenvalues --  -11.21050 -11.21027  -1.08435  -1.08388  -1.03558
 Alpha  occ. eigenvalues --   -1.03466  -0.96013  -0.95918  -0.87015  -0.86956
 Alpha  occ. eigenvalues --   -0.79678  -0.79487  -0.78255  -0.78194  -0.65083
 Alpha  occ. eigenvalues --   -0.65010  -0.61022  -0.60834  -0.59494  -0.59186
 Alpha  occ. eigenvalues --   -0.57649  -0.57498  -0.55323  -0.55168  -0.52740
 Alpha  occ. eigenvalues --   -0.52617  -0.52430  -0.52338  -0.49945  -0.49864
 Alpha  occ. eigenvalues --   -0.47994  -0.47783  -0.46704  -0.46509  -0.45787
 Alpha  occ. eigenvalues --   -0.45756  -0.45723  -0.45634  -0.43797  -0.43659
 Alpha virt. eigenvalues --    0.21513   0.23037   0.23536   0.25139   0.26359
 Alpha virt. eigenvalues --    0.26558   0.26884   0.27452   0.27662   0.29167
 Alpha virt. eigenvalues --    0.30844   0.31141   0.31432   0.31674   0.32630

 Mulliken charges:
               1
     1  C   -0.298441
     2  C   -0.299544
     3  C   -0.475706
     4  H    0.149343
     5  H    0.149383
     6  H    0.151909
     7  H    0.151948
     8  H    0.155182
     9  H    0.155089
    10  H    0.160187
    11  C   -0.297679
    12  C   -0.305171
    13  C   -0.476434
    14  H    0.148992
    15  H    0.149371
    16  H    0.150543
    17  H    0.160445
    18  H    0.154798
    19  H    0.154981
    20  H    0.160228
    21  C   -0.298565
    22  C   -0.299820
    23  C   -0.480388
    24  H    0.149656
    25  H    0.149518
    26  H    0.151931
    27  H    0.151921
    28  H    0.156422
    29  H    0.154412
    30  H    0.165483
    31  C   -0.298289
    32  C   -0.299643
    33  C   -0.475703
    34  H    0.149530
    35  H    0.149615
    36  H    0.151926
    37  H    0.151953
    38  H    0.155190
    39  H    0.155173
    40  H    0.160258
 Sum of Mulliken charges =  -0.00000

 Dipole moment (field-independent basis, Debye):
    X=              0.0128    Y=             -0.0183    Z=              0.0103  Tot=              0.0246
 Quadrupole moment (field-independent basis, Debye-Ang):
   XX=            -86.1974   YY=            -84.6278   ZZ=            -84.1458
   XY=             -0.8539   XZ=              0.5651   YZ=             -0.4229

 Normal termination of Gaussian 16 at Thu May  6 03:40:59 2021.
