 Gaussian 16, Revision A.03,
 Gaussian 16:  EM64L-G16RevA.03 25-Dec-2016

 -------------
 #p 6-31g* mp2
 -------------

 ------------------------------------------------------
 Input file generated by CHIRIPA (05-May-2021 14:57:24)
 ------------------------------------------------------
 Symbolic Z-matrix:
 Charge =  0 Multiplicity = 1

                         Standard orientation:
 ---------------------------------------------------------------------
 Center     Atomic      Atomic             Coordinates (Angstroms)
 Number     Number       Type             X           Y           Z
 ---------------------------------------------------------------------
      1          6           0        2.840738    2.382247    0.707665
      2          6           0        3.443586    2.141755   -0.531391
      3          6           0        3.763011    0.838717   -0.924592
      4          6           0        3.464233   -0.204920   -0.050038
      5          6           0        2.863959    0.002484    1.190907
      6          6           0        2.553355    1.313727    1.563351
      7          1           0        2.596027    3.397665    1.005050
      8          1           0        3.667923    2.969643   -1.197964
      9          1           0        4.230033    0.624121   -1.878142
     10          1           0        2.652465   -0.843219    1.833928
     11          1           0        2.085209    1.497518    2.526214
     12          7           0        3.797724   -1.588731   -0.455315
     13          8           0        3.524255   -2.490934    0.333279
     14          8           0        4.326271   -1.744957   -1.553891
     15          6           0       -0.931807    0.252225    0.373468
     16          6           0       -1.555621    0.936499   -0.674933
     17          6           0       -2.927716    0.791456   -0.900467
     18          6           0       -3.648781   -0.049771   -0.054482
     19          6           0       -3.056036   -0.744967    0.998442
     20          6           0       -1.682682   -0.584848    1.205343
     21          1           0        0.134558    0.370753    0.541431
     22          1           0       -0.974983    1.587250   -1.322566
     23          1           0       -3.436043    1.309342   -1.704716
     24          1           0       -3.661207   -1.386621    1.627303
     25          1           0       -1.200882   -1.117508    2.020320
     26          7           0       -5.102023   -0.211302   -0.283382
     27          8           0       -5.715026   -0.958374    0.476058
     28          8           0       -5.600555    0.412221   -1.217898
 ---------------------------------------------------------------------

 SCF Done:  E(RHF) =  -868.336781279     A.U. after   16 cycles
 E2 =    -0.2601789884D+01 EUMP2 =    -0.87093857116366D+03

 The electronic state is 1-A.
 Alpha  occ. eigenvalues --  -20.61751 -20.61740 -20.60790 -20.60785 -15.86812
 Alpha  occ. eigenvalues --  -15.85846 -11.32447 -11.31211 -11.29050 -11.28972
 Alpha  occ. eigenvalues --  -11.28754 -11.28085 -11.28015 -11.27805 -11.27798
 Alpha  occ. eigenvalues --  -11.27369 -11.26801 -11.26788  -1.60819  -1.59866
 Alpha  occ. eigenvalues --   -1.40365  -1.39420  -1.20655  -1.19387  -1.09964
 Alpha  occ. eigenvalues --   -1.08772  -1.06086  -1.04803  -0.96754  -0.95607
 Alpha  occ. eigenvalues --   -0.87424  -0.86197  -0.83579  -0.82450  -0.78591
 Alpha  occ. eigenvalues --   -0.77505  -0.73016  -0.72158  -0.72062  -0.71669
 Alpha  occ. eigenvalues --   -0.71191  -0.70511  -0.66259  -0.66012  -0.65036
 Alpha  occ. eigenvalues --   -0.64830  -0.63376  -0.62161  -0.56485  -0.55772
 Alpha  occ. eigenvalues --   -0.54107  -0.53912  -0.53124  -0.52896  -0.49797
 Alpha  occ. eigenvalues --   -0.49762  -0.48823  -0.48817  -0.45711  -0.44825
 Alpha  occ. eigenvalues --   -0.38643  -0.37683  -0.37326  -0.36421
 Alpha virt. eigenvalues --    0.03912   0.05031   0.09906   0.11230   0.15318
 Alpha virt. eigenvalues --    0.16553   0.20080   0.21698   0.25825   0.26930
 Alpha virt. eigenvalues --    0.27659   0.28967   0.29912   0.31225   0.31773

 Mulliken charges:
               1
     1  C   -0.171558
     2  C   -0.219662
     3  C   -0.170670
     4  C    0.164346
     5  C   -0.185546
     6  C   -0.228366
     7  H    0.231026
     8  H    0.228391
     9  H    0.280186
    10  H    0.277524
    11  H    0.228618
    12  N    0.488253
    13  O   -0.458508
    14  O   -0.455947
    15  C   -0.178881
    16  C   -0.223748
    17  C   -0.170199
    18  C    0.157816
    19  C   -0.169801
    20  C   -0.223160
    21  H    0.240017
    22  H    0.221237
    23  H    0.274959
    24  H    0.275907
    25  H    0.220680
    26  N    0.488044
    27  O   -0.460176
    28  O   -0.460781
 Sum of Mulliken charges =  -0.00000

 Dipole moment (field-independent basis, Debye):
    X=              4.3156    Y=              5.4766    Z=              2.1508  Tot=              7.2968
 Quadrupole moment (field-independent basis, Debye-Ang):
   XX=           -150.0487   YY=           -104.9487   ZZ=            -98.6625
   XY=             16.0976   XZ=             -0.5248   YZ=             -5.1053

 Normal termination of Gaussian 16 at Wed May  5 22:41:37 2021.
