 Gaussian 16, Revision A.03,
 Gaussian 16:  EM64L-G16RevA.03 25-Dec-2016

 -------------
 #p 6-31g* mp2
 -------------

 ------------------------------------------------------
 Input file generated by CHIRIPA (05-May-2021 14:55:25)
 ------------------------------------------------------
 Symbolic Z-matrix:
 Charge =  0 Multiplicity = 1

                         Standard orientation:
 ---------------------------------------------------------------------
 Center     Atomic      Atomic             Coordinates (Angstroms)
 Number     Number       Type             X           Y           Z
 ---------------------------------------------------------------------
      1          6           0        1.408849    1.179907    0.022759
      2          6           0        1.775253    0.423879   -1.095584
      3          6           0        2.991626   -0.264897   -1.119472
      4          6           0        3.821147   -0.175254   -0.002714
      5          6           0        3.484186    0.569686    1.126362
      6          6           0        2.262980    1.250274    1.128214
      7          1           0        0.462064    1.711785    0.032756
      8          1           0        1.113910    0.367425   -1.955516
      9          1           0        3.300074   -0.857520   -1.972159
     10          1           0        4.164370    0.606924    1.968610
     11          1           0        1.981025    1.836647    1.998107
     12          7           0        5.111425   -0.900096   -0.016338
     13          8           0        5.824568   -0.805046    0.980170
     14          8           0        5.385171   -1.549552   -1.023268
     15          6           0       -5.107153   -0.446594   -0.276316
     16          6           0       -5.443079   -1.556709    0.720069
     17          6           0       -6.421044   -2.585345    0.151485
     18          1           0       -6.034839    0.056785   -0.581202
     19          1           0       -4.681851   -0.895193   -1.184761
     20          1           0       -5.866340   -1.106043    1.626912
     21          1           0       -4.514466   -2.057379    1.022763
     22          1           0       -6.003134   -3.061855   -0.741202
     23          1           0       -7.362689   -2.105114   -0.133620
     24          1           0       -6.647357   -3.369813    0.880355
     25          6           0       -4.130590    0.589418    0.277515
     26          6           0       -3.794665    1.699533   -0.718871
     27          6           0       -2.816699    2.728169   -0.150287
     28          1           0       -4.555892    1.038018    1.185960
     29          1           0       -3.202905    0.086039    0.582400
     30          1           0       -4.723277    2.200204   -1.021566
     31          1           0       -3.371403    1.248868   -1.625714
     32          1           0       -1.875055    2.247938    0.134818
     33          1           0       -3.234609    3.204679    0.742400
     34          1           0       -2.590386    3.512638   -0.879158
 ---------------------------------------------------------------------

 SCF Done:  E(RHF) =  -669.535524721     A.U. after   15 cycles
 E2 =    -0.2090767943D+01 EUMP2 =    -0.67162629266418D+03

 The electronic state is 1-A.
 Alpha  occ. eigenvalues --  -20.60747 -20.60742 -15.85801 -11.31165 -11.27736
 Alpha  occ. eigenvalues --  -11.27731 -11.27454 -11.26750 -11.26738 -11.22544
 Alpha  occ. eigenvalues --  -11.22291 -11.22166 -11.22103 -11.21985 -11.21478
 Alpha  occ. eigenvalues --   -1.59823  -1.39377  -1.19337  -1.09160  -1.08731
 Alpha  occ. eigenvalues --   -1.04741  -1.04282  -0.96746  -0.95567  -0.87765
 Alpha  occ. eigenvalues --   -0.86137  -0.82402  -0.80353  -0.78933  -0.77448
 Alpha  occ. eigenvalues --   -0.72019  -0.71146  -0.70465  -0.65793  -0.64989
 Alpha  occ. eigenvalues --   -0.64746  -0.62090  -0.61691  -0.60123  -0.58337
 Alpha  occ. eigenvalues --   -0.56148  -0.55178  -0.53435  -0.53151  -0.53069
 Alpha  occ. eigenvalues --   -0.52832  -0.50686  -0.48782  -0.48774  -0.48656
 Alpha  occ. eigenvalues --   -0.47381  -0.46483  -0.46384  -0.44782  -0.44514
 Alpha  occ. eigenvalues --   -0.37315  -0.36348
 Alpha virt. eigenvalues --    0.05083   0.11307   0.16552   0.19572   0.22487
 Alpha virt. eigenvalues --    0.23729   0.25336   0.26252   0.27037   0.27365
 Alpha virt. eigenvalues --    0.28710   0.30369   0.30894   0.31382   0.32336

 Mulliken charges:
               1
     1  C   -0.178570
     2  C   -0.221842
     3  C   -0.170751
     4  C    0.158318
     5  C   -0.170705
     6  C   -0.221415
     7  H    0.238519
     8  H    0.223490
     9  H    0.275470
    10  H    0.275546
    11  H    0.224070
    12  N    0.487976
    13  O   -0.460454
    14  O   -0.460530
    15  C   -0.298682
    16  C   -0.300259
    17  C   -0.476094
    18  H    0.151177
    19  H    0.149650
    20  H    0.152696
    21  H    0.152568
    22  H    0.155730
    23  H    0.155845
    24  H    0.162002
    25  C   -0.298878
    26  C   -0.299442
    27  C   -0.481451
    28  H    0.151345
    29  H    0.148071
    30  H    0.156383
    31  H    0.150641
    32  H    0.145899
    33  H    0.160580
    34  H    0.163097
 Sum of Mulliken charges =  -0.00000

 Dipole moment (field-independent basis, Debye):
    X=             -4.7759    Y=              2.5529    Z=              0.0563  Tot=              5.4157
 Quadrupole moment (field-independent basis, Debye-Ang):
   XX=           -128.9519   YY=            -95.9851   ZZ=            -90.5956
   XY=              9.9000   XZ=              0.8112   YZ=              1.8071

 Normal termination of Gaussian 16 at Thu May  6 16:03:28 2021.
