 Gaussian 16, Revision A.03,
 Gaussian 16:  EM64L-G16RevA.03 25-Dec-2016

 -------------
 #p 6-31g* mp2
 -------------

 ------------------------------------------------------
 Input file generated by CHIRIPA (05-May-2021 14:53:13)
 ------------------------------------------------------
 Symbolic Z-matrix:
 Charge =  0 Multiplicity = 1

                         Standard orientation:
 ---------------------------------------------------------------------
 Center     Atomic      Atomic             Coordinates (Angstroms)
 Number     Number       Type             X           Y           Z
 ---------------------------------------------------------------------
      1          6           0       -4.432547    0.137978   -0.013599
      2          6           0       -5.670114   -0.759051    0.028259
      3          6           0       -6.971422    0.034319    0.150548
      4          1           0       -4.403641    0.754706    0.895112
      5          1           0       -4.520387    0.832827   -0.860276
      6          1           0       -5.579322   -1.452928    0.873782
      7          1           0       -5.695975   -1.373853   -0.880567
      8          1           0       -7.088852    0.715053   -0.698811
      9          1           0       -6.971536    0.635529    1.065505
     10          1           0       -7.843388   -0.626545    0.178741
     11          6           0       -3.123857   -0.640578   -0.135710
     12          6           0       -1.886290    0.256451   -0.177568
     13          6           0       -0.584982   -0.536919   -0.299857
     14          1           0       -3.036018   -1.335427    0.710968
     15          1           0       -3.152764   -1.257306   -1.044421
     16          1           0       -1.860430    0.871253    0.731258
     17          1           0       -1.977083    0.950328   -1.023090
     18          1           0       -0.584868   -1.138129   -1.214814
     19          1           0       -0.467552   -1.217653    0.549502
     20          1           0        0.286984    0.123945   -0.328050
     21          6           0        1.902357    2.490747    0.078312
     22          6           0        2.069961    1.787211    1.275586
     23          6           0        2.650174    0.515244    1.276430
     24          6           0        3.053169   -0.025487    0.056392
     25          6           0        2.899682    0.650522   -1.153047
     26          6           0        2.317022    1.921162   -1.130054
     27          1           0        1.450683    3.478327    0.086915
     28          1           0        1.748866    2.227084    2.215509
     29          1           0        2.791840   -0.051418    2.188703
     30          1           0        3.229654    0.185955   -2.074304
     31          1           0        2.188107    2.465232   -2.061405
     32          7           0        3.668709   -1.371360    0.044667
     33          8           0        4.015402   -1.825727   -1.043447
     34          8           0        3.792823   -1.946404    1.123813
 ---------------------------------------------------------------------

 SCF Done:  E(RHF) =  -669.533290860     A.U. after   15 cycles
 E2 =    -0.2094818731D+01 EUMP2 =    -0.67162810959078D+03

 The electronic state is 1-A.
 Alpha  occ. eigenvalues --  -20.60789 -20.60784 -15.85846 -11.31241 -11.27836
 Alpha  occ. eigenvalues --  -11.27832 -11.27613 -11.26877 -11.26866 -11.21714
 Alpha  occ. eigenvalues --  -11.21704 -11.21521 -11.21433 -11.21192 -11.20795
 Alpha  occ. eigenvalues --   -1.59862  -1.39415  -1.19495  -1.08847  -1.08522
 Alpha  occ. eigenvalues --   -1.04876  -1.03591  -0.96031  -0.95661  -0.87051
 Alpha  occ. eigenvalues --   -0.86254  -0.82490  -0.79679  -0.78349  -0.77532
 Alpha  occ. eigenvalues --   -0.72065  -0.71188  -0.70559  -0.65161  -0.65103
 Alpha  occ. eigenvalues --   -0.64861  -0.62207  -0.60999  -0.59605  -0.57788
 Alpha  occ. eigenvalues --   -0.55360  -0.55317  -0.54114  -0.52947  -0.52508
 Alpha  occ. eigenvalues --   -0.51466  -0.49969  -0.48827  -0.48815  -0.47918
 Alpha  occ. eigenvalues --   -0.46719  -0.45882  -0.45823  -0.44812  -0.43751
 Alpha  occ. eigenvalues --   -0.37470  -0.36494
 Alpha virt. eigenvalues --    0.05004   0.11152   0.16465   0.21313   0.22789
 Alpha virt. eigenvalues --    0.24399   0.26497   0.27253   0.27348   0.28083
 Alpha virt. eigenvalues --    0.28292   0.30892   0.31333   0.31765   0.32418

 Mulliken charges:
               1
     1  C   -0.297856
     2  C   -0.299701
     3  C   -0.475646
     4  H    0.147801
     5  H    0.148072
     6  H    0.152654
     7  H    0.152702
     8  H    0.154635
     9  H    0.154511
    10  H    0.160895
    11  C   -0.298396
    12  C   -0.296903
    13  C   -0.485153
    14  H    0.150683
    15  H    0.150876
    16  H    0.146193
    17  H    0.147225
    18  H    0.154071
    19  H    0.154267
    20  H    0.174045
    21  C   -0.172073
    22  C   -0.217005
    23  C   -0.171056
    24  C    0.162082
    25  C   -0.174000
    26  C   -0.218411
    27  H    0.226733
    28  H    0.224240
    29  H    0.276064
    30  H    0.276260
    31  H    0.224398
    32  N    0.488529
    33  O   -0.460284
    34  O   -0.460451
 Sum of Mulliken charges =  -0.00000

 Dipole moment (field-independent basis, Debye):
    X=             -2.0261    Y=              4.7548    Z=              0.0456  Tot=              5.1687
 Quadrupole moment (field-independent basis, Debye-Ang):
   XX=           -109.9822   YY=            -95.7825   ZZ=            -88.7330
   XY=             15.2548   XZ=             -0.4420   YZ=             -0.1413

 Normal termination of Gaussian 16 at Wed May  5 21:48:38 2021.
