 Gaussian 16, Revision A.03,
 Gaussian 16:  EM64L-G16RevA.03 25-Dec-2016

 -------------
 #p 6-31g* mp2
 -------------

 ------------------------------------------------------
 Input file generated by CHIRIPA (05-May-2021 14:51:07)
 ------------------------------------------------------
 Symbolic Z-matrix:
 Charge =  0 Multiplicity = 1

                         Standard orientation:
 ---------------------------------------------------------------------
 Center     Atomic      Atomic             Coordinates (Angstroms)
 Number     Number       Type             X           Y           Z
 ---------------------------------------------------------------------
      1          6           0        3.644767    0.213528   -0.298090
      2          6           0        3.641778   -1.169995    0.352941
      3          6           0        4.706970   -2.099602   -0.229289
      4          1           0        3.485755    0.103223   -1.379521
      5          1           0        4.637379    0.667875   -0.172851
      6          1           0        2.649052   -1.621028    0.227719
      7          1           0        3.800625   -1.056371    1.432975
      8          1           0        5.706411   -1.674650   -0.090963
      9          1           0        4.548295   -2.242515   -1.303067
     10          1           0        4.687125   -3.083125    0.250448
     11          6           0        2.585416    1.154249    0.273353
     12          6           0        2.588405    2.537772   -0.377677
     13          6           0        1.523214    3.467379    0.204553
     14          1           0        1.592804    0.699901    0.148115
     15          1           0        2.744429    1.264554    1.354784
     16          1           0        2.429558    2.424147   -1.457711
     17          1           0        3.581131    2.988804   -0.252455
     18          1           0        1.681889    3.610292    1.278331
     19          1           0        0.523773    3.042426    0.066227
     20          1           0        1.543059    4.450902   -0.275185
     21          6           0       -2.456499   -0.860139    0.356786
     22          6           0       -1.651209   -1.927735   -0.384655
     23          6           0       -0.336275   -2.269614    0.316674
     24          1           0       -1.845632    0.047530    0.456405
     25          1           0       -2.664448   -1.210511    1.377271
     26          1           0       -1.446029   -1.576039   -1.403883
     27          1           0       -2.264134   -2.832902   -0.482689
     28          1           0       -0.525126   -2.645010    1.327620
     29          1           0        0.297628   -1.381006    0.401193
     30          1           0        0.223343   -3.034784   -0.230321
     31          6           0       -3.773685   -0.507638   -0.332049
     32          6           0       -4.578974    0.559958    0.409391
     33          6           0       -5.893909    0.901838   -0.291938
     34          1           0       -3.565735   -0.157265   -1.352535
     35          1           0       -4.384552   -1.415306   -0.431669
     36          1           0       -3.966050    1.465126    0.507426
     37          1           0       -4.784155    0.208263    1.428619
     38          1           0       -6.527812    0.013230   -0.376457
     39          1           0       -5.705058    1.277234   -1.302884
     40          1           0       -6.453526    1.667007    0.255057
 ---------------------------------------------------------------------

 SCF Done:  E(RHF) =  -470.732663583     A.U. after   11 cycles
 E2 =    -0.1583623827D+01 EUMP2 =    -0.47231628741017D+03

 The electronic state is 1-A.
 Alpha  occ. eigenvalues --  -11.21648 -11.21631 -11.21619 -11.21470 -11.21444
 Alpha  occ. eigenvalues --  -11.21416 -11.21383 -11.21334 -11.21112 -11.21096
 Alpha  occ. eigenvalues --  -11.21084 -11.21009  -1.08473  -1.08417  -1.03573
 Alpha  occ. eigenvalues --   -1.03503  -0.96022  -0.95969  -0.87053  -0.86975
 Alpha  occ. eigenvalues --   -0.79685  -0.79536  -0.78328  -0.78183  -0.65208
 Alpha  occ. eigenvalues --   -0.64973  -0.61022  -0.60866  -0.59405  -0.59317
 Alpha  occ. eigenvalues --   -0.57654  -0.57551  -0.55362  -0.55225  -0.52746
 Alpha  occ. eigenvalues --   -0.52658  -0.52435  -0.52388  -0.50022  -0.49905
 Alpha  occ. eigenvalues --   -0.47997  -0.47874  -0.46817  -0.46583  -0.45971
 Alpha  occ. eigenvalues --   -0.45768  -0.45746  -0.45261  -0.43811  -0.43760
 Alpha virt. eigenvalues --    0.20778   0.23156   0.23964   0.24101   0.25645
 Alpha virt. eigenvalues --    0.26878   0.27045   0.27294   0.27808   0.29536
 Alpha virt. eigenvalues --    0.30407   0.31612   0.31657   0.31918   0.32050

 Mulliken charges:
               1
     1  C   -0.297784
     2  C   -0.308439
     3  C   -0.475274
     4  H    0.149074
     5  H    0.149438
     6  H    0.163060
     7  H    0.151186
     8  H    0.154702
     9  H    0.154611
    10  H    0.160090
    11  C   -0.304373
    12  C   -0.299286
    13  C   -0.475610
    14  H    0.153597
    15  H    0.150058
    16  H    0.151845
    17  H    0.152379
    18  H    0.155530
    19  H    0.154230
    20  H    0.160462
    21  C   -0.298915
    22  C   -0.299346
    23  C   -0.485226
    24  H    0.149308
    25  H    0.149991
    26  H    0.151483
    27  H    0.152227
    28  H    0.156104
    29  H    0.164061
    30  H    0.160376
    31  C   -0.298345
    32  C   -0.299690
    33  C   -0.475732
    34  H    0.149440
    35  H    0.149845
    36  H    0.152073
    37  H    0.152061
    38  H    0.155187
    39  H    0.155190
    40  H    0.160412
 Sum of Mulliken charges =  -0.00000

 Dipole moment (field-independent basis, Debye):
    X=             -0.0279    Y=             -0.0106    Z=              0.0172  Tot=              0.0344
 Quadrupole moment (field-independent basis, Debye-Ang):
   XX=            -85.7195   YY=            -84.8680   ZZ=            -84.2548
   XY=              1.5367   XZ=              0.0653   YZ=             -0.2984

 Normal termination of Gaussian 16 at Thu May  6 11:32:55 2021.
