 Gaussian 16, Revision A.03,
 Gaussian 16:  EM64L-G16RevA.03 25-Dec-2016

 -------------
 #p 6-31g* mp2
 -------------

 ------------------------------------------------------
 Input file generated by CHIRIPA (05-May-2021 14:55:22)
 ------------------------------------------------------
 Symbolic Z-matrix:
 Charge =  0 Multiplicity = 1

                         Standard orientation:
 ---------------------------------------------------------------------
 Center     Atomic      Atomic             Coordinates (Angstroms)
 Number     Number       Type             X           Y           Z
 ---------------------------------------------------------------------
      1          6           0       -0.767473   -0.152400    0.363317
      2          6           0       -1.612636   -0.103656    1.476799
      3          6           0       -3.000710   -0.152049    1.317247
      4          6           0       -3.511867   -0.249621    0.024000
      5          6           0       -2.695955   -0.300181   -1.105168
      6          6           0       -1.310872   -0.250335   -0.921848
      7          1           0        0.309655   -0.114243    0.496493
      8          1           0       -1.193423   -0.027599    2.476059
      9          1           0       -3.678078   -0.116073    2.161816
     10          1           0       -3.143323   -0.376001   -2.088800
     11          1           0       -0.656925   -0.288375   -1.788422
     12          7           0       -4.979776   -0.301622   -0.157492
     13          8           0       -5.405221   -0.387581   -1.307381
     14          8           0       -5.677083   -0.255437    0.853580
     15          6           0        4.816574   -0.021385    0.207307
     16          6           0        5.082396   -1.408136   -0.379419
     17          6           0        6.348293   -2.055306    0.183137
     18          1           0        5.681147    0.626267    0.007297
     19          1           0        4.733291   -0.102993    1.299917
     20          1           0        5.163777   -1.324148   -1.470721
     21          1           0        4.217009   -2.052508   -0.178156
     22          1           0        6.273111   -2.168177    1.269511
     23          1           0        7.225258   -1.435679   -0.030397
     24          1           0        6.519208   -3.045848   -0.249843
     25          6           0        3.554467    0.638475   -0.345322
     26          6           0        3.288646    2.025226    0.241404
     27          6           0        2.022748    2.672394   -0.321152
     28          1           0        3.637751    0.720082   -1.437932
     29          1           0        2.689895   -0.009177   -0.145311
     30          1           0        4.154032    2.669597    0.040141
     31          1           0        3.207264    1.941238    1.332706
     32          1           0        1.145783    2.052769   -0.107617
     33          1           0        2.097931    2.785266   -1.407526
     34          1           0        1.851833    3.662938    0.111828
 ---------------------------------------------------------------------

 SCF Done:  E(RHF) =  -669.534881614     A.U. after   15 cycles
 E2 =    -0.2092332550D+01 EUMP2 =    -0.67162721416425D+03

 The electronic state is 1-A.
 Alpha  occ. eigenvalues --  -20.60760 -20.60755 -15.85813 -11.31191 -11.27753
 Alpha  occ. eigenvalues --  -11.27745 -11.27467 -11.26778 -11.26763 -11.22598
 Alpha  occ. eigenvalues --  -11.22534 -11.22383 -11.22261 -11.21985 -11.21703
 Alpha  occ. eigenvalues --   -1.59835  -1.39388  -1.19362  -1.09395  -1.08758
 Alpha  occ. eigenvalues --   -1.04761  -1.04405  -0.96855  -0.95594  -0.87864
 Alpha  occ. eigenvalues --   -0.86158  -0.82428  -0.80469  -0.79218  -0.77462
 Alpha  occ. eigenvalues --   -0.72031  -0.71157  -0.70530  -0.66031  -0.65012
 Alpha  occ. eigenvalues --   -0.64759  -0.62106  -0.61807  -0.60224  -0.58467
 Alpha  occ. eigenvalues --   -0.56189  -0.55280  -0.53498  -0.53345  -0.53024
 Alpha  occ. eigenvalues --   -0.52850  -0.50801  -0.48806  -0.48786  -0.48751
 Alpha  occ. eigenvalues --   -0.47498  -0.46731  -0.46657  -0.44791  -0.44677
 Alpha  occ. eigenvalues --   -0.37312  -0.36363
 Alpha virt. eigenvalues --    0.05021   0.11272   0.16400   0.19093   0.22600
 Alpha virt. eigenvalues --    0.23840   0.25113   0.26278   0.27107   0.27523
 Alpha virt. eigenvalues --    0.29486   0.30508   0.30942   0.31273   0.31713

 Mulliken charges:
               1
     1  C   -0.175020
     2  C   -0.221535
     3  C   -0.170644
     4  C    0.158721
     5  C   -0.170791
     6  C   -0.221124
     7  H    0.235180
     8  H    0.223991
     9  H    0.275586
    10  H    0.275751
    11  H    0.224585
    12  N    0.487958
    13  O   -0.460318
    14  O   -0.460373
    15  C   -0.298113
    16  C   -0.300233
    17  C   -0.476205
    18  H    0.153503
    19  H    0.149997
    20  H    0.153223
    21  H    0.150214
    22  H    0.155892
    23  H    0.156870
    24  H    0.162479
    25  C   -0.302545
    26  C   -0.301212
    27  C   -0.480931
    28  H    0.152818
    29  H    0.139683
    30  H    0.157067
    31  H    0.151218
    32  H    0.151605
    33  H    0.157098
    34  H    0.165604
 Sum of Mulliken charges =  -0.00000

 Dipole moment (field-independent basis, Debye):
    X=              5.3605    Y=              0.2248    Z=              0.6162  Tot=              5.4005
 Quadrupole moment (field-independent basis, Debye-Ang):
   XX=           -131.0668   YY=            -95.5800   ZZ=            -89.2935
   XY=             -1.1157   XZ=             -3.5976   YZ=              0.0431

 Normal termination of Gaussian 16 at Wed May  5 22:18:40 2021.
