 Gaussian 16, Revision A.03,
 Gaussian 16:  EM64L-G16RevA.03 25-Dec-2016

 -------------
 #p 6-31g* mp2
 -------------

 ------------------------------------------------------
 Input file generated by CHIRIPA (05-May-2021 14:57:26)
 ------------------------------------------------------
 Symbolic Z-matrix:
 Charge =  0 Multiplicity = 1

                         Standard orientation:
 ---------------------------------------------------------------------
 Center     Atomic      Atomic             Coordinates (Angstroms)
 Number     Number       Type             X           Y           Z
 ---------------------------------------------------------------------
      1          6           0        4.714660    1.614996    0.205850
      2          6           0        5.006881    0.364768    0.760881
      3          6           0        4.095938   -0.690290    0.653257
      4          6           0        2.896920   -0.459004   -0.019167
      5          6           0        2.576882    0.775177   -0.582782
      6          6           0        3.502730    1.815856   -0.463030
      7          1           0        5.428092    2.429005    0.294166
      8          1           0        5.947299    0.205895    1.280897
      9          1           0        4.296672   -1.668279    1.073568
     10          1           0        1.631183    0.903178   -1.095312
     11          1           0        3.273116    2.785740   -0.895057
     12          7           0        1.924655   -1.568336   -0.139523
     13          8           0        0.875279   -1.338931   -0.736867
     14          8           0        2.230381   -2.646229    0.365765
     15          6           0       -3.500791   -2.207118   -0.049482
     16          6           0       -4.117970   -1.404618    0.915715
     17          6           0       -3.879497   -0.027538    0.952192
     18          6           0       -3.014272    0.516248    0.004049
     19          6           0       -2.384308   -0.256865   -0.969978
     20          6           0       -2.637452   -1.631694   -0.987594
     21          1           0       -3.691742   -3.275992   -0.070492
     22          1           0       -4.788919   -1.848769    1.645512
     23          1           0       -4.344012    0.617056    1.688493
     24          1           0       -1.720402    0.214656   -1.684340
     25          1           0       -2.156751   -2.252481   -1.738324
     26          7           0       -2.754045    1.972910    0.032683
     27          8           0       -1.987621    2.427696   -0.813720
     28          8           0       -3.321432    2.632271    0.900987
 ---------------------------------------------------------------------

 SCF Done:  E(RHF) =  -868.340385342     A.U. after   16 cycles
 E2 =    -0.2599381480D+01 EUMP2 =    -0.87093976682274D+03

 The electronic state is 1-A.
 Alpha  occ. eigenvalues --  -20.61141 -20.61122 -20.60311 -20.60279 -15.86162
 Alpha  occ. eigenvalues --  -15.85332 -11.31214 -11.30281 -11.27775 -11.27701
 Alpha  occ. eigenvalues --  -11.27443 -11.26856 -11.26732 -11.26725 -11.26643
 Alpha  occ. eigenvalues --  -11.26464 -11.25825 -11.25598  -1.60195  -1.59374
 Alpha  occ. eigenvalues --   -1.39762  -1.38941  -1.19361  -1.18411  -1.08818
 Alpha  occ. eigenvalues --   -1.07893  -1.04709  -1.03733  -0.95707  -0.94797
 Alpha  occ. eigenvalues --   -0.86128  -0.85174  -0.82561  -0.81634  -0.77634
 Alpha  occ. eigenvalues --   -0.76724  -0.72424  -0.71570  -0.71493  -0.70683
 Alpha  occ. eigenvalues --   -0.70471  -0.69541  -0.65020  -0.64708  -0.64064
 Alpha  occ. eigenvalues --   -0.63746  -0.62055  -0.61095  -0.55236  -0.54294
 Alpha  occ. eigenvalues --   -0.53066  -0.52795  -0.52094  -0.51840  -0.49162
 Alpha  occ. eigenvalues --   -0.49118  -0.48337  -0.48279  -0.45234  -0.44439
 Alpha  occ. eigenvalues --   -0.37336  -0.36390  -0.36297  -0.35242
 Alpha virt. eigenvalues --    0.04850   0.05789   0.11355   0.12345   0.16424
 Alpha virt. eigenvalues --    0.17376   0.21238   0.22430   0.26546   0.27777
 Alpha virt. eigenvalues --    0.28691   0.29453   0.30990   0.31705   0.32297

 Mulliken charges:
               1
     1  C   -0.170065
     2  C   -0.218830
     3  C   -0.171051
     4  C    0.157195
     5  C   -0.170251
     6  C   -0.218768
     7  H    0.226750
     8  H    0.223294
     9  H    0.274284
    10  H    0.278895
    11  H    0.228957
    12  N    0.492566
    13  O   -0.471462
    14  O   -0.460207
    15  C   -0.171682
    16  C   -0.219083
    17  C   -0.173429
    18  C    0.153842
    19  C   -0.160073
    20  C   -0.205732
    21  H    0.224333
    22  H    0.219617
    23  H    0.271094
    24  H    0.272377
    25  H    0.230082
    26  N    0.488901
    27  O   -0.468867
    28  O   -0.462688
 Sum of Mulliken charges =  -0.00000

 Dipole moment (field-independent basis, Debye):
    X=              2.7894    Y=             -1.3439    Z=              0.2157  Tot=              3.1038
 Quadrupole moment (field-independent basis, Debye-Ang):
   XX=            -77.1083   YY=           -112.8544   ZZ=           -101.4927
   XY=             23.4833   XZ=              0.8833   YZ=             -1.5423

 Normal termination of Gaussian 16 at Thu May  6 21:24:02 2021.
