 Gaussian 16, Revision A.03,
 Gaussian 16:  EM64L-G16RevA.03 25-Dec-2016

 -------------
 #p 6-31g* mp2
 -------------

 ------------------------------------------------------
 Input file generated by CHIRIPA (05-May-2021 14:57:21)
 ------------------------------------------------------
 Symbolic Z-matrix:
 Charge =  0 Multiplicity = 1

                         Standard orientation:
 ---------------------------------------------------------------------
 Center     Atomic      Atomic             Coordinates (Angstroms)
 Number     Number       Type             X           Y           Z
 ---------------------------------------------------------------------
      1          6           0        2.676899   -2.224976    0.356750
      2          6           0        3.796510   -2.021238   -0.456567
      3          6           0        4.316952   -0.736615   -0.639414
      4          6           0        3.690056    0.326283    0.009075
      5          6           0        2.573241    0.155505    0.825683
      6          6           0        2.069908   -1.137871    0.994155
      7          1           0        2.279253   -3.226302    0.493206
      8          1           0        4.269954   -2.863629   -0.952826
      9          1           0        5.182554   -0.550466   -1.263513
     10          1           0        2.122862    1.014939    1.307295
     11          1           0        1.200282   -1.293118    1.626368
     12          7           0        4.231968    1.690889   -0.176888
     13          8           0        3.661458    2.610675    0.405477
     14          8           0        5.216968    1.814842   -0.901490
     15          6           0       -1.616125   -1.642034    0.191795
     16          6           0       -2.295456   -1.554022   -1.027748
     17          6           0       -3.396379   -0.703732   -1.167477
     18          6           0       -3.792608    0.047564   -0.062106
     19          6           0       -3.136385   -0.018154    1.166040
     20          6           0       -2.038014   -0.875171    1.282873
     21          1           0       -0.761892   -2.305173    0.291446
     22          1           0       -1.970041   -2.148399   -1.876786
     23          1           0       -3.940481   -0.616212   -2.100060
     24          1           0       -3.484271    0.586773    1.994567
     25          1           0       -1.512342   -0.941490    2.231196
     26          7           0       -4.956754    0.951290   -0.197911
     27          8           0       -5.285996    1.602694    0.790982
     28          8           0       -5.517928    0.991112   -1.290675
 ---------------------------------------------------------------------

 SCF Done:  E(RHF) =  -868.335718518     A.U. after   16 cycles
 E2 =    -0.2601015944D+01 EUMP2 =    -0.87093673446201D+03

 The electronic state is 1-A.
 Alpha  occ. eigenvalues --  -20.61306 -20.61301 -20.61122 -20.61117 -15.86367
 Alpha  occ. eigenvalues --  -15.86184 -11.31928 -11.31702 -11.28543 -11.28494
 Alpha  occ. eigenvalues --  -11.28394 -11.28334 -11.28282 -11.28177 -11.27703
 Alpha  occ. eigenvalues --  -11.27567 -11.27465 -11.27337  -1.60377  -1.60194
 Alpha  occ. eigenvalues --   -1.39925  -1.39743  -1.20139  -1.19916  -1.09527
 Alpha  occ. eigenvalues --   -1.09301  -1.05574  -1.05345  -0.96313  -0.96104
 Alpha  occ. eigenvalues --   -0.87001  -0.86746  -0.83137  -0.82931  -0.78146
 Alpha  occ. eigenvalues --   -0.77924  -0.72585  -0.72402  -0.71702  -0.71518
 Alpha  occ. eigenvalues --   -0.71322  -0.71067  -0.65806  -0.65782  -0.65546
 Alpha  occ. eigenvalues --   -0.65268  -0.62936  -0.62656  -0.56127  -0.55946
 Alpha  occ. eigenvalues --   -0.53905  -0.53759  -0.53551  -0.53439  -0.49359
 Alpha  occ. eigenvalues --   -0.49323  -0.49174  -0.49142  -0.45286  -0.45114
 Alpha  occ. eigenvalues --   -0.38245  -0.37902  -0.37098  -0.36927
 Alpha virt. eigenvalues --    0.04386   0.04614   0.10347   0.10663   0.15743
 Alpha virt. eigenvalues --    0.16137   0.18126   0.22114   0.24573   0.25626
 Alpha virt. eigenvalues --    0.27767   0.28970   0.29966   0.31112   0.32340

 Mulliken charges:
               1
     1  C   -0.175242
     2  C   -0.217925
     3  C   -0.169739
     4  C    0.159224
     5  C   -0.169391
     6  C   -0.217963
     7  H    0.222371
     8  H    0.225616
     9  H    0.278368
    10  H    0.278159
    11  H    0.215626
    12  N    0.487985
    13  O   -0.457850
    14  O   -0.458279
    15  C   -0.166767
    16  C   -0.218445
    17  C   -0.169186
    18  C    0.159135
    19  C   -0.168915
    20  C   -0.222585
    21  H    0.217175
    22  H    0.224648
    23  H    0.278018
    24  H    0.277812
    25  H    0.217327
    26  N    0.488077
    27  O   -0.458754
    28  O   -0.458502
 Sum of Mulliken charges =  -0.00000

 Dipole moment (field-independent basis, Debye):
    X=              2.2228    Y=             -7.7830    Z=              0.9607  Tot=              8.1510
 Quadrupole moment (field-independent basis, Debye-Ang):
   XX=           -146.9025   YY=           -108.6459   ZZ=            -99.1332
   XY=             -7.4375   XZ=             -1.5648   YZ=              3.5192

 Normal termination of Gaussian 16 at Thu May  6 00:06:56 2021.
