 Gaussian 16, Revision A.03,
 Gaussian 16:  EM64L-G16RevA.03 25-Dec-2016

 -------------
 #p 6-31g* mp2
 -------------

 ------------------------------------------------------
 Input file generated by CHIRIPA (05-May-2021 14:55:24)
 ------------------------------------------------------
 Symbolic Z-matrix:
 Charge =  0 Multiplicity = 1

                         Standard orientation:
 ---------------------------------------------------------------------
 Center     Atomic      Atomic             Coordinates (Angstroms)
 Number     Number       Type             X           Y           Z
 ---------------------------------------------------------------------
      1          6           0       -1.401333   -2.196876    1.475050
      2          6           0       -0.992956   -0.869941    1.645322
      3          6           0       -1.566198    0.152664    0.883599
      4          6           0       -2.549631   -0.188941   -0.043469
      5          6           0       -2.977798   -1.501496   -0.236247
      6          6           0       -2.390706   -2.507870    0.536463
      7          1           0       -0.950646   -2.984956    2.071042
      8          1           0       -0.224809   -0.625482    2.373494
      9          1           0       -1.268833    1.188319    0.995006
     10          1           0       -3.745771   -1.714238   -0.969989
     11          1           0       -2.709826   -3.537507    0.402089
     12          7           0       -3.163828    0.885053   -0.855687
     13          8           0       -4.028339    0.557972   -1.665795
     14          8           0       -2.769094    2.033596   -0.666815
     15          6           0        2.491271    0.871078   -0.024891
     16          6           0        2.716273    2.231331    0.636224
     17          6           0        1.421209    3.025076    0.811074
     18          1           0        2.016099    1.020544   -1.004082
     19          1           0        1.782628    0.289503    0.580908
     20          1           0        3.425345    2.809634    0.030090
     21          1           0        3.191139    2.078621    1.613872
     22          1           0        0.711226    2.471521    1.434051
     23          1           0        0.946763    3.206687   -0.158729
     24          1           0        1.605172    3.994054    1.285521
     25          6           0        3.776645    0.065750   -0.206520
     26          6           0        3.551642   -1.294503   -0.867634
     27          6           0        4.846706   -2.088248   -1.042485
     28          1           0        4.485288    0.647325   -0.812319
     29          1           0        4.251817   -0.083716    0.772671
     30          1           0        3.076776   -1.141793   -1.845282
     31          1           0        2.842571   -1.872806   -0.261500
     32          1           0        5.321153   -2.269859   -0.072682
     33          1           0        5.556690   -1.534692   -1.665462
     34          1           0        4.662743   -3.057226   -1.516932
 ---------------------------------------------------------------------

 SCF Done:  E(RHF) =  -669.535221622     A.U. after   15 cycles
 E2 =    -0.2092631684D+01 EUMP2 =    -0.67162785330659D+03

 The electronic state is 1-A.
 Alpha  occ. eigenvalues --  -20.60749 -20.60743 -15.85800 -11.31159 -11.27754
 Alpha  occ. eigenvalues --  -11.27714 -11.27508 -11.26770 -11.26759 -11.21925
 Alpha  occ. eigenvalues --  -11.21922 -11.21733 -11.21674 -11.21408 -11.21372
 Alpha  occ. eigenvalues --   -1.59823  -1.39375  -1.19350  -1.08770  -1.08743
 Alpha  occ. eigenvalues --   -1.04760  -1.03858  -0.96306  -0.95577  -0.87322
 Alpha  occ. eigenvalues --   -0.86152  -0.82417  -0.79918  -0.78589  -0.77443
 Alpha  occ. eigenvalues --   -0.72020  -0.71145  -0.70467  -0.65423  -0.65000
 Alpha  occ. eigenvalues --   -0.64771  -0.62159  -0.61227  -0.59660  -0.57914
 Alpha  occ. eigenvalues --   -0.55624  -0.55256  -0.53114  -0.52983  -0.52969
 Alpha  occ. eigenvalues --   -0.52574  -0.50246  -0.48781  -0.48770  -0.48219
 Alpha  occ. eigenvalues --   -0.46953  -0.46115  -0.46045  -0.44780  -0.44103
 Alpha  occ. eigenvalues --   -0.37333  -0.36316
 Alpha virt. eigenvalues --    0.05057   0.11242   0.16416   0.19847   0.22803
 Alpha virt. eigenvalues --    0.23796   0.25567   0.26391   0.27022   0.28342
 Alpha virt. eigenvalues --    0.29349   0.30642   0.31448   0.31580   0.31947

 Mulliken charges:
               1
     1  C   -0.171376
     2  C   -0.220629
     3  C   -0.174784
     4  C    0.158224
     5  C   -0.170071
     6  C   -0.218989
     7  H    0.225521
     8  H    0.222589
     9  H    0.285313
    10  H    0.275598
    11  H    0.223446
    12  N    0.487581
    13  O   -0.460672
    14  O   -0.460048
    15  C   -0.301552
    16  C   -0.300708
    17  C   -0.477321
    18  H    0.154804
    19  H    0.144209
    20  H    0.155306
    21  H    0.149565
    22  H    0.141605
    23  H    0.167759
    24  H    0.164325
    25  C   -0.298440
    26  C   -0.299060
    27  C   -0.475857
    28  H    0.151819
    29  H    0.147669
    30  H    0.154658
    31  H    0.148204
    32  H    0.154130
    33  H    0.156882
    34  H    0.160300
 Sum of Mulliken charges =  -0.00000

 Dipole moment (field-independent basis, Debye):
    X=              2.1990    Y=             -3.6904    Z=              2.7355  Tot=              5.0930
 Quadrupole moment (field-independent basis, Debye-Ang):
   XX=           -105.3308   YY=            -91.2467   ZZ=            -93.8376
   XY=             12.4409   XZ=             -6.1079   YZ=              0.6660

 Normal termination of Gaussian 16 at Wed May  5 23:59:49 2021.
