 Gaussian 16, Revision A.03,
 Gaussian 16:  EM64L-G16RevA.03 25-Dec-2016

 -------------
 #p 6-31g* mp2
 -------------

 ------------------------------------------------------
 Input file generated by CHIRIPA (05-May-2021 14:53:14)
 ------------------------------------------------------
 Symbolic Z-matrix:
 Charge =  0 Multiplicity = 1

                         Standard orientation:
 ---------------------------------------------------------------------
 Center     Atomic      Atomic             Coordinates (Angstroms)
 Number     Number       Type             X           Y           Z
 ---------------------------------------------------------------------
      1          6           0       -2.697068    0.787321    0.326589
      2          6           0       -3.443807    2.107957    0.136096
      3          6           0       -2.831382    3.254763    0.940812
      4          1           0       -2.692408    0.526705    1.393829
      5          1           0       -1.646786    0.922386    0.033229
      6          1           0       -4.492688    1.970071    0.428419
      7          1           0       -3.446855    2.365362   -0.930838
      8          1           0       -1.790815    3.421049    0.643878
      9          1           0       -2.842590    3.023512    2.010858
     10          1           0       -3.380726    4.189273    0.789907
     11          6           0       -3.297421   -0.368679   -0.471513
     12          6           0       -2.550682   -1.689315   -0.281021
     13          6           0       -3.163107   -2.836120   -1.085736
     14          1           0       -4.347703   -0.503743   -0.178154
     15          1           0       -3.302081   -0.108063   -1.538754
     16          1           0       -2.547634   -1.946720    0.785914
     17          1           0       -1.501801   -1.551429   -0.573343
     18          1           0       -3.151899   -2.604870   -2.155783
     19          1           0       -4.203674   -3.002407   -0.788803
     20          1           0       -2.613763   -3.770630   -0.934832
     21          6           0        1.575172   -1.506310    2.050467
     22          6           0        1.043907   -1.769080    0.783490
     23          6           0        1.461201   -1.031361   -0.328349
     24          6           0        2.415692   -0.033717   -0.136148
     25          6           0        2.963745    0.251845    1.113405
     26          6           0        2.531709   -0.498464    2.211098
     27          1           0        1.245282   -2.084278    2.908676
     28          1           0        0.300911   -2.551185    0.655767
     29          1           0        1.066450   -1.213824   -1.320466
     30          1           0        3.702968    1.037821    1.209382
     31          1           0        2.946030   -0.292197    3.193868
     32          7           0        2.865266    0.753937   -1.305714
     33          8           0        3.707385    1.627515   -1.109922
     34          8           0        2.367011    0.482807   -2.396066
 ---------------------------------------------------------------------

 SCF Done:  E(RHF) =  -669.534598211     A.U. after   15 cycles
 E2 =    -0.2093049392D+01 EUMP2 =    -0.67162764760366D+03

 The electronic state is 1-A.
 Alpha  occ. eigenvalues --  -20.60794 -20.60789 -15.85846 -11.31211 -11.27758
 Alpha  occ. eigenvalues --  -11.27748 -11.27472 -11.26779 -11.26723 -11.22285
 Alpha  occ. eigenvalues --  -11.21777 -11.21727 -11.21693 -11.21600 -11.21138
 Alpha  occ. eigenvalues --   -1.59870  -1.39423  -1.19369  -1.08809  -1.08747
 Alpha  occ. eigenvalues --   -1.04779  -1.03906  -0.96328  -0.95601  -0.87348
 Alpha  occ. eigenvalues --   -0.86163  -0.82455  -0.80030  -0.78598  -0.77460
 Alpha  occ. eigenvalues --   -0.72064  -0.71194  -0.70474  -0.65451  -0.65005
 Alpha  occ. eigenvalues --   -0.64773  -0.62187  -0.61262  -0.59720  -0.57945
 Alpha  occ. eigenvalues --   -0.55593  -0.55259  -0.53181  -0.52992  -0.52869
 Alpha  occ. eigenvalues --   -0.52729  -0.50265  -0.48826  -0.48821  -0.48288
 Alpha  occ. eigenvalues --   -0.47051  -0.46112  -0.46016  -0.44828  -0.44141
 Alpha  occ. eigenvalues --   -0.37338  -0.36300
 Alpha virt. eigenvalues --    0.05009   0.11245   0.16428   0.20418   0.22754
 Alpha virt. eigenvalues --    0.23896   0.25753   0.26183   0.27134   0.28272
 Alpha virt. eigenvalues --    0.28976   0.30084   0.31053   0.31641   0.32339

 Mulliken charges:
               1
     1  C   -0.299365
     2  C   -0.300253
     3  C   -0.476117
     4  H    0.146954
     5  H    0.152893
     6  H    0.151248
     7  H    0.154855
     8  H    0.157953
     9  H    0.153192
    10  H    0.161464
    11  C   -0.298269
    12  C   -0.304774
    13  C   -0.476446
    14  H    0.150555
    15  H    0.153632
    16  H    0.147608
    17  H    0.148883
    18  H    0.159652
    19  H    0.158466
    20  H    0.155610
    21  C   -0.172740
    22  C   -0.215341
    23  C   -0.173237
    24  C    0.157601
    25  C   -0.171586
    26  C   -0.217973
    27  H    0.225555
    28  H    0.228796
    29  H    0.275054
    30  H    0.275530
    31  H    0.223472
    32  N    0.488181
    33  O   -0.460192
    34  O   -0.460863
 Sum of Mulliken charges =  -0.00000

 Dipole moment (field-independent basis, Debye):
    X=             -1.6432    Y=             -2.7026    Z=              4.1051  Tot=              5.1823
 Quadrupole moment (field-independent basis, Debye-Ang):
   XX=           -100.5806   YY=            -94.5779   ZZ=            -94.1581
   XY=             -5.0922   XZ=             11.9630   YZ=              1.2510

 Normal termination of Gaussian 16 at Thu May  6 01:04:11 2021.
