 Gaussian 16, Revision A.03,
 Gaussian 16:  EM64L-G16RevA.03 25-Dec-2016

 -------------
 #p 6-31g* mp2
 -------------

 ------------------------------------------------------
 Input file generated by CHIRIPA (05-May-2021 14:57:22)
 ------------------------------------------------------
 Symbolic Z-matrix:
 Charge =  0 Multiplicity = 1

                         Standard orientation:
 ---------------------------------------------------------------------
 Center     Atomic      Atomic             Coordinates (Angstroms)
 Number     Number       Type             X           Y           Z
 ---------------------------------------------------------------------
      1          6           0        5.380794   -0.090236    0.411083
      2          6           0        4.496896    0.146587    1.468987
      3          6           0        3.117496    0.189919    1.245546
      4          6           0        2.654416   -0.008710   -0.054221
      5          6           0        3.509693   -0.246761   -1.128987
      6          6           0        4.885245   -0.285809   -0.882248
      7          1           0        6.450850   -0.122233    0.593707
      8          1           0        4.878911    0.298821    2.474439
      9          1           0        2.410824    0.371407    2.046230
     10          1           0        3.099014   -0.394837   -2.120367
     11          1           0        5.569345   -0.469923   -1.705749
     12          7           0        1.196144    0.034896   -0.303101
     13          8           0        0.813387   -0.143202   -1.457404
     14          8           0        0.463520    0.246347    0.660843
     15          6           0       -2.700937    2.520573   -0.221217
     16          6           0       -3.046113    1.957544    1.011817
     17          6           0       -3.156394    0.571047    1.153280
     18          6           0       -2.913494   -0.226247    0.035866
     19          6           0       -2.567812    0.304702   -1.205862
     20          6           0       -2.463307    1.693813   -1.324177
     21          1           0       -2.617511    3.598653   -0.322117
     22          1           0       -3.231227    2.597173    1.870102
     23          1           0       -3.422051    0.108687    2.096184
     24          1           0       -2.389267   -0.358668   -2.043406
     25          1           0       -2.195075    2.128293   -2.282990
     26          7           0       -3.027187   -1.695452    0.173373
     27          8           0       -2.808139   -2.376123   -0.826299
     28          8           0       -3.333194   -2.138525    1.278218
 ---------------------------------------------------------------------

 SCF Done:  E(RHF) =  -868.338410173     A.U. after   16 cycles
 E2 =    -0.2601644905D+01 EUMP2 =    -0.87094005507808D+03

 The electronic state is 1-A.
 Alpha  occ. eigenvalues --  -20.61131 -20.61119 -20.59233 -20.59214 -15.86145
 Alpha  occ. eigenvalues --  -15.84267 -11.31397 -11.29267 -11.27952 -11.27948
 Alpha  occ. eigenvalues --  -11.27676 -11.26943 -11.26933 -11.26004 -11.25861
 Alpha  occ. eigenvalues --  -11.25807 -11.25025 -11.24902  -1.60176  -1.58299
 Alpha  occ. eigenvalues --   -1.39737  -1.37866  -1.19558  -1.17496  -1.08976
 Alpha  occ. eigenvalues --   -1.07009  -1.04944  -1.02915  -0.95834  -0.93887
 Alpha  occ. eigenvalues --   -0.86348  -0.84373  -0.82671  -0.80760  -0.77729
 Alpha  occ. eigenvalues --   -0.75801  -0.72385  -0.71479  -0.70668  -0.70531
 Alpha  occ. eigenvalues --   -0.69582  -0.68776  -0.65216  -0.64950  -0.63239
 Alpha  occ. eigenvalues --   -0.63032  -0.62293  -0.60322  -0.55466  -0.53580
 Alpha  occ. eigenvalues --   -0.53277  -0.53037  -0.51509  -0.51103  -0.49135
 Alpha  occ. eigenvalues --   -0.48764  -0.47280  -0.47251  -0.45166  -0.43354
 Alpha  occ. eigenvalues --   -0.37534  -0.36541  -0.35476  -0.34389
 Alpha virt. eigenvalues --    0.04792   0.06780   0.11116   0.13194   0.16311
 Alpha virt. eigenvalues --    0.18279   0.21260   0.22925   0.27173   0.28142
 Alpha virt. eigenvalues --    0.28819   0.29803   0.30826   0.32355   0.32368

 Mulliken charges:
               1
     1  C   -0.170310
     2  C   -0.218516
     3  C   -0.170360
     4  C    0.159152
     5  C   -0.170347
     6  C   -0.218513
     7  H    0.226401
     8  H    0.224112
     9  H    0.275667
    10  H    0.275427
    11  H    0.224147
    12  N    0.490023
    13  O   -0.463524
    14  O   -0.459365
    15  C   -0.169930
    16  C   -0.217373
    17  C   -0.165914
    18  C    0.167878
    19  C   -0.146782
    20  C   -0.217015
    21  H    0.216515
    22  H    0.214041
    23  H    0.268237
    24  H    0.274022
    25  H    0.216558
    26  N    0.487812
    27  O   -0.463709
    28  O   -0.468333
 Sum of Mulliken charges =  -0.00000

 Dipole moment (field-independent basis, Debye):
    X=              5.9596    Y=              4.9077    Z=              0.2951  Tot=              7.7258
 Quadrupole moment (field-independent basis, Debye-Ang):
   XX=            -81.7254   YY=           -109.4164   ZZ=            -95.8267
   XY=            -15.8030   XZ=              1.7121   YZ=              1.9755

 Normal termination of Gaussian 16 at Thu May  6 04:58:33 2021.
