 Gaussian 16, Revision A.03,
 Gaussian 16:  EM64L-G16RevA.03 25-Dec-2016

 -------------
 #p 6-31g* mp2
 -------------

 ------------------------------------------------------
 Input file generated by CHIRIPA (05-May-2021 14:51:14)
 ------------------------------------------------------
 Symbolic Z-matrix:
 Charge =  0 Multiplicity = 1

                         Standard orientation:
 ---------------------------------------------------------------------
 Center     Atomic      Atomic             Coordinates (Angstroms)
 Number     Number       Type             X           Y           Z
 ---------------------------------------------------------------------
      1          6           0       -3.227914    0.785316    0.284091
      2          6           0       -3.452110    2.174887   -0.313248
      3          6           0       -3.564702    3.265373    0.752565
      4          1           0       -4.055531    0.548749    0.966755
      5          1           0       -2.313938    0.799085    0.893889
      6          1           0       -4.364639    2.158140   -0.922860
      7          1           0       -2.623961    2.408095   -0.994717
      8          1           0       -2.651589    3.311152    1.354837
      9          1           0       -4.402157    3.059776    1.427102
     10          1           0       -3.724711    4.250592    0.303566
     11          6           0       -3.113313   -0.315478   -0.768928
     12          6           0       -2.889117   -1.705049   -0.171589
     13          6           0       -2.776525   -2.795534   -1.237402
     14          1           0       -4.027289   -0.329247   -1.378726
     15          1           0       -2.285696   -0.078911   -1.451592
     16          1           0       -3.717266   -1.938256    0.509880
     17          1           0       -1.976588   -1.688301    0.438023
     18          1           0       -1.939070   -2.589937   -1.911939
     19          1           0       -3.689638   -2.841313   -1.839673
     20          1           0       -2.616516   -3.780754   -0.788403
     21          6           0        3.600878    0.395368    0.274695
     22          6           0        4.575424    0.524902   -0.896402
     23          6           0        5.429210    1.790862   -0.817724
     24          1           0        2.948079    1.278644    0.299622
     25          1           0        4.167416    0.398736    1.216193
     26          1           0        4.007326    0.519899   -1.835473
     27          1           0        5.225852   -0.358876   -0.918660
     28          1           0        6.020923    1.799831    0.103359
     29          1           0        4.795473    2.683599   -0.818664
     30          1           0        6.118694    1.863371   -1.664610
     31          6           0        2.740348   -0.865207    0.210142
     32          6           0        1.765803   -0.994741    1.381239
     33          6           0        0.912018   -2.260701    1.302561
     34          1           0        2.173812   -0.868575   -0.731357
     35          1           0        3.393147   -1.748483    0.185215
     36          1           0        1.115375   -0.110963    1.403496
     37          1           0        2.333901   -0.989738    2.320310
     38          1           0        1.545753   -3.153438    1.303500
     39          1           0        0.320304   -2.269670    0.381477
     40          1           0        0.222533   -2.333210    2.149446
 ---------------------------------------------------------------------

 SCF Done:  E(RHF) =  -470.733065999     A.U. after   11 cycles
 E2 =    -0.1582988234D+01 EUMP2 =    -0.47231605423259D+03

 The electronic state is 1-A.
 Alpha  occ. eigenvalues --  -11.21674 -11.21638 -11.21612 -11.21503 -11.21459
 Alpha  occ. eigenvalues --  -11.21401 -11.21398 -11.21339 -11.21114 -11.21100
 Alpha  occ. eigenvalues --  -11.21082 -11.21052  -1.08487  -1.08417  -1.03597
 Alpha  occ. eigenvalues --   -1.03503  -0.96044  -0.95962  -0.87057  -0.86981
 Alpha  occ. eigenvalues --   -0.79686  -0.79540  -0.78299  -0.78228  -0.65206
 Alpha  occ. eigenvalues --   -0.64985  -0.61170  -0.60758  -0.59416  -0.59319
 Alpha  occ. eigenvalues --   -0.57643  -0.57578  -0.55423  -0.55166  -0.52736
 Alpha  occ. eigenvalues --   -0.52654  -0.52449  -0.52394  -0.50063  -0.49855
 Alpha  occ. eigenvalues --   -0.47975  -0.47878  -0.46816  -0.46455  -0.45870
 Alpha  occ. eigenvalues --   -0.45777  -0.45749  -0.45604  -0.43832  -0.43766
 Alpha virt. eigenvalues --    0.20599   0.23255   0.23675   0.24515   0.26188
 Alpha virt. eigenvalues --    0.26805   0.27118   0.27452   0.28141   0.28955
 Alpha virt. eigenvalues --    0.31048   0.31440   0.31691   0.31818   0.32205

 Mulliken charges:
               1
     1  C   -0.298570
     2  C   -0.299582
     3  C   -0.475686
     4  H    0.149862
     5  H    0.149261
     6  H    0.152081
     7  H    0.151571
     8  H    0.155027
     9  H    0.155295
    10  H    0.160259
    11  C   -0.297705
    12  C   -0.308128
    13  C   -0.475762
    14  H    0.149478
    15  H    0.148485
    16  H    0.151613
    17  H    0.161397
    18  H    0.154072
    19  H    0.155184
    20  H    0.160881
    21  C   -0.298332
    22  C   -0.299696
    23  C   -0.475741
    24  H    0.149494
    25  H    0.149740
    26  H    0.151897
    27  H    0.152088
    28  H    0.155274
    29  H    0.155199
    30  H    0.160401
    31  C   -0.298411
    32  C   -0.300563
    33  C   -0.480467
    34  H    0.149326
    35  H    0.150060
    36  H    0.151458
    37  H    0.152561
    38  H    0.155926
    39  H    0.159892
    40  H    0.160859
 Sum of Mulliken charges =  -0.00000

 Dipole moment (field-independent basis, Debye):
    X=              0.0288    Y=             -0.0216    Z=              0.0207  Tot=              0.0415
 Quadrupole moment (field-independent basis, Debye-Ang):
   XX=            -83.7140   YY=            -86.0385   ZZ=            -84.9577
   XY=             -0.7428   XZ=              0.4318   YZ=             -0.8396

 Normal termination of Gaussian 16 at Wed May  5 23:15:15 2021.
