 Gaussian 16, Revision A.03,
 Gaussian 16:  EM64L-G16RevA.03 25-Dec-2016

 -------------
 #p 6-31g* mp2
 -------------

 ------------------------------------------------------
 Input file generated by CHIRIPA (05-May-2021 14:53:17)
 ------------------------------------------------------
 Symbolic Z-matrix:
 Charge =  0 Multiplicity = 1

                         Standard orientation:
 ---------------------------------------------------------------------
 Center     Atomic      Atomic             Coordinates (Angstroms)
 Number     Number       Type             X           Y           Z
 ---------------------------------------------------------------------
      1          6           0       -3.413271   -0.612487   -0.174498
      2          6           0       -2.470242   -1.688601   -0.713627
      3          6           0       -3.110173   -3.077008   -0.738275
      4          1           0       -3.732762   -0.888594    0.839719
      5          1           0       -4.321526   -0.587701   -0.792440
      6          1           0       -1.563437   -1.710404   -0.095690
      7          1           0       -2.152807   -1.409804   -1.726604
      8          1           0       -4.003963   -3.078068   -1.370526
      9          1           0       -3.411244   -3.380377    0.269656
     10          1           0       -2.418643   -3.830952   -1.127139
     11          6           0       -2.787856    0.780938   -0.143679
     12          6           0       -3.730884    1.857053    0.395450
     13          6           0       -3.090953    3.245460    0.420099
     14          1           0       -1.879600    0.756153    0.474264
     15          1           0       -2.468364    1.057046   -1.157895
     16          1           0       -4.048319    1.578256    1.408428
     17          1           0       -4.637689    1.878856   -0.222487
     18          1           0       -2.789882    3.548828   -0.587832
     19          1           0       -2.197163    3.246520    1.052349
     20          1           0       -3.782483    3.999404    0.808962
     21          6           0        3.303409    0.686178   -2.117168
     22          6           0        4.120309    0.757980   -0.984013
     23          6           0        3.642626    0.344099    0.263010
     24          6           0        2.337135   -0.138500    0.340984
     25          6           0        1.498890   -0.222320   -0.769697
     26          6           0        1.997608    0.197119   -2.006589
     27          1           0        3.682655    1.009851   -3.081950
     28          1           0        5.134826    1.137359   -1.066914
     29          1           0        4.253562    0.388849    1.156415
     30          1           0        0.491946   -0.605048   -0.655678
     31          1           0        1.360941    0.140221   -2.884917
     32          7           0        1.820298   -0.579600    1.655787
     33          8           0        0.666463   -1.000933    1.697989
     34          8           0        2.578822   -0.495649    2.619234
 ---------------------------------------------------------------------

 SCF Done:  E(RHF) =  -669.536270622     A.U. after   15 cycles
 E2 =    -0.2092666529D+01 EUMP2 =    -0.67162893715117D+03

 The electronic state is 1-A.
 Alpha  occ. eigenvalues --  -20.60924 -20.60911 -15.85947 -11.31194 -11.27774
 Alpha  occ. eigenvalues --  -11.27699 -11.27505 -11.26770 -11.26743 -11.21468
 Alpha  occ. eigenvalues --  -11.21409 -11.21206 -11.21138 -11.20919 -11.20887
 Alpha  occ. eigenvalues --   -1.59978  -1.39537  -1.19368  -1.08790  -1.08248
 Alpha  occ. eigenvalues --   -1.04754  -1.03361  -0.95797  -0.95640  -0.86820
 Alpha  occ. eigenvalues --   -0.86164  -0.82475  -0.79463  -0.78162  -0.77474
 Alpha  occ. eigenvalues --   -0.72175  -0.71286  -0.70483  -0.65053  -0.64885
 Alpha  occ. eigenvalues --   -0.64702  -0.62116  -0.60731  -0.59176  -0.57428
 Alpha  occ. eigenvalues --   -0.55276  -0.55064  -0.53094  -0.52883  -0.52486
 Alpha  occ. eigenvalues --   -0.52233  -0.49731  -0.48961  -0.48916  -0.47757
 Alpha  occ. eigenvalues --   -0.46443  -0.45631  -0.45469  -0.44926  -0.43607
 Alpha  occ. eigenvalues --   -0.37355  -0.36349
 Alpha virt. eigenvalues --    0.04965   0.11269   0.16481   0.20793   0.23227
 Alpha virt. eigenvalues --    0.24376   0.25574   0.26397   0.27904   0.28116
 Alpha virt. eigenvalues --    0.29727   0.30832   0.31612   0.31769   0.32146

 Mulliken charges:
               1
     1  C   -0.295066
     2  C   -0.319418
     3  C   -0.473600
     4  H    0.155569
     5  H    0.147189
     6  H    0.175768
     7  H    0.139718
     8  H    0.153173
     9  H    0.160289
    10  H    0.158746
    11  C   -0.305542
    12  C   -0.299278
    13  C   -0.476026
    14  H    0.161209
    15  H    0.140744
    16  H    0.155591
    17  H    0.150330
    18  H    0.151724
    19  H    0.157619
    20  H    0.160156
    21  C   -0.169979
    22  C   -0.219347
    23  C   -0.169737
    24  C    0.153932
    25  C   -0.174524
    26  C   -0.223492
    27  H    0.225650
    28  H    0.223396
    29  H    0.275366
    30  H    0.291125
    31  H    0.224285
    32  N    0.490650
    33  O   -0.467410
    34  O   -0.458811
 Sum of Mulliken charges =  -0.00000

 Dipole moment (field-independent basis, Debye):
    X=              1.8555    Y=              1.5038    Z=             -4.4279  Tot=              5.0310
 Quadrupole moment (field-independent basis, Debye-Ang):
   XX=            -82.4848   YY=            -96.8800   ZZ=            -96.7729
   XY=              4.4226   XZ=             -8.5040   YZ=              1.3210

 Normal termination of Gaussian 16 at Thu May  6 20:30:17 2021.
