 Gaussian 16, Revision A.03,
 Gaussian 16:  EM64L-G16RevA.03 25-Dec-2016

 -------------
 #p 6-31g* mp2
 -------------

 ------------------------------------------------------
 Input file generated by CHIRIPA (05-May-2021 14:51:08)
 ------------------------------------------------------
 Symbolic Z-matrix:
 Charge =  0 Multiplicity = 1

                         Standard orientation:
 ---------------------------------------------------------------------
 Center     Atomic      Atomic             Coordinates (Angstroms)
 Number     Number       Type             X           Y           Z
 ---------------------------------------------------------------------
      1          6           0       -3.826757    0.077936   -0.109144
      2          6           0       -4.140215    1.574162   -0.141339
      3          6           0       -5.417694    1.893933   -0.918248
      4          1           0       -3.733811   -0.292987   -1.139057
      5          1           0       -4.674301   -0.457559    0.340644
      6          1           0       -3.291752    2.106823   -0.589669
      7          1           0       -4.232235    1.941606    0.888774
      8          1           0       -6.278603    1.388492   -0.468842
      9          1           0       -5.332776    1.554648   -1.955685
     10          1           0       -5.622812    2.968958   -0.928595
     11          6           0       -2.552574   -0.257591    0.663908
     12          6           0       -2.239116   -1.753817    0.696103
     13          6           0       -0.961637   -2.073588    1.473012
     14          1           0       -1.705030    0.277904    0.214119
     15          1           0       -2.645519    0.113332    1.693821
     16          1           0       -2.147095   -2.121261   -0.334010
     17          1           0       -3.087578   -2.286478    1.144433
     18          1           0       -1.046554   -1.734303    2.510449
     19          1           0       -0.100728   -1.568147    1.023606
     20          1           0       -0.756519   -3.148614    1.483359
     21          6           0        3.685692    0.516287    0.116980
     22          6           0        3.496535    2.018665   -0.095307
     23          6           0        4.496249    2.858591    0.700236
     24          1           0        3.588277    0.288535    1.187300
     25          1           0        4.709426    0.238554   -0.169774
     26          1           0        2.473029    2.293242    0.190455
     27          1           0        3.594221    2.242840   -1.165269
     28          1           0        5.522853    2.613378    0.409453
     29          1           0        4.395292    2.664065    1.772882
     30          1           0        4.343070    3.929422    0.533745
     31          6           0        2.693639   -0.336632   -0.671745
     32          6           0        2.882796   -1.839010   -0.459456
     33          6           0        1.883082   -2.678936   -1.255000
     34          1           0        1.669905   -0.058899   -0.384990
     35          1           0        2.791053   -0.108879   -1.742064
     36          1           0        2.785110   -2.063185    0.610505
     37          1           0        3.906301   -2.113587   -0.745219
     38          1           0        1.984039   -2.484411   -2.327645
     39          1           0        0.856476   -2.433722   -0.964217
     40          1           0        2.036260   -3.749766   -1.088510
 ---------------------------------------------------------------------

 SCF Done:  E(RHF) =  -470.732890894     A.U. after   11 cycles
 E2 =    -0.1583463938D+01 EUMP2 =    -0.47231635483156D+03

 The electronic state is 1-A.
 Alpha  occ. eigenvalues --  -11.21654 -11.21620 -11.21609 -11.21588 -11.21446
 Alpha  occ. eigenvalues --  -11.21429 -11.21382 -11.21364 -11.21099 -11.21083
 Alpha  occ. eigenvalues --  -11.21073 -11.21002  -1.08478  -1.08432  -1.03600
 Alpha  occ. eigenvalues --   -1.03496  -0.96056  -0.95937  -0.87059  -0.86967
 Alpha  occ. eigenvalues --   -0.79642  -0.79576  -0.78293  -0.78244  -0.65245
 Alpha  occ. eigenvalues --   -0.64966  -0.61262  -0.60673  -0.59396  -0.59329
 Alpha  occ. eigenvalues --   -0.57620  -0.57588  -0.55550  -0.55016  -0.52710
 Alpha  occ. eigenvalues --   -0.52657  -0.52438  -0.52388  -0.50071  -0.49795
 Alpha  occ. eigenvalues --   -0.48011  -0.47836  -0.46737  -0.46553  -0.45919
 Alpha  occ. eigenvalues --   -0.45781  -0.45760  -0.45555  -0.43819  -0.43784
 Alpha virt. eigenvalues --    0.19940   0.23059   0.23655   0.24941   0.25529
 Alpha virt. eigenvalues --    0.26714   0.26923   0.27902   0.28356   0.29306
 Alpha virt. eigenvalues --    0.30702   0.31270   0.31508   0.31808   0.31921

 Mulliken charges:
               1
     1  C   -0.298354
     2  C   -0.299744
     3  C   -0.475743
     4  H    0.149988
     5  H    0.149702
     6  H    0.152073
     7  H    0.151903
     8  H    0.155203
     9  H    0.155313
    10  H    0.160330
    11  C   -0.298754
    12  C   -0.301843
    13  C   -0.482172
    14  H    0.149238
    15  H    0.149817
    16  H    0.153103
    17  H    0.152647
    18  H    0.155499
    19  H    0.160656
    20  H    0.161411
    21  C   -0.298140
    22  C   -0.299739
    23  C   -0.475728
    24  H    0.150110
    25  H    0.149727
    26  H    0.151941
    27  H    0.151834
    28  H    0.155192
    29  H    0.155348
    30  H    0.160266
    31  C   -0.301595
    32  C   -0.300695
    33  C   -0.480307
    34  H    0.150193
    35  H    0.149920
    36  H    0.153239
    37  H    0.152411
    38  H    0.154332
    39  H    0.161374
    40  H    0.160044
 Sum of Mulliken charges =  -0.00000

 Dipole moment (field-independent basis, Debye):
    X=             -0.0134    Y=             -0.0069    Z=              0.0124  Tot=              0.0195
 Quadrupole moment (field-independent basis, Debye-Ang):
   XX=            -85.2242   YY=            -85.4707   ZZ=            -83.9834
   XY=             -0.0729   XZ=             -1.7622   YZ=             -0.2725

 Normal termination of Gaussian 16 at Wed May  5 15:05:42 2021.
