 Gaussian 16, Revision A.03,
 Gaussian 16:  EM64L-G16RevA.03 25-Dec-2016

 -------------
 #p 6-31g* mp2
 -------------

 ------------------------------------------------------
 Input file generated by CHIRIPA (05-May-2021 14:53:13)
 ------------------------------------------------------
 Symbolic Z-matrix:
 Charge =  0 Multiplicity = 1

                         Standard orientation:
 ---------------------------------------------------------------------
 Center     Atomic      Atomic             Coordinates (Angstroms)
 Number     Number       Type             X           Y           Z
 ---------------------------------------------------------------------
      1          6           0       -3.080794   -0.435014    0.180218
      2          6           0       -4.008397   -1.600342   -0.165539
      3          6           0       -3.911456   -2.750642    0.837061
      4          1           0       -2.045253   -0.799337    0.223441
      5          1           0       -3.324989   -0.067183    1.186431
      6          1           0       -3.763444   -1.964969   -1.171353
      7          1           0       -5.041829   -1.233164   -0.208132
      8          1           0       -4.176238   -2.408461    1.842746
      9          1           0       -2.890589   -3.144424    0.874053
     10          1           0       -4.582832   -3.572956    0.570763
     11          6           0       -3.166358    0.722646   -0.812873
     12          6           0       -2.238755    1.887974   -0.467116
     13          6           0       -2.335697    3.038275   -1.469716
     14          1           0       -2.922164    0.354815   -1.819086
     15          1           0       -4.201900    1.086969   -0.856097
     16          1           0       -1.205323    1.520796   -0.424523
     17          1           0       -2.483708    2.252601    0.538697
     18          1           0       -3.356563    3.432057   -1.506708
     19          1           0       -2.070915    2.696093   -2.475401
     20          1           0       -1.664321    3.860589   -1.203418
     21          6           0        1.132852    1.345513    1.838086
     22          6           0        0.619082    0.106601    1.441024
     23          6           0        1.334831   -0.709452    0.559940
     24          6           0        2.566692   -0.253298    0.093324
     25          6           0        3.105212    0.975972    0.470397
     26          6           0        2.372092    1.775487    1.352360
     27          1           0        0.570095    1.973020    2.522874
     28          1           0       -0.343066   -0.229890    1.816643
     29          1           0        0.960592   -1.673068    0.236201
     30          1           0        4.067081    1.284346    0.079080
     31          1           0        2.773556    2.737172    1.659009
     32          7           0        3.333618   -1.108463   -0.839907
     33          8           0        4.416566   -0.683748   -1.236743
     34          8           0        2.837266   -2.187262   -1.156865
 ---------------------------------------------------------------------

 SCF Done:  E(RHF) =  -669.534706094     A.U. after   15 cycles
 E2 =    -0.2093535907D+01 EUMP2 =    -0.67162824200059D+03

 The electronic state is 1-A.
 Alpha  occ. eigenvalues --  -20.60794 -20.60789 -15.85847 -11.31222 -11.27776
 Alpha  occ. eigenvalues --  -11.27772 -11.27495 -11.26799 -11.26728 -11.22200
 Alpha  occ. eigenvalues --  -11.22137 -11.22054 -11.21911 -11.21632 -11.21476
 Alpha  occ. eigenvalues --   -1.59869  -1.39422  -1.19392  -1.09050  -1.08771
 Alpha  occ. eigenvalues --   -1.04795  -1.04060  -0.96528  -0.95612  -0.87538
 Alpha  occ. eigenvalues --   -0.86186  -0.82453  -0.80140  -0.78929  -0.77474
 Alpha  occ. eigenvalues --   -0.72064  -0.71192  -0.70482  -0.65699  -0.65033
 Alpha  occ. eigenvalues --   -0.64768  -0.62146  -0.61449  -0.59900  -0.58147
 Alpha  occ. eigenvalues --   -0.55816  -0.55273  -0.53289  -0.53109  -0.53004
 Alpha  occ. eigenvalues --   -0.52781  -0.50459  -0.48826  -0.48820  -0.48452
 Alpha  occ. eigenvalues --   -0.47165  -0.46386  -0.46327  -0.44826  -0.44344
 Alpha  occ. eigenvalues --   -0.37323  -0.36333
 Alpha virt. eigenvalues --    0.05005   0.11222   0.16393   0.20359   0.22747
 Alpha virt. eigenvalues --    0.23549   0.25459   0.25811   0.27410   0.28387
 Alpha virt. eigenvalues --    0.29370   0.30437   0.31103   0.31298   0.31647

 Mulliken charges:
               1
     1  C   -0.302647
     2  C   -0.299779
     3  C   -0.476368
     4  H    0.144635
     5  H    0.145310
     6  H    0.156220
     7  H    0.154353
     8  H    0.153965
     9  H    0.152774
    10  H    0.164490
    11  C   -0.297541
    12  C   -0.307637
    13  C   -0.475251
    14  H    0.153762
    15  H    0.151281
    16  H    0.161668
    17  H    0.144036
    18  H    0.155483
    19  H    0.158431
    20  H    0.159034
    21  C   -0.170675
    22  C   -0.218992
    23  C   -0.174209
    24  C    0.158760
    25  C   -0.171260
    26  C   -0.218498
    27  H    0.226467
    28  H    0.230494
    29  H    0.275053
    30  H    0.275690
    31  H    0.223614
    32  N    0.488134
    33  O   -0.460262
    34  O   -0.460536
 Sum of Mulliken charges =  -0.00000

 Dipole moment (field-independent basis, Debye):
    X=             -2.7547    Y=              3.0036    Z=              3.2158  Tot=              5.1915
 Quadrupole moment (field-independent basis, Debye-Ang):
   XX=           -105.5332   YY=            -94.8922   ZZ=            -94.8591
   XY=             11.3205   XZ=              8.0175   YZ=              0.1874

 Normal termination of Gaussian 16 at Thu May  6 21:53:51 2021.
