 Gaussian 16, Revision A.03,
 Gaussian 16:  EM64L-G16RevA.03 25-Dec-2016

 -------------
 #p 6-31g* mp2
 -------------

 ------------------------------------------------------
 Input file generated by CHIRIPA (05-May-2021 14:51:10)
 ------------------------------------------------------
 Symbolic Z-matrix:
 Charge =  0 Multiplicity = 1

                         Standard orientation:
 ---------------------------------------------------------------------
 Center     Atomic      Atomic             Coordinates (Angstroms)
 Number     Number       Type             X           Y           Z
 ---------------------------------------------------------------------
      1          6           0        2.759811    0.353029    0.126988
      2          6           0        3.889315    0.655013   -0.858410
      3          6           0        4.174173    2.151400   -0.990606
      4          1           0        1.848862    0.873798   -0.198461
      5          1           0        3.021131    0.765832    1.111215
      6          1           0        3.626561    0.240558   -1.840145
      7          1           0        4.797631    0.133311   -0.530682
      8          1           0        4.461300    2.575840   -0.023130
      9          1           0        3.283576    2.683696   -1.340033
     10          1           0        4.984991    2.344599   -1.699909
     11          6           0        2.463296   -1.138734    0.269989
     12          6           0        1.333792   -1.440718    1.255387
     13          6           0        1.048934   -2.937105    1.387583
     14          1           0        2.201976   -1.551536   -0.714238
     15          1           0        3.374245   -1.659502    0.595438
     16          1           0        0.425476   -0.919016    0.927659
     17          1           0        1.596546   -1.026262    2.237122
     18          1           0        1.939531   -3.469401    1.737010
     19          1           0        0.761807   -3.361545    0.420107
     20          1           0        0.238116   -3.130303    2.096886
     21          6           0       -2.224460    0.979668    0.100239
     22          6           0       -3.090251    2.216318    0.343317
     23          6           0       -2.301640    3.381839    0.941187
     24          1           0       -1.768256    0.666951    1.049466
     25          1           0       -1.396758    1.246402   -0.571444
     26          1           0       -3.916862    1.946994    1.013239
     27          1           0       -3.544599    2.526013   -0.606563
     28          1           0       -1.486797    3.678652    0.272955
     29          1           0       -1.861176    3.096343    1.901960
     30          1           0       -2.939870    4.255398    1.106773
     31          6           0       -2.998648   -0.193964   -0.497215
     32          6           0       -2.132856   -1.430613   -0.740295
     33          6           0       -2.921466   -2.596135   -1.338164
     34          1           0       -3.826349   -0.460698    0.174468
     35          1           0       -3.454850    0.118752   -1.446442
     36          1           0       -1.678508   -1.740308    0.209586
     37          1           0       -1.306244   -1.161290   -1.410215
     38          1           0       -3.361930   -2.310639   -2.298937
     39          1           0       -3.736310   -2.892947   -0.669932
     40          1           0       -2.283237   -3.469692   -1.503750
 ---------------------------------------------------------------------

 SCF Done:  E(RHF) =  -470.732761915     A.U. after   11 cycles
 E2 =    -0.1584340683D+01 EUMP2 =    -0.47231710259761D+03

 The electronic state is 1-A.
 Alpha  occ. eigenvalues --  -11.21648 -11.21624 -11.21577 -11.21468 -11.21463
 Alpha  occ. eigenvalues --  -11.21406 -11.21353 -11.21292 -11.21104 -11.21095
 Alpha  occ. eigenvalues --  -11.21056 -11.21038  -1.08505  -1.08364  -1.03596
 Alpha  occ. eigenvalues --   -1.03464  -0.96025  -0.95941  -0.87038  -0.86958
 Alpha  occ. eigenvalues --   -0.79674  -0.79537  -0.78415  -0.78091  -0.65165
 Alpha  occ. eigenvalues --   -0.64981  -0.61077  -0.60820  -0.59399  -0.59279
 Alpha  occ. eigenvalues --   -0.57639  -0.57554  -0.55318  -0.55220  -0.52720
 Alpha  occ. eigenvalues --   -0.52634  -0.52449  -0.52363  -0.49977  -0.49868
 Alpha  occ. eigenvalues --   -0.48031  -0.47835  -0.46775  -0.46622  -0.46124
 Alpha  occ. eigenvalues --   -0.45755  -0.45693  -0.45158  -0.43828  -0.43735
 Alpha virt. eigenvalues --    0.20795   0.22842   0.23349   0.24458   0.25305
 Alpha virt. eigenvalues --    0.25937   0.26737   0.27707   0.28653   0.30098
 Alpha virt. eigenvalues --    0.30391   0.31408   0.31549   0.31837   0.32338

 Mulliken charges:
               1
     1  C   -0.299437
     2  C   -0.299615
     3  C   -0.475549
     4  H    0.150624
     5  H    0.149481
     6  H    0.151583
     7  H    0.151947
     8  H    0.155293
     9  H    0.154794
    10  H    0.160124
    11  C   -0.297661
    12  C   -0.309337
    13  C   -0.476573
    14  H    0.149108
    15  H    0.149238
    16  H    0.163342
    17  H    0.150697
    18  H    0.155300
    19  H    0.156120
    20  H    0.158733
    21  C   -0.302112
    22  C   -0.299600
    23  C   -0.475722
    24  H    0.152431
    25  H    0.149549
    26  H    0.152178
    27  H    0.152108
    28  H    0.155127
    29  H    0.155625
    30  H    0.160413
    31  C   -0.298037
    32  C   -0.306116
    33  C   -0.475335
    34  H    0.149657
    35  H    0.149685
    36  H    0.160236
    37  H    0.150913
    38  H    0.155070
    39  H    0.155366
    40  H    0.160352
 Sum of Mulliken charges =  -0.00000

 Dipole moment (field-independent basis, Debye):
    X=             -0.0514    Y=              0.0095    Z=              0.0074  Tot=              0.0528
 Quadrupole moment (field-independent basis, Debye-Ang):
   XX=            -84.5925   YY=            -86.6636   ZZ=            -83.5930
   XY=             -0.6889   XZ=              0.1435   YZ=             -0.5143

 Normal termination of Gaussian 16 at Wed May  5 18:13:10 2021.
