 Gaussian 16, Revision A.03,
 Gaussian 16:  EM64L-G16RevA.03 25-Dec-2016

 -------------
 #p 6-31g* mp2
 -------------

 ------------------------------------------------------
 Input file generated by CHIRIPA (05-May-2021 14:57:25)
 ------------------------------------------------------
 Symbolic Z-matrix:
 Charge =  0 Multiplicity = 1

                         Standard orientation:
 ---------------------------------------------------------------------
 Center     Atomic      Atomic             Coordinates (Angstroms)
 Number     Number       Type             X           Y           Z
 ---------------------------------------------------------------------
      1          6           0        0.462818   -1.937498    1.457014
      2          6           0        1.012104   -2.421557    0.265169
      3          6           0        1.993073   -1.691493   -0.412514
      4          6           0        2.403262   -0.475769    0.132508
      5          6           0        1.875137    0.033128    1.318003
      6          6           0        0.895325   -0.713858    1.978707
      7          1           0       -0.298773   -2.511202    1.976859
      8          1           0        0.678131   -3.371536   -0.142319
      9          1           0        2.435203   -2.042750   -1.336937
     10          1           0        2.228259    0.983445    1.699604
     11          1           0        0.470512   -0.335470    2.904127
     12          7           0        3.441157    0.306074   -0.575937
     13          8           0        3.785478    1.374317   -0.074999
     14          8           0        3.890686   -0.164164   -1.618740
     15          6           0       -0.489484    2.367949    0.219287
     16          6           0       -1.429451    2.034710    1.200070
     17          6           0       -2.399590    1.059225    0.951457
     18          6           0       -2.400684    0.434154   -0.294567
     19          6           0       -1.477605    0.744182   -1.292113
     20          6           0       -0.516514    1.722758   -1.021487
     21          1           0        0.260628    3.126930    0.420967
     22          1           0       -1.410850    2.534131    2.164579
     23          1           0       -3.139135    0.781843    1.692774
     24          1           0       -1.521327    0.229037   -2.244023
     25          1           0        0.212234    1.979522   -1.785060
     26          7           0       -3.422937   -0.600185   -0.569415
     27          8           0       -3.402643   -1.136269   -1.675235
     28          8           0       -4.225116   -0.855230    0.326184
 ---------------------------------------------------------------------

 SCF Done:  E(RHF) =  -868.337284405     A.U. after   16 cycles
 E2 =    -0.2604998461D+01 EUMP2 =    -0.87094228286655D+03

 The electronic state is 1-A.
 Alpha  occ. eigenvalues --  -20.61343 -20.61316 -20.61234 -20.61218 -15.86371
 Alpha  occ. eigenvalues --  -15.86277 -11.31536 -11.31486 -11.28140 -11.28108
 Alpha  occ. eigenvalues --  -11.28070 -11.28007 -11.27750 -11.27706 -11.27097
 Alpha  occ. eigenvalues --  -11.27042 -11.26986 -11.26949  -1.60418  -1.60311
 Alpha  occ. eigenvalues --   -1.39976  -1.39866  -1.19764  -1.19591  -1.09115
 Alpha  occ. eigenvalues --   -1.09083  -1.05111  -1.05017  -0.96007  -0.95919
 Alpha  occ. eigenvalues --   -0.86505  -0.86438  -0.82810  -0.82797  -0.77913
 Alpha  occ. eigenvalues --   -0.77855  -0.72592  -0.72495  -0.71759  -0.71639
 Alpha  occ. eigenvalues --   -0.70864  -0.70690  -0.65362  -0.65302  -0.65093
 Alpha  occ. eigenvalues --   -0.65037  -0.62458  -0.62398  -0.55583  -0.55490
 Alpha  occ. eigenvalues --   -0.54425  -0.53184  -0.53126  -0.52358  -0.49367
 Alpha  occ. eigenvalues --   -0.49324  -0.49259  -0.49243  -0.45433  -0.45297
 Alpha  occ. eigenvalues --   -0.38419  -0.37721  -0.36421  -0.35938
 Alpha virt. eigenvalues --    0.04413   0.04757   0.10770   0.11128   0.16208
 Alpha virt. eigenvalues --    0.16245   0.20408   0.21759   0.26431   0.26874
 Alpha virt. eigenvalues --    0.27815   0.28795   0.30022   0.31282   0.32238

 Mulliken charges:
               1
     1  C   -0.172504
     2  C   -0.218341
     3  C   -0.173793
     4  C    0.158440
     5  C   -0.169143
     6  C   -0.210019
     7  H    0.230671
     8  H    0.228547
     9  H    0.275611
    10  H    0.267947
    11  H    0.219351
    12  N    0.486157
    13  O   -0.465962
    14  O   -0.459119
    15  C   -0.171934
    16  C   -0.221489
    17  C   -0.173761
    18  C    0.159877
    19  C   -0.168695
    20  C   -0.219092
    21  H    0.232158
    22  H    0.220597
    23  H    0.272852
    24  H    0.276368
    25  H    0.231218
    26  N    0.486921
    27  O   -0.459934
    28  O   -0.462930
 Sum of Mulliken charges =  -0.00000

 Dipole moment (field-independent basis, Debye):
    X=             -0.0819    Y=              0.8152    Z=              3.3576  Tot=              3.4561
 Quadrupole moment (field-independent basis, Debye-Ang):
   XX=           -141.3564   YY=            -97.0516   ZZ=            -98.4847
   XY=            -12.6385   XZ=             -0.0029   YZ=              1.0713

 Normal termination of Gaussian 16 at Wed May  5 16:29:13 2021.
