 Gaussian 16, Revision A.03,
 Gaussian 16:  EM64L-G16RevA.03 25-Dec-2016

 -------------
 #p 6-31g* mp2
 -------------

 ------------------------------------------------------
 Input file generated by CHIRIPA (05-May-2021 14:51:08)
 ------------------------------------------------------
 Symbolic Z-matrix:
 Charge =  0 Multiplicity = 1

                         Standard orientation:
 ---------------------------------------------------------------------
 Center     Atomic      Atomic             Coordinates (Angstroms)
 Number     Number       Type             X           Y           Z
 ---------------------------------------------------------------------
      1          6           0       -3.595792   -0.095139   -0.361096
      2          6           0       -5.095451    0.001693   -0.078905
      3          6           0       -5.901660    0.427445   -1.306323
      4          1           0       -3.233187    0.877692   -0.720348
      5          1           0       -3.428857   -0.811721   -1.177208
      6          1           0       -5.259398    0.716843    0.737366
      7          1           0       -5.454490   -0.971429    0.279900
      8          1           0       -5.767615   -0.289380   -2.122898
      9          1           0       -5.571414    1.408485   -1.662833
     10          1           0       -6.971087    0.490293   -1.082189
     11          6           0       -2.776438   -0.519704    0.856333
     12          6           0       -1.276779   -0.616536    0.574142
     13          6           0       -0.470570   -1.042289    1.801560
     14          1           0       -2.943373    0.196877    1.672445
     15          1           0       -3.139043   -1.492536    1.215585
     16          1           0       -0.917740    0.356586    0.215337
     17          1           0       -1.112832   -1.331687   -0.242129
     18          1           0       -0.800816   -2.023329    2.158070
     19          1           0       -0.604615   -0.325464    2.618135
     20          1           0        0.598857   -1.105137    1.577426
     21          6           0        3.072016   -0.430100   -0.084908
     22          6           0        3.964839   -1.374057   -0.891009
     23          6           0        3.724891   -2.846084   -0.554326
     24          1           0        3.247334   -0.595870    0.986879
     25          1           0        2.019274   -0.683157   -0.272236
     26          1           0        5.015560   -1.118399   -0.703289
     27          1           0        3.787514   -1.205886   -1.961004
     28          1           0        2.685789   -3.123630   -0.758866
     29          1           0        3.920813   -3.035645    0.505995
     30          1           0        4.373529   -3.503216   -1.141953
     31          6           0        3.300214    1.044944   -0.410328
     32          6           0        2.407391    1.988901    0.395772
     33          6           0        2.647339    3.460928    0.059089
     34          1           0        4.352956    1.298001   -0.223001
     35          1           0        3.124895    1.210714   -1.482116
     36          1           0        2.584715    1.820730    1.465767
     37          1           0        1.356669    1.733243    0.208051
     38          1           0        2.451417    3.650489   -1.001233
     39          1           0        3.686441    3.738474    0.263629
     40          1           0        1.998701    4.118060    0.646715
 ---------------------------------------------------------------------

 SCF Done:  E(RHF) =  -470.732801718     A.U. after   11 cycles
 E2 =    -0.1583922066D+01 EUMP2 =    -0.47231672378321D+03

 The electronic state is 1-A.
 Alpha  occ. eigenvalues --  -11.21619 -11.21608 -11.21605 -11.21604 -11.21421
 Alpha  occ. eigenvalues --  -11.21407 -11.21361 -11.21347 -11.21089 -11.21088
 Alpha  occ. eigenvalues --  -11.21076 -11.20919  -1.08475  -1.08409  -1.03548
 Alpha  occ. eigenvalues --   -1.03514  -0.96023  -0.95932  -0.87035  -0.86952
 Alpha  occ. eigenvalues --   -0.79643  -0.79552  -0.78333  -0.78208  -0.65125
 Alpha  occ. eigenvalues --   -0.65029  -0.61016  -0.60844  -0.59392  -0.59334
 Alpha  occ. eigenvalues --   -0.57759  -0.57439  -0.55286  -0.55234  -0.52796
 Alpha  occ. eigenvalues --   -0.52640  -0.52473  -0.52248  -0.49952  -0.49883
 Alpha  occ. eigenvalues --   -0.48047  -0.47794  -0.46778  -0.46506  -0.45880
 Alpha  occ. eigenvalues --   -0.45786  -0.45728  -0.45531  -0.43814  -0.43717
 Alpha virt. eigenvalues --    0.20949   0.23144   0.23809   0.23993   0.25945
 Alpha virt. eigenvalues --    0.26410   0.26720   0.27732   0.27956   0.29699
 Alpha virt. eigenvalues --    0.29924   0.31278   0.31566   0.31815   0.31943

 Mulliken charges:
               1
     1  C   -0.298327
     2  C   -0.299644
     3  C   -0.475708
     4  H    0.149389
     5  H    0.149336
     6  H    0.151993
     7  H    0.152008
     8  H    0.155132
     9  H    0.155145
    10  H    0.160295
    11  C   -0.298168
    12  C   -0.303565
    13  C   -0.482753
    14  H    0.149767
    15  H    0.149893
    16  H    0.154404
    17  H    0.150674
    18  H    0.154251
    19  H    0.154545
    20  H    0.169291
    21  C   -0.305621
    22  C   -0.298905
    23  C   -0.476269
    24  H    0.150033
    25  H    0.157018
    26  H    0.151971
    27  H    0.151973
    28  H    0.155198
    29  H    0.155336
    30  H    0.160520
    31  C   -0.297420
    32  C   -0.305335
    33  C   -0.475531
    34  H    0.149555
    35  H    0.149561
    36  H    0.152333
    37  H    0.157102
    38  H    0.155108
    39  H    0.155333
    40  H    0.160080
 Sum of Mulliken charges =  -0.00000

 Dipole moment (field-independent basis, Debye):
    X=              0.0350    Y=              0.0014    Z=             -0.0070  Tot=              0.0358
 Quadrupole moment (field-independent basis, Debye-Ang):
   XX=            -84.7716   YY=            -85.1407   ZZ=            -84.8621
   XY=              0.2665   XZ=              0.0117   YZ=              0.7086

 Normal termination of Gaussian 16 at Wed May  5 19:40:38 2021.
