 Gaussian 16, Revision A.03,
 Gaussian 16:  EM64L-G16RevA.03 25-Dec-2016

 -------------
 #p 6-31g* mp2
 -------------

 ------------------------------------------------------
 Input file generated by CHIRIPA (05-May-2021 14:51:09)
 ------------------------------------------------------
 Symbolic Z-matrix:
 Charge =  0 Multiplicity = 1

                         Standard orientation:
 ---------------------------------------------------------------------
 Center     Atomic      Atomic             Coordinates (Angstroms)
 Number     Number       Type             X           Y           Z
 ---------------------------------------------------------------------
      1          6           0       -2.355697    0.844180    0.366656
      2          6           0       -2.770715    2.112211   -0.380232
      3          6           0       -2.398770    3.390096    0.372403
      4          1           0       -2.829237    0.838583    1.357956
      5          1           0       -1.270670    0.866864    0.538693
      6          1           0       -3.854431    2.086489   -0.552027
      7          1           0       -2.296285    2.114697   -1.369942
      8          1           0       -1.316795    3.442669    0.531048
      9          1           0       -2.883794    3.414302    1.353610
     10          1           0       -2.704605    4.284447   -0.179377
     11          6           0       -2.720762   -0.441570   -0.373142
     12          6           0       -2.305744   -1.709601    0.373747
     13          6           0       -2.677690   -2.987487   -0.378889
     14          1           0       -3.805789   -0.464255   -0.545178
     15          1           0       -2.247223   -0.435973   -1.364441
     16          1           0       -2.780174   -1.712087    1.363457
     17          1           0       -1.222028   -1.683880    0.545542
     18          1           0       -2.192665   -3.011692   -1.360095
     19          1           0       -3.759665   -3.040060   -0.537533
     20          1           0       -2.371855   -3.881837    0.172892
     21          6           0        2.588903    0.489415    0.325376
     22          6           0        3.021043    1.583717   -0.651221
     23          6           0        3.117862    2.959858    0.008063
     24          1           0        1.616670    0.758281    0.760602
     25          1           0        3.303808    0.448253    1.158810
     26          1           0        2.306300    1.621870   -1.483269
     27          1           0        3.992270    1.312121   -1.084316
     28          1           0        3.845406    2.944826    0.826020
     29          1           0        2.149857    3.256334    0.424800
     30          1           0        3.428277    3.727138   -0.708027
     31          6           0        2.487557   -0.892024   -0.318891
     32          6           0        2.055416   -1.986326    0.657706
     33          6           0        1.958597   -3.362467   -0.001577
     34          1           0        1.772651   -0.850862   -1.152325
     35          1           0        3.459789   -1.160891   -0.754116
     36          1           0        1.084189   -1.714731    1.090800
     37          1           0        2.770159   -2.024480    1.489754
     38          1           0        2.926601   -3.658945   -0.418314
     39          1           0        1.231053   -3.347436   -0.819535
     40          1           0        1.648182   -4.129748    0.714513
 ---------------------------------------------------------------------

 SCF Done:  E(RHF) =  -470.733367651     A.U. after   11 cycles
 E2 =    -0.1584004253D+01 EUMP2 =    -0.47231737190416D+03

 The electronic state is 1-A.
 Alpha  occ. eigenvalues --  -11.21657 -11.21654 -11.21629 -11.21625 -11.21468
 Alpha  occ. eigenvalues --  -11.21465 -11.21406 -11.21406 -11.21123 -11.21118
 Alpha  occ. eigenvalues --  -11.21098 -11.21097  -1.08512  -1.08460  -1.03608
 Alpha  occ. eigenvalues --   -1.03543  -0.96045  -0.96001  -0.87062  -0.87016
 Alpha  occ. eigenvalues --   -0.79707  -0.79574  -0.78379  -0.78223  -0.65360
 Alpha  occ. eigenvalues --   -0.64896  -0.61233  -0.60736  -0.59429  -0.59345
 Alpha  occ. eigenvalues --   -0.57678  -0.57589  -0.55461  -0.55158  -0.52731
 Alpha  occ. eigenvalues --   -0.52693  -0.52486  -0.52407  -0.50112  -0.49829
 Alpha  occ. eigenvalues --   -0.48109  -0.47843  -0.46933  -0.46408  -0.46219
 Alpha  occ. eigenvalues --   -0.45827  -0.45787  -0.45306  -0.43843  -0.43815
 Alpha virt. eigenvalues --    0.18877   0.21646   0.24004   0.24852   0.25711
 Alpha virt. eigenvalues --    0.26080   0.26598   0.27777   0.29029   0.29364
 Alpha virt. eigenvalues --    0.30768   0.31136   0.31450   0.31848   0.31989

 Mulliken charges:
               1
     1  C   -0.302066
     2  C   -0.299562
     3  C   -0.476018
     4  H    0.150141
     5  H    0.151513
     6  H    0.152370
     7  H    0.151900
     8  H    0.154798
     9  H    0.155490
    10  H    0.160696
    11  C   -0.297508
    12  C   -0.309245
    13  C   -0.475030
    14  H    0.149953
    15  H    0.149115
    16  H    0.152097
    17  H    0.160715
    18  H    0.154695
    19  H    0.155231
    20  H    0.160929
    21  C   -0.301946
    22  C   -0.299572
    23  C   -0.476091
    24  H    0.152040
    25  H    0.150152
    26  H    0.151667
    27  H    0.152294
    28  H    0.155538
    29  H    0.155052
    30  H    0.160629
    31  C   -0.298274
    32  C   -0.306219
    33  C   -0.476280
    34  H    0.148915
    35  H    0.150171
    36  H    0.157159
    37  H    0.152680
    38  H    0.155359
    39  H    0.156009
    40  H    0.160502
 Sum of Mulliken charges =  -0.00000

 Dipole moment (field-independent basis, Debye):
    X=              0.0031    Y=             -0.0100    Z=              0.0089  Tot=              0.0137
 Quadrupole moment (field-independent basis, Debye-Ang):
   XX=            -82.9011   YY=            -86.8267   ZZ=            -84.7979
   XY=             -0.5037   XZ=             -0.3396   YZ=             -0.8446

 Normal termination of Gaussian 16 at Wed May  5 21:21:01 2021.
