 Gaussian 16, Revision A.03,
 Gaussian 16:  EM64L-G16RevA.03 25-Dec-2016

 -------------
 #p 6-31g* mp2
 -------------

 ------------------------------------------------------
 Input file generated by CHIRIPA (05-May-2021 14:57:22)
 ------------------------------------------------------
 Symbolic Z-matrix:
 Charge =  0 Multiplicity = 1

                         Standard orientation:
 ---------------------------------------------------------------------
 Center     Atomic      Atomic             Coordinates (Angstroms)
 Number     Number       Type             X           Y           Z
 ---------------------------------------------------------------------
      1          6           0       -3.617844    1.870022    0.774651
      2          6           0       -3.797157    0.577875    1.279351
      3          6           0       -3.236821   -0.523723    0.625857
      4          6           0       -2.499730   -0.295724   -0.535178
      5          6           0       -2.303311    0.979535   -1.062838
      6          6           0       -2.872807    2.066382   -0.392775
      7          1           0       -4.056685    2.720040    1.288736
      8          1           0       -4.375282    0.422386    2.185795
      9          1           0       -3.359963   -1.534772    0.994684
     10          1           0       -1.721931    1.102996   -1.968472
     11          1           0       -2.731907    3.068758   -0.787027
     12          7           0       -1.901678   -1.454128   -1.235774
     13          8           0       -1.256586   -1.226635   -2.256920
     14          8           0       -2.089342   -2.567644   -0.750488
     15          6           0        4.536251    0.802730   -1.037394
     16          6           0        3.358087    1.556660   -1.031139
     17          6           0        2.277948    1.179340   -0.227723
     18          6           0        2.410942    0.037333    0.560579
     19          6           0        3.571642   -0.734563    0.576173
     20          6           0        4.639088   -0.338464   -0.235132
     21          1           0        5.370398    1.103135   -1.664570
     22          1           0        3.275399    2.443389   -1.653168
     23          1           0        1.354264    1.744711   -0.203626
     24          1           0        3.624310   -1.613617    1.206971
     25          1           0        5.552850   -0.925894   -0.237970
     26          7           0        1.274167   -0.372060    1.415295
     27          8           0        1.416459   -1.382291    2.100732
     28          8           0        0.262395    0.325042    1.383601
 ---------------------------------------------------------------------

 SCF Done:  E(RHF) =  -868.337984153     A.U. after   16 cycles
 E2 =    -0.2601107694D+01 EUMP2 =    -0.87093909184723D+03

 The electronic state is 1-A.
 Alpha  occ. eigenvalues --  -20.60708 -20.60681 -20.60000 -20.59950 -15.85721
 Alpha  occ. eigenvalues --  -15.85015 -11.30999 -11.30148 -11.27608 -11.27541
 Alpha  occ. eigenvalues --  -11.27307 -11.26846 -11.26690 -11.26596 -11.26549
 Alpha  occ. eigenvalues --  -11.26541 -11.25862 -11.25721  -1.59763  -1.59050
 Alpha  occ. eigenvalues --   -1.39321  -1.38613  -1.19166  -1.18328  -1.08583
 Alpha  occ. eigenvalues --   -1.07795  -1.04569  -1.03761  -0.95437  -0.94670
 Alpha  occ. eigenvalues --   -0.85975  -0.85191  -0.82281  -0.81538  -0.77338
 Alpha  occ. eigenvalues --   -0.76592  -0.71974  -0.71265  -0.71119  -0.70307
 Alpha  occ. eigenvalues --   -0.70282  -0.69550  -0.64836  -0.64591  -0.64051
 Alpha  occ. eigenvalues --   -0.63841  -0.61935  -0.61162  -0.55086  -0.54335
 Alpha  occ. eigenvalues --   -0.52883  -0.52679  -0.52003  -0.51920  -0.48738
 Alpha  occ. eigenvalues --   -0.48689  -0.48027  -0.47994  -0.44750  -0.44071
 Alpha  occ. eigenvalues --   -0.37142  -0.36227  -0.36152  -0.35298
 Alpha virt. eigenvalues --    0.05195   0.05963   0.11483   0.12335   0.16673
 Alpha virt. eigenvalues --    0.17513   0.21487   0.22236   0.27218   0.27969
 Alpha virt. eigenvalues --    0.28531   0.29201   0.31051   0.31681   0.32519

 Mulliken charges:
               1
     1  C   -0.168052
     2  C   -0.214704
     3  C   -0.159626
     4  C    0.172047
     5  C   -0.170417
     6  C   -0.217878
     7  H    0.221358
     8  H    0.221048
     9  H    0.275198
    10  H    0.266470
    11  H    0.215557
    12  N    0.486223
    13  O   -0.469207
    14  O   -0.458669
    15  C   -0.169794
    16  C   -0.217321
    17  C   -0.168512
    18  C    0.160698
    19  C   -0.168709
    20  C   -0.217965
    21  H    0.225260
    22  H    0.221174
    23  H    0.270387
    24  H    0.276448
    25  H    0.223666
    26  N    0.488623
    27  O   -0.457009
    28  O   -0.466294
 Sum of Mulliken charges =  -0.00000

 Dipole moment (field-independent basis, Debye):
    X=              2.0066    Y=              5.3126    Z=             -0.3070  Tot=              5.6872
 Quadrupole moment (field-independent basis, Debye-Ang):
   XX=            -73.7814   YY=           -103.2359   ZZ=           -109.3423
   XY=             -6.8906   XZ=            -11.3726   YZ=             -6.2798

 Normal termination of Gaussian 16 at Thu May  6 06:33:42 2021.
