 Gaussian 16, Revision A.03,
 Gaussian 16:  EM64L-G16RevA.03 25-Dec-2016

 -------------
 #p 6-31g* mp2
 -------------

 ------------------------------------------------------
 Input file generated by CHIRIPA (05-May-2021 14:53:16)
 ------------------------------------------------------
 Symbolic Z-matrix:
 Charge =  0 Multiplicity = 1

                         Standard orientation:
 ---------------------------------------------------------------------
 Center     Atomic      Atomic             Coordinates (Angstroms)
 Number     Number       Type             X           Y           Z
 ---------------------------------------------------------------------
      1          6           0       -3.886755   -0.403470    0.012501
      2          6           0       -3.074919   -0.603494    1.292695
      3          6           0       -1.596369   -0.879585    1.017998
      4          1           0       -3.790317   -1.297460   -0.618709
      5          1           0       -3.457090    0.430704   -0.559284
      6          1           0       -3.506828   -1.436150    1.862567
      7          1           0       -3.173456    0.291000    1.921017
      8          1           0       -1.144205   -0.046490    0.470184
      9          1           0       -1.479471   -1.783453    0.411402
     10          1           0       -1.034741   -1.019426    1.946911
     11          6           0       -5.366741   -0.126544    0.270728
     12          6           0       -6.178577    0.073480   -1.009466
     13          6           0       -7.657126    0.349572   -0.734769
     14          1           0       -5.796406   -0.960717    0.842513
     15          1           0       -5.463179    0.767447    0.901938
     16          1           0       -6.080040   -0.821013   -1.637788
     17          1           0       -5.746667    0.906136   -1.579338
     18          1           0       -7.774024    1.253439   -0.128173
     19          1           0       -8.109291   -0.483524   -0.186955
     20          1           0       -8.218754    0.489413   -1.663682
     21          6           0        5.162335   -1.761499   -0.419589
     22          6           0        3.782963   -1.966001   -0.309913
     23          6           0        2.915998   -0.882704   -0.138489
     24          6           0        3.465022    0.397347   -0.080768
     25          6           0        4.834793    0.633475   -0.186886
     26          6           0        5.682931   -0.464699   -0.357835
     27          1           0        5.828502   -2.608808   -0.552570
     28          1           0        3.375855   -2.972004   -0.357521
     29          1           0        1.844134   -1.012455   -0.050797
     30          1           0        5.211047    1.647986   -0.135718
     31          1           0        6.753751   -0.302886   -0.442719
     32          7           0        2.557170    1.552061    0.100459
     33          8           0        3.065828    2.669928    0.148180
     34          8           0        1.354130    1.317393    0.191353
 ---------------------------------------------------------------------

 SCF Done:  E(RHF) =  -669.536083415     A.U. after   15 cycles
 E2 =    -0.2090891534D+01 EUMP2 =    -0.67162697494929D+03

 The electronic state is 1-A.
 Alpha  occ. eigenvalues --  -20.60835 -20.60826 -15.85883 -11.31200 -11.27774
 Alpha  occ. eigenvalues --  -11.27746 -11.27515 -11.26782 -11.26767 -11.21243
 Alpha  occ. eigenvalues --  -11.21050 -11.20968 -11.20863 -11.20765 -11.20370
 Alpha  occ. eigenvalues --   -1.59904  -1.39460  -1.19373  -1.08780  -1.07967
 Alpha  occ. eigenvalues --   -1.04769  -1.03057  -0.95632  -0.95495  -0.86529
 Alpha  occ. eigenvalues --   -0.86169  -0.82456  -0.79136  -0.77788  -0.77492
 Alpha  occ. eigenvalues --   -0.72113  -0.71222  -0.70482  -0.65032  -0.64773
 Alpha  occ. eigenvalues --   -0.64590  -0.62114  -0.60439  -0.58888  -0.57120
 Alpha  occ. eigenvalues --   -0.55278  -0.54771  -0.53104  -0.52866  -0.52207
 Alpha  occ. eigenvalues --   -0.51931  -0.49458  -0.48858  -0.48825  -0.47438
 Alpha  occ. eigenvalues --   -0.46143  -0.45326  -0.45227  -0.44873  -0.43323
 Alpha  occ. eigenvalues --   -0.37358  -0.36372
 Alpha virt. eigenvalues --    0.05027   0.11281   0.16525   0.21141   0.23339
 Alpha virt. eigenvalues --    0.24624   0.26138   0.27118   0.27656   0.28016
 Alpha virt. eigenvalues --    0.29204   0.30655   0.31707   0.31877   0.32470

 Mulliken charges:
               1
     1  C   -0.298861
     2  C   -0.299109
     3  C   -0.486172
     4  H    0.146249
     5  H    0.154027
     6  H    0.147638
     7  H    0.154919
     8  H    0.182040
     9  H    0.143154
    10  H    0.156846
    11  C   -0.298100
    12  C   -0.299477
    13  C   -0.475501
    14  H    0.147705
    15  H    0.150608
    16  H    0.150413
    17  H    0.153093
    18  H    0.155528
    19  H    0.154136
    20  H    0.159285
    21  C   -0.170490
    22  C   -0.219490
    23  C   -0.173003
    24  C    0.157185
    25  C   -0.170736
    26  C   -0.218814
    27  H    0.225619
    28  H    0.223880
    29  H    0.281232
    30  H    0.275488
    31  H    0.223421
    32  N    0.494177
    33  O   -0.460002
    34  O   -0.466891
 Sum of Mulliken charges =  -0.00000

 Dipole moment (field-independent basis, Debye):
    X=              3.3260    Y=             -3.9297    Z=             -0.6568  Tot=              5.1901
 Quadrupole moment (field-independent basis, Debye-Ang):
   XX=            -71.3940   YY=            -95.6999   ZZ=            -95.6915
   XY=            -10.2122   XZ=             -2.5587   YZ=              0.1786

 Normal termination of Gaussian 16 at Thu May  6 09:04:54 2021.
