 Gaussian 16, Revision A.03,
 Gaussian 16:  EM64L-G16RevA.03 25-Dec-2016

 -------------
 #p 6-31g* mp2
 -------------

 ------------------------------------------------------
 Input file generated by CHIRIPA (05-May-2021 14:51:13)
 ------------------------------------------------------
 Symbolic Z-matrix:
 Charge =  0 Multiplicity = 1

                         Standard orientation:
 ---------------------------------------------------------------------
 Center     Atomic      Atomic             Coordinates (Angstroms)
 Number     Number       Type             X           Y           Z
 ---------------------------------------------------------------------
      1          6           0        2.542844    0.076490    0.232413
      2          6           0        3.767696    0.903084   -0.160608
      3          6           0        3.676594    2.355139    0.309531
      4          1           0        1.642348    0.543991   -0.188889
      5          1           0        2.426671    0.102593    1.324758
      6          1           0        3.882327    0.874291   -1.251776
      7          1           0        4.665400    0.433454    0.261518
      8          1           0        3.585696    2.402163    1.399543
      9          1           0        2.798174    2.845504   -0.122349
     10          1           0        4.562499    2.927862    0.017947
     11          6           0        2.619124   -1.377318   -0.230567
     12          6           0        1.394272   -2.203912    0.162454
     13          6           0        1.485373   -3.655967   -0.307685
     14          1           0        2.735297   -1.403421   -1.322912
     15          1           0        3.519619   -1.844819    0.190735
     16          1           0        0.496567   -1.734283   -0.259672
     17          1           0        1.279641   -2.175119    1.253622
     18          1           0        2.363794   -4.146333    0.124195
     19          1           0        1.576271   -3.702991   -1.397697
     20          1           0        0.599469   -4.228691   -0.016102
     21          6           0       -3.141701    0.138942   -0.087082
     22          6           0       -2.733830   -1.280466    0.309034
     23          6           0       -3.866207   -2.292326    0.131113
     24          1           0       -4.007845    0.446198    0.514858
     25          1           0       -3.473321    0.138809   -1.134662
     26          1           0       -2.401768   -1.277394    1.355142
     27          1           0       -1.868437   -1.584308   -0.293786
     28          1           0       -4.193209   -2.324862   -0.913212
     29          1           0       -4.729571   -2.016205    0.745084
     30          1           0       -3.552905   -3.300393    0.420078
     31          6           0       -2.020266    1.161887    0.085237
     32          6           0       -2.428137    2.581294   -0.310879
     33          6           0       -1.295760    3.593154   -0.132958
     34          1           0       -1.688646    1.162019    1.132816
     35          1           0       -1.154122    0.854630   -0.516704
     36          1           0       -3.293531    2.885136    0.291940
     37          1           0       -2.760199    2.578222   -1.356987
     38          1           0       -0.432397    3.317033   -0.746930
     39          1           0       -0.968759    3.625692    0.911365
     40          1           0       -1.609061    4.601222   -0.421924
 ---------------------------------------------------------------------

 SCF Done:  E(RHF) =  -470.733161338     A.U. after   11 cycles
 E2 =    -0.1583911148D+01 EUMP2 =    -0.47231707248566D+03

 The electronic state is 1-A.
 Alpha  occ. eigenvalues --  -11.21632 -11.21583 -11.21573 -11.21537 -11.21428
 Alpha  occ. eigenvalues --  -11.21369 -11.21367 -11.21309 -11.21105 -11.21074
 Alpha  occ. eigenvalues --  -11.21054 -11.21035  -1.08463  -1.08387  -1.03559
 Alpha  occ. eigenvalues --   -1.03486  -0.96001  -0.95945  -0.87020  -0.86956
 Alpha  occ. eigenvalues --   -0.79697  -0.79481  -0.78406  -0.78067  -0.65194
 Alpha  occ. eigenvalues --   -0.64931  -0.61053  -0.60809  -0.59429  -0.59251
 Alpha  occ. eigenvalues --   -0.57673  -0.57490  -0.55322  -0.55204  -0.52700
 Alpha  occ. eigenvalues --   -0.52634  -0.52467  -0.52322  -0.49997  -0.49839
 Alpha  occ. eigenvalues --   -0.48163  -0.47699  -0.46851  -0.46440  -0.46283
 Alpha  occ. eigenvalues --   -0.45781  -0.45667  -0.45075  -0.43803  -0.43742
 Alpha virt. eigenvalues --    0.20364   0.22327   0.23570   0.24364   0.25359
 Alpha virt. eigenvalues --    0.26305   0.26604   0.27399   0.28323   0.29674
 Alpha virt. eigenvalues --    0.31075   0.31252   0.31583   0.31879   0.32206

 Mulliken charges:
               1
     1  C   -0.301695
     2  C   -0.299600
     3  C   -0.476412
     4  H    0.153029
     5  H    0.149545
     6  H    0.151484
     7  H    0.151901
     8  H    0.155163
     9  H    0.156223
    10  H    0.160060
    11  C   -0.297667
    12  C   -0.306128
    13  C   -0.475871
    14  H    0.148760
    15  H    0.149500
    16  H    0.158568
    17  H    0.151924
    18  H    0.155275
    19  H    0.154625
    20  H    0.160256
    21  C   -0.298132
    22  C   -0.305321
    23  C   -0.475194
    24  H    0.149810
    25  H    0.149094
    26  H    0.152373
    27  H    0.158124
    28  H    0.154954
    29  H    0.155131
    30  H    0.160123
    31  C   -0.301853
    32  C   -0.299766
    33  C   -0.476503
    34  H    0.150540
    35  H    0.152097
    36  H    0.152346
    37  H    0.151772
    38  H    0.154799
    39  H    0.156110
    40  H    0.160554
 Sum of Mulliken charges =  -0.00000

 Dipole moment (field-independent basis, Debye):
    X=             -0.0305    Y=              0.0115    Z=              0.0218  Tot=              0.0392
 Quadrupole moment (field-independent basis, Debye-Ang):
   XX=            -85.1004   YY=            -86.5999   ZZ=            -83.1379
   XY=             -0.8808   XZ=              0.0343   YZ=             -0.4007

 Normal termination of Gaussian 16 at Thu May  6 00:46:00 2021.
