 Gaussian 16, Revision A.03,
 Gaussian 16:  EM64L-G16RevA.03 25-Dec-2016

 -------------
 #p 6-31g* mp2
 -------------

 ------------------------------------------------------
 Input file generated by CHIRIPA (05-May-2021 14:51:08)
 ------------------------------------------------------
 Symbolic Z-matrix:
 Charge =  0 Multiplicity = 1

                         Standard orientation:
 ---------------------------------------------------------------------
 Center     Atomic      Atomic             Coordinates (Angstroms)
 Number     Number       Type             X           Y           Z
 ---------------------------------------------------------------------
      1          6           0        2.796563   -0.306715    0.082235
      2          6           0        1.962174   -0.416012    1.358884
      3          6           0        0.529908   -0.879394    1.091141
      4          1           0        2.306821    0.392205   -0.609580
      5          1           0        2.814192   -1.283511   -0.420711
      6          1           0        1.947272    0.560351    1.859991
      7          1           0        2.454060   -1.114607    2.047818
      8          1           0        0.526693   -1.863983    0.612420
      9          1           0        0.017026   -0.179507    0.423525
     10          1           0       -0.048772   -0.950616    2.017379
     11          6           0        4.230781    0.155419    0.333587
     12          6           0        5.065170    0.264716   -0.943062
     13          6           0        6.497436    0.728097   -0.675319
     14          1           0        4.213153    1.132215    0.836533
     15          1           0        4.720523   -0.543502    1.025402
     16          1           0        4.573285    0.963311   -1.631996
     17          1           0        5.080073   -0.711648   -1.444169
     18          1           0        7.010319    0.028211   -0.007703
     19          1           0        6.500652    1.712686   -0.196598
     20          1           0        7.076116    0.799320   -1.601557
     21          6           0       -3.269043    0.758361    0.031865
     22          6           0       -4.212088    1.904133   -0.336721
     23          6           0       -3.709057    3.263567    0.149794
     24          1           0       -3.140301    0.734354    1.122642
     25          1           0       -2.276623    0.957589   -0.395695
     26          1           0       -5.202800    1.702125    0.090243
     27          1           0       -4.338750    1.925295   -1.426732
     28          1           0       -2.731029    3.491072   -0.286444
     29          1           0       -3.599989    3.266632    1.239150
     30          1           0       -4.398326    4.068288   -0.124418
     31          6           0       -3.758302   -0.607064   -0.447687
     32          6           0       -2.815257   -1.752836   -0.079101
     33          6           0       -3.318287   -3.112270   -0.565615
     34          1           0       -4.750721   -0.806292   -0.020126
     35          1           0       -3.887043   -0.583057   -1.538465
     36          1           0       -2.688594   -1.773999    1.010910
     37          1           0       -1.824545   -1.550828   -0.506065
     38          1           0       -3.427355   -3.115336   -1.654971
     39          1           0       -4.296315   -3.339775   -0.129377
     40          1           0       -2.629019   -3.916991   -0.291404
 ---------------------------------------------------------------------

 SCF Done:  E(RHF) =  -470.732232703     A.U. after   11 cycles
 E2 =    -0.1583574480D+01 EUMP2 =    -0.47231580718299D+03

 The electronic state is 1-A.
 Alpha  occ. eigenvalues --  -11.21602 -11.21583 -11.21545 -11.21405 -11.21399
 Alpha  occ. eigenvalues --  -11.21358 -11.21340 -11.21280 -11.21071 -11.21070
 Alpha  occ. eigenvalues --  -11.20988 -11.20977  -1.08428  -1.08362  -1.03537
 Alpha  occ. eigenvalues --   -1.03439  -0.95968  -0.95925  -0.87033  -0.86903
 Alpha  occ. eigenvalues --   -0.79744  -0.79407  -0.78306  -0.78069  -0.65066
 Alpha  occ. eigenvalues --   -0.64997  -0.60909  -0.60875  -0.59370  -0.59263
 Alpha  occ. eigenvalues --   -0.57594  -0.57526  -0.55284  -0.55183  -0.52763
 Alpha  occ. eigenvalues --   -0.52578  -0.52428  -0.52301  -0.49925  -0.49858
 Alpha  occ. eigenvalues --   -0.48115  -0.47707  -0.46642  -0.46534  -0.45949
 Alpha  occ. eigenvalues --   -0.45700  -0.45683  -0.45303  -0.43767  -0.43686
 Alpha virt. eigenvalues --    0.21862   0.23073   0.23941   0.24398   0.25402
 Alpha virt. eigenvalues --    0.26303   0.26624   0.27678   0.27790   0.29604
 Alpha virt. eigenvalues --    0.30660   0.30948   0.31671   0.31944   0.32256

 Mulliken charges:
               1
     1  C   -0.298221
     2  C   -0.301265
     3  C   -0.476275
     4  H    0.148911
     5  H    0.149246
     6  H    0.151667
     7  H    0.151440
     8  H    0.155108
     9  H    0.158843
    10  H    0.160351
    11  C   -0.298170
    12  C   -0.299610
    13  C   -0.475696
    14  H    0.149567
    15  H    0.149696
    16  H    0.151789
    17  H    0.151863
    18  H    0.155197
    19  H    0.155201
    20  H    0.160216
    21  C   -0.299901
    22  C   -0.299472
    23  C   -0.475571
    24  H    0.149979
    25  H    0.150262
    26  H    0.152045
    27  H    0.151798
    28  H    0.154652
    29  H    0.155177
    30  H    0.160230
    31  C   -0.298300
    32  C   -0.303181
    33  C   -0.475558
    34  H    0.148867
    35  H    0.148831
    36  H    0.152557
    37  H    0.159333
    38  H    0.154421
    39  H    0.154447
    40  H    0.159524
 Sum of Mulliken charges =  -0.00000

 Dipole moment (field-independent basis, Debye):
    X=              0.0098    Y=             -0.0008    Z=              0.0126  Tot=              0.0160
 Quadrupole moment (field-independent basis, Debye-Ang):
   XX=            -85.9006   YY=            -85.1367   ZZ=            -84.0917
   XY=             -0.8780   XZ=             -0.5793   YZ=             -0.5582

 Normal termination of Gaussian 16 at Thu May  6 00:30:03 2021.
