 Gaussian 16, Revision A.03,
 Gaussian 16:  EM64L-G16RevA.03 25-Dec-2016

 -------------
 #p 6-31g* mp2
 -------------

 ------------------------------------------------------
 Input file generated by CHIRIPA (05-May-2021 14:51:12)
 ------------------------------------------------------
 Symbolic Z-matrix:
 Charge =  0 Multiplicity = 1

                         Standard orientation:
 ---------------------------------------------------------------------
 Center     Atomic      Atomic             Coordinates (Angstroms)
 Number     Number       Type             X           Y           Z
 ---------------------------------------------------------------------
      1          6           0        3.141046    0.378710   -0.875873
      2          6           0        2.161390    1.400193   -0.297227
      3          6           0        1.235952    1.998081   -1.357364
      4          1           0        3.741793    0.859639   -1.659937
      5          1           0        2.574665   -0.425706   -1.365282
      6          1           0        2.729422    2.201734    0.192147
      7          1           0        1.563037    0.916828    0.485683
      8          1           0        0.644126    1.213039   -1.839083
      9          1           0        1.817138    2.505246   -2.134286
     10          1           0        0.543967    2.725705   -0.921956
     11          6           0        4.072898   -0.227865    0.171718
     12          6           0        5.052554   -1.249348   -0.406928
     13          6           0        5.977992   -1.847235    0.653209
     14          1           0        4.639279    0.576552    0.661127
     15          1           0        3.472151   -0.708794    0.955782
     16          1           0        5.650906   -0.765982   -1.189838
     17          1           0        4.484522   -2.050888   -0.896303
     18          1           0        5.396806   -2.354400    1.430131
     19          1           0        6.569818   -1.062194    1.134928
     20          1           0        6.669977   -2.574859    0.217801
     21          6           0       -3.110471    0.009352    0.926300
     22          6           0       -2.024351    1.046989    0.640579
     23          6           0       -1.038679    1.205266    1.798679
     24          1           0       -3.654595    0.298384    1.835880
     25          1           0       -2.636059   -0.958437    1.140103
     26          1           0       -2.500720    2.012211    0.426021
     27          1           0       -1.482873    0.755554   -0.268533
     28          1           0       -0.536844    0.255470    2.009979
     29          1           0       -1.560473    1.519265    2.708479
     30          1           0       -0.270822    1.951853    1.573147
     31          6           0       -4.103473   -0.160198   -0.222145
     32          6           0       -5.189593   -1.197835    0.063576
     33          6           0       -6.175265   -1.356112   -1.094524
     34          1           0       -4.577885    0.807592   -0.435948
     35          1           0       -3.559349   -0.449230   -1.131725
     36          1           0       -5.731070   -0.906400    0.972688
     37          1           0       -4.713224   -2.163056    0.278135
     38          1           0       -5.653470   -1.670111   -2.004323
     39          1           0       -6.677100   -0.406315   -1.305824
     40          1           0       -6.943121   -2.102699   -0.868992
 ---------------------------------------------------------------------

 SCF Done:  E(RHF) =  -470.732093438     A.U. after   11 cycles
 E2 =    -0.1583933752D+01 EUMP2 =    -0.47231602719039D+03

 The electronic state is 1-A.
 Alpha  occ. eigenvalues --  -11.21605 -11.21593 -11.21568 -11.21498 -11.21403
 Alpha  occ. eigenvalues --  -11.21383 -11.21344 -11.21322 -11.21074 -11.21065
 Alpha  occ. eigenvalues --  -11.21049 -11.21046  -1.08452  -1.08386  -1.03614
 Alpha  occ. eigenvalues --   -1.03433  -0.96069  -0.95887  -0.87024  -0.86966
 Alpha  occ. eigenvalues --   -0.79717  -0.79461  -0.78257  -0.78201  -0.65185
 Alpha  occ. eigenvalues --   -0.64950  -0.61237  -0.60692  -0.59674  -0.59069
 Alpha  occ. eigenvalues --   -0.57824  -0.57273  -0.55397  -0.55099  -0.52748
 Alpha  occ. eigenvalues --   -0.52589  -0.52481  -0.52280  -0.50109  -0.49787
 Alpha  occ. eigenvalues --   -0.47929  -0.47868  -0.46809  -0.46408  -0.45791
 Alpha  occ. eigenvalues --   -0.45739  -0.45736  -0.45590  -0.43816  -0.43684
 Alpha virt. eigenvalues --    0.21079   0.23196   0.23373   0.25302   0.25932
 Alpha virt. eigenvalues --    0.26458   0.26818   0.27081   0.28177   0.29324
 Alpha virt. eigenvalues --    0.29494   0.31281   0.31582   0.32144   0.32271

 Mulliken charges:
               1
     1  C   -0.297644
     2  C   -0.307862
     3  C   -0.477392
     4  H    0.149298
     5  H    0.148719
     6  H    0.151025
     7  H    0.161878
     8  H    0.154818
     9  H    0.155208
    10  H    0.161923
    11  C   -0.298201
    12  C   -0.299597
    13  C   -0.475684
    14  H    0.149594
    15  H    0.149384
    16  H    0.151970
    17  H    0.151712
    18  H    0.155111
    19  H    0.155223
    20  H    0.160192
    21  C   -0.298326
    22  C   -0.303545
    23  C   -0.480592
    24  H    0.149626
    25  H    0.149064
    26  H    0.151533
    27  H    0.157470
    28  H    0.153630
    29  H    0.155600
    30  H    0.165937
    31  C   -0.298178
    32  C   -0.299623
    33  C   -0.475699
    34  H    0.149666
    35  H    0.149366
    36  H    0.151985
    37  H    0.151786
    38  H    0.155143
    39  H    0.155241
    40  H    0.160241
 Sum of Mulliken charges =  -0.00000

 Dipole moment (field-independent basis, Debye):
    X=             -0.0106    Y=              0.0163    Z=              0.0096  Tot=              0.0217
 Quadrupole moment (field-independent basis, Debye-Ang):
   XX=            -85.2973   YY=            -84.0162   ZZ=            -85.6432
   XY=              0.2595   XZ=             -1.3515   YZ=              0.3678

 Normal termination of Gaussian 16 at Thu May  6 00:43:40 2021.
