 Gaussian 16, Revision A.03,
 Gaussian 16:  EM64L-G16RevA.03 25-Dec-2016

 -------------
 #p 6-31g* mp2
 -------------

 ------------------------------------------------------
 Input file generated by CHIRIPA (05-May-2021 14:55:23)
 ------------------------------------------------------
 Symbolic Z-matrix:
 Charge =  0 Multiplicity = 1

                         Standard orientation:
 ---------------------------------------------------------------------
 Center     Atomic      Atomic             Coordinates (Angstroms)
 Number     Number       Type             X           Y           Z
 ---------------------------------------------------------------------
      1          6           0        2.273572    2.236991    0.196868
      2          6           0        2.769854    1.456682   -0.852580
      3          6           0        2.511917    0.083443   -0.899834
      4          6           0        1.750722   -0.479172    0.123560
      5          6           0        1.242355    0.271630    1.182403
      6          6           0        1.512748    1.643022    1.209226
      7          1           0        2.478782    3.303039    0.225640
      8          1           0        3.361013    1.915268   -1.640156
      9          1           0        2.883848   -0.544152   -1.700590
     10          1           0        0.656144   -0.213940    1.953115
     11          1           0        1.126043    2.246557    2.025467
     12          7           0        1.471063   -1.931981    0.084350
     13          8           0        0.797843   -2.403644    0.998104
     14          8           0        1.930380   -2.571520   -0.859395
     15          6           0       -2.313120    0.986886    0.181161
     16          6           0       -1.973075    2.150731   -0.750406
     17          6           0       -2.003615    3.504556   -0.040462
     18          1           0       -3.308449    1.152210    0.615822
     19          1           0       -1.603286    0.978223    1.019884
     20          1           0       -2.682489    2.156362   -1.587853
     21          1           0       -0.978518    1.982521   -1.183048
     22          1           0       -1.283406    3.523598    0.783879
     23          1           0       -2.997058    3.698426    0.376774
     24          1           0       -1.757582    4.322420   -0.724878
     25          6           0       -2.286723   -0.373172   -0.514019
     26          6           0       -2.626767   -1.537019    0.417548
     27          6           0       -2.596227   -2.890843   -0.292396
     28          1           0       -2.996557   -0.364510   -1.352742
     29          1           0       -1.291393   -0.538497   -0.948680
     30          1           0       -3.621324   -1.368809    0.850190
     31          1           0       -1.917354   -1.542650    1.254994
     32          1           0       -1.602784   -3.084713   -0.709633
     33          1           0       -3.316436   -2.909885   -1.116737
     34          1           0       -2.842261   -3.708708    0.392020
 ---------------------------------------------------------------------

 SCF Done:  E(RHF) =  -669.535149016     A.U. after   15 cycles
 E2 =    -0.2097182309D+01 EUMP2 =    -0.67163233132504D+03

 The electronic state is 1-A.
 Alpha  occ. eigenvalues --  -20.61071 -20.61057 -15.86081 -11.31395 -11.27966
 Alpha  occ. eigenvalues --  -11.27961 -11.27696 -11.26960 -11.26949 -11.21670
 Alpha  occ. eigenvalues --  -11.21432 -11.21322 -11.21040 -11.20807 -11.19976
 Alpha  occ. eigenvalues --   -1.60122  -1.39677  -1.19580  -1.08976  -1.08200
 Alpha  occ. eigenvalues --   -1.04971  -1.03185  -0.95818  -0.95663  -0.86683
 Alpha  occ. eigenvalues --   -0.86366  -0.82654  -0.79322  -0.78014  -0.77651
 Alpha  occ. eigenvalues --   -0.72308  -0.71479  -0.70675  -0.65233  -0.64980
 Alpha  occ. eigenvalues --   -0.64854  -0.62299  -0.60569  -0.59129  -0.57247
 Alpha  occ. eigenvalues --   -0.55459  -0.55017  -0.53224  -0.53048  -0.52338
 Alpha  occ. eigenvalues --   -0.52094  -0.49699  -0.49067  -0.49014  -0.47607
 Alpha  occ. eigenvalues --   -0.46364  -0.45562  -0.45390  -0.44912  -0.43463
 Alpha  occ. eigenvalues --   -0.37512  -0.36490
 Alpha virt. eigenvalues --    0.04759   0.10964   0.16154   0.20202   0.23191
 Alpha virt. eigenvalues --    0.24065   0.25381   0.26862   0.27190   0.28629
 Alpha virt. eigenvalues --    0.29524   0.30276   0.31420   0.31903   0.32406

 Mulliken charges:
               1
     1  C   -0.170177
     2  C   -0.218927
     3  C   -0.171651
     4  C    0.156964
     5  C   -0.169291
     6  C   -0.216585
     7  H    0.227385
     8  H    0.224612
     9  H    0.276513
    10  H    0.276978
    11  H    0.225090
    12  N    0.489315
    13  O   -0.458623
    14  O   -0.458838
    15  C   -0.296251
    16  C   -0.300426
    17  C   -0.474534
    18  H    0.149494
    19  H    0.140790
    20  H    0.152964
    21  H    0.153860
    22  H    0.145462
    23  H    0.156869
    24  H    0.158168
    25  C   -0.299856
    26  C   -0.302935
    27  C   -0.475012
    28  H    0.149520
    29  H    0.145235
    30  H    0.146011
    31  H    0.161109
    32  H    0.168829
    33  H    0.147283
    34  H    0.160653
 Sum of Mulliken charges =  -0.00000

 Dipole moment (field-independent basis, Debye):
    X=              1.2367    Y=              4.9476    Z=              0.1379  Tot=              5.1017
 Quadrupole moment (field-independent basis, Debye-Ang):
   XX=            -89.8731   YY=           -101.3112   ZZ=            -91.4375
   XY=              8.4360   XZ=             -2.0019   YZ=              0.4060

 Normal termination of Gaussian 16 at Thu May  6 20:50:42 2021.
