 Gaussian 16, Revision A.03,
 Gaussian 16:  EM64L-G16RevA.03 25-Dec-2016

 -------------
 #p 6-31g* mp2
 -------------

 ------------------------------------------------------
 Input file generated by CHIRIPA (05-May-2021 14:53:16)
 ------------------------------------------------------
 Symbolic Z-matrix:
 Charge =  0 Multiplicity = 1

                         Standard orientation:
 ---------------------------------------------------------------------
 Center     Atomic      Atomic             Coordinates (Angstroms)
 Number     Number       Type             X           Y           Z
 ---------------------------------------------------------------------
      1          6           0       -3.649960   -0.068155   -0.714212
      2          6           0       -4.191740   -1.208753    0.148049
      3          6           0       -4.983927   -2.236392   -0.660772
      4          1           0       -4.487846    0.429373   -1.221518
      5          1           0       -3.010514   -0.486560   -1.503795
      6          1           0       -4.828865   -0.788210    0.936612
      7          1           0       -3.352486   -1.703502    0.653511
      8          1           0       -4.354856   -2.683217   -1.437443
      9          1           0       -5.839623   -1.762725   -1.152733
     10          1           0       -5.361960   -3.042887   -0.024755
     11          6           0       -2.855755    0.967223    0.080116
     12          6           0       -2.313975    2.107821   -0.782145
     13          6           0       -1.521788    3.135460    0.026676
     14          1           0       -3.495201    1.385628    0.869699
     15          1           0       -2.017869    0.469695    0.587422
     16          1           0       -3.153230    2.602570   -1.287607
     17          1           0       -1.676851    1.687278   -1.570709
     18          1           0       -0.666092    2.661793    0.518637
     19          1           0       -2.150860    3.582285    0.803347
     20          1           0       -1.143755    3.941955   -0.609341
     21          6           0        4.568140   -0.163817   -1.243183
     22          6           0        3.941867   -1.401862   -1.065561
     23          6           0        2.818189   -1.517440   -0.241827
     24          6           0        2.345347   -0.369313    0.391827
     25          6           0        2.947350    0.878182    0.234860
     26          6           0        4.069760    0.970254   -0.593551
     27          1           0        5.440547   -0.083164   -1.884897
     28          1           0        4.326722   -2.284282   -1.568816
     29          1           0        2.313967   -2.463539   -0.086667
     30          1           0        2.540605    1.740062    0.749776
     31          1           0        4.554099    1.933031   -0.729645
     32          7           0        1.156431   -0.479229    1.266353
     33          8           0        0.759360    0.547265    1.813419
     34          8           0        0.644141   -1.589793    1.388181
 ---------------------------------------------------------------------

 SCF Done:  E(RHF) =  -669.536763203     A.U. after   15 cycles
 E2 =    -0.2092145310D+01 EUMP2 =    -0.67162890851336D+03

 The electronic state is 1-A.
 Alpha  occ. eigenvalues --  -20.61139 -20.61132 -15.86135 -11.31385 -11.27939
 Alpha  occ. eigenvalues --  -11.27933 -11.27663 -11.26928 -11.26917 -11.20729
 Alpha  occ. eigenvalues --  -11.20614 -11.20443 -11.20319 -11.20160 -11.20090
 Alpha  occ. eigenvalues --   -1.60179  -1.39737  -1.19545  -1.08964  -1.07434
 Alpha  occ. eigenvalues --   -1.04929  -1.02609  -0.95817  -0.95057  -0.86334
 Alpha  occ. eigenvalues --   -0.86079  -0.82654  -0.78673  -0.77718  -0.77218
 Alpha  occ. eigenvalues --   -0.72355  -0.71487  -0.70654  -0.65203  -0.64931
 Alpha  occ. eigenvalues --   -0.64061  -0.62277  -0.60010  -0.58432  -0.56664
 Alpha  occ. eigenvalues --   -0.55438  -0.54344  -0.53265  -0.53019  -0.51801
 Alpha  occ. eigenvalues --   -0.51477  -0.49222  -0.49125  -0.48884  -0.46999
 Alpha  occ. eigenvalues --   -0.45780  -0.45159  -0.44784  -0.44489  -0.42846
 Alpha  occ. eigenvalues --   -0.37519  -0.36525
 Alpha virt. eigenvalues --    0.04736   0.11120   0.16214   0.21145   0.23805
 Alpha virt. eigenvalues --    0.25047   0.26885   0.27484   0.27880   0.28731
 Alpha virt. eigenvalues --    0.29048   0.30649   0.31665   0.32452   0.32679

 Mulliken charges:
               1
     1  C   -0.296650
     2  C   -0.301702
     3  C   -0.474922
     4  H    0.144916
     5  H    0.145179
     6  H    0.150530
     7  H    0.162620
     8  H    0.152704
     9  H    0.152096
    10  H    0.158757
    11  C   -0.305993
    12  C   -0.297449
    13  C   -0.484201
    14  H    0.147831
    15  H    0.170053
    16  H    0.147466
    17  H    0.144914
    18  H    0.171291
    19  H    0.154400
    20  H    0.150466
    21  C   -0.170250
    22  C   -0.218625
    23  C   -0.170756
    24  C    0.158491
    25  C   -0.170767
    26  C   -0.218627
    27  H    0.226432
    28  H    0.224166
    29  H    0.275893
    30  H    0.276855
    31  H    0.224466
    32  N    0.488833
    33  O   -0.459640
    34  O   -0.458774
 Sum of Mulliken charges =  -0.00000

 Dipole moment (field-independent basis, Debye):
    X=              4.5078    Y=              0.2396    Z=             -2.8718  Tot=              5.3503
 Quadrupole moment (field-independent basis, Debye-Ang):
   XX=            -75.9998   YY=            -91.2873   ZZ=            -98.0639
   XY=             -1.1071   XZ=             -6.7884   YZ=              2.3294

 Normal termination of Gaussian 16 at Wed May  5 15:40:20 2021.
