 Gaussian 16, Revision A.03,
 Gaussian 16:  EM64L-G16RevA.03 25-Dec-2016

 -------------
 #p 6-31g* mp2
 -------------

 ------------------------------------------------------
 Input file generated by CHIRIPA (05-May-2021 14:53:16)
 ------------------------------------------------------
 Symbolic Z-matrix:
 Charge =  0 Multiplicity = 1

                         Standard orientation:
 ---------------------------------------------------------------------
 Center     Atomic      Atomic             Coordinates (Angstroms)
 Number     Number       Type             X           Y           Z
 ---------------------------------------------------------------------
      1          6           0        2.698177    0.629749    0.128683
      2          6           0        3.361135    2.007475    0.147192
      3          6           0        2.371904    3.135620    0.441312
      4          1           0        1.899094    0.624489   -0.625229
      5          1           0        2.213969    0.450486    1.098632
      6          1           0        3.845129    2.183512   -0.822023
      7          1           0        4.158860    2.009397    0.901014
      8          1           0        1.897358    2.987322    1.416717
      9          1           0        1.581845    3.162426   -0.316111
     10          1           0        2.867012    4.111661    0.449792
     11          6           0        3.674263   -0.508359   -0.164050
     12          6           0        3.011305   -1.886085   -0.182559
     13          6           0        4.000535   -3.014230   -0.476679
     14          1           0        4.158471   -0.329096   -1.134000
     15          1           0        4.473346   -0.503099    0.589862
     16          1           0        2.213580   -1.888007   -0.936382
     17          1           0        2.527311   -2.062122    0.786656
     18          1           0        4.790595   -3.041036    0.280743
     19          1           0        4.475081   -2.865932   -1.452084
     20          1           0        3.505428   -3.990271   -0.485160
     21          6           0       -2.955252   -2.499781    0.380785
     22          6           0       -3.980578   -1.648269   -0.043663
     23          6           0       -3.733806   -0.287756   -0.250193
     24          6           0       -2.444182    0.189667   -0.021662
     25          6           0       -1.401688   -0.633409    0.401474
     26          6           0       -1.671343   -1.990531    0.601609
     27          1           0       -3.155839   -3.555343    0.538737
     28          1           0       -4.978643   -2.040989   -0.215946
     29          1           0       -4.509106    0.393785   -0.578566
     30          1           0       -0.416936   -0.212733    0.564913
     31          1           0       -0.873126   -2.649486    0.931264
     32          7           0       -2.170822    1.628187   -0.236921
     33          8           0       -1.026077    2.024150   -0.028577
     34          8           0       -3.106485    2.332497   -0.609907
 ---------------------------------------------------------------------

 SCF Done:  E(RHF) =  -669.536045750     A.U. after   15 cycles
 E2 =    -0.2092664657D+01 EUMP2 =    -0.67162871040651D+03

 The electronic state is 1-A.
 Alpha  occ. eigenvalues --  -20.60833 -20.60822 -15.85865 -11.31166 -11.27747
 Alpha  occ. eigenvalues --  -11.27680 -11.27481 -11.26753 -11.26719 -11.22000
 Alpha  occ. eigenvalues --  -11.21428 -11.21400 -11.21211 -11.21045 -11.19889
 Alpha  occ. eigenvalues --   -1.59897  -1.39453  -1.19340  -1.08752  -1.08359
 Alpha  occ. eigenvalues --   -1.04730  -1.03315  -0.95723  -0.95591  -0.86737
 Alpha  occ. eigenvalues --   -0.86131  -0.82430  -0.79470  -0.78182  -0.77407
 Alpha  occ. eigenvalues --   -0.72091  -0.71214  -0.70450  -0.65022  -0.64964
 Alpha  occ. eigenvalues --   -0.64734  -0.62077  -0.60710  -0.59210  -0.57320
 Alpha  occ. eigenvalues --   -0.55246  -0.54978  -0.53071  -0.52852  -0.52426
 Alpha  occ. eigenvalues --   -0.52088  -0.49677  -0.48859  -0.48823  -0.47703
 Alpha  occ. eigenvalues --   -0.46523  -0.45608  -0.45531  -0.44817  -0.43597
 Alpha  occ. eigenvalues --   -0.37329  -0.36331
 Alpha virt. eigenvalues --    0.05013   0.11297   0.16506   0.20379   0.23064
 Alpha virt. eigenvalues --    0.24326   0.25073   0.26692   0.27879   0.28314
 Alpha virt. eigenvalues --    0.29750   0.30653   0.31764   0.31850   0.32420

 Mulliken charges:
               1
     1  C   -0.303659
     2  C   -0.300080
     3  C   -0.478221
     4  H    0.156959
     5  H    0.143902
     6  H    0.150283
     7  H    0.148013
     8  H    0.155042
     9  H    0.178144
    10  H    0.154503
    11  C   -0.296907
    12  C   -0.301860
    13  C   -0.474829
    14  H    0.151614
    15  H    0.150202
    16  H    0.150566
    17  H    0.143686
    18  H    0.156837
    19  H    0.157884
    20  H    0.157245
    21  C   -0.170399
    22  C   -0.219080
    23  C   -0.170079
    24  C    0.155562
    25  C   -0.177382
    26  C   -0.221982
    27  H    0.225522
    28  H    0.223261
    29  H    0.275347
    30  H    0.287230
    31  H    0.225185
    32  N    0.492471
    33  O   -0.465298
    34  O   -0.459685
 Sum of Mulliken charges =  -0.00000

 Dipole moment (field-independent basis, Debye):
    X=             -1.0231    Y=             -4.9112    Z=              0.6688  Tot=              5.0610
 Quadrupole moment (field-independent basis, Debye-Ang):
   XX=            -86.1146   YY=            -97.9306   ZZ=            -94.3514
   XY=             12.1012   XZ=             -0.3397   YZ=             -0.3740

 Normal termination of Gaussian 16 at Thu May  6 01:09:25 2021.
