 Gaussian 16, Revision A.03,
 Gaussian 16:  EM64L-G16RevA.03 25-Dec-2016

 -------------
 #p 6-31g* mp2
 -------------

 ------------------------------------------------------
 Input file generated by CHIRIPA (05-May-2021 14:51:08)
 ------------------------------------------------------
 Symbolic Z-matrix:
 Charge =  0 Multiplicity = 1

                         Standard orientation:
 ---------------------------------------------------------------------
 Center     Atomic      Atomic             Coordinates (Angstroms)
 Number     Number       Type             X           Y           Z
 ---------------------------------------------------------------------
      1          6           0       -2.401121    0.247344   -0.367920
      2          6           0       -3.680673    0.740101   -1.044620
      3          6           0       -3.425806    1.332397   -2.430990
      4          1           0       -1.691887    1.082413   -0.286726
      5          1           0       -1.923418   -0.507359   -1.007934
      6          1           0       -4.156547    1.492645   -0.402875
      7          1           0       -4.387017   -0.096192   -1.124039
      8          1           0       -2.972532    0.586056   -3.091384
      9          1           0       -2.740753    2.183922   -2.366121
     10          1           0       -4.353926    1.678352   -2.896575
     11          6           0       -2.639634   -0.347486    1.018809
     12          6           0       -1.360082   -0.840243    1.695509
     13          6           0       -1.614949   -1.432539    3.081879
     14          1           0       -3.117337    0.407217    1.658823
     15          1           0       -3.348868   -1.182555    0.937615
     16          1           0       -0.653738   -0.003950    1.774928
     17          1           0       -0.884208   -1.592787    1.053763
     18          1           0       -2.300003   -2.284063    3.017010
     19          1           0       -2.068224   -0.686198    3.742272
     20          1           0       -0.686830   -1.778494    3.547464
     21          6           0        2.230089    0.719634   -0.099948
     22          6           0        3.274729    1.663231    0.496992
     23          6           0        2.678685    2.998600    0.943438
     24          1           0        1.747174    1.211536   -0.955384
     25          1           0        1.441156    0.539842    0.643460
     26          1           0        4.062169    1.840091   -0.246833
     27          1           0        3.755348    1.168951    1.350989
     28          1           0        1.907016    2.841017    1.703896
     29          1           0        2.215581    3.515970    0.096996
     30          1           0        3.442855    3.657742    1.367040
     31          6           0        2.810667   -0.619493   -0.550941
     32          6           0        1.766026   -1.563089   -1.147881
     33          6           0        2.362070   -2.898458   -1.594327
     34          1           0        3.599599   -0.439700   -1.294349
     35          1           0        3.293582   -1.111394    0.304495
     36          1           0        1.285408   -1.068810   -2.001877
     37          1           0        0.978587   -1.739949   -0.404056
     38          1           0        2.825174   -3.415829   -0.747885
     39          1           0        3.133739   -2.740876   -2.354784
     40          1           0        1.597901   -3.557600   -2.017928
 ---------------------------------------------------------------------

 SCF Done:  E(RHF) =  -470.732748090     A.U. after   11 cycles
 E2 =    -0.1584414808D+01 EUMP2 =    -0.47231716289761D+03

 The electronic state is 1-A.
 Alpha  occ. eigenvalues --  -11.21647 -11.21592 -11.21581 -11.21529 -11.21411
 Alpha  occ. eigenvalues --  -11.21353 -11.21332 -11.21284 -11.21125 -11.21086
 Alpha  occ. eigenvalues --  -11.21068 -11.21052  -1.08466  -1.08372  -1.03560
 Alpha  occ. eigenvalues --   -1.03505  -0.95997  -0.95958  -0.87016  -0.86975
 Alpha  occ. eigenvalues --   -0.79666  -0.79558  -0.78459  -0.77995  -0.65085
 Alpha  occ. eigenvalues --   -0.65033  -0.61073  -0.60807  -0.59386  -0.59311
 Alpha  occ. eigenvalues --   -0.57611  -0.57568  -0.55301  -0.55232  -0.52719
 Alpha  occ. eigenvalues --   -0.52640  -0.52425  -0.52389  -0.50023  -0.49841
 Alpha  occ. eigenvalues --   -0.48086  -0.47919  -0.46901  -0.46395  -0.46284
 Alpha  occ. eigenvalues --   -0.45691  -0.45597  -0.45063  -0.43798  -0.43744
 Alpha virt. eigenvalues --    0.21150   0.23210   0.23378   0.23978   0.25219
 Alpha virt. eigenvalues --    0.26359   0.26775   0.27932   0.28002   0.29657
 Alpha virt. eigenvalues --    0.30482   0.31652   0.31829   0.31914   0.32072

 Mulliken charges:
               1
     1  C   -0.300512
     2  C   -0.299690
     3  C   -0.475631
     4  H    0.151208
     5  H    0.151293
     6  H    0.151867
     7  H    0.151798
     8  H    0.155081
     9  H    0.155125
    10  H    0.160204
    11  C   -0.297540
    12  C   -0.310529
    13  C   -0.474773
    14  H    0.149456
    15  H    0.149531
    16  H    0.156037
    17  H    0.157578
    18  H    0.155435
    19  H    0.155368
    20  H    0.159792
    21  C   -0.306372
    22  C   -0.299216
    23  C   -0.475593
    24  H    0.149615
    25  H    0.157978
    26  H    0.151887
    27  H    0.151703
    28  H    0.154102
    29  H    0.155024
    30  H    0.160399
    31  C   -0.297321
    32  C   -0.308306
    33  C   -0.475218
    34  H    0.149265
    35  H    0.149080
    36  H    0.151990
    37  H    0.160345
    38  H    0.154908
    39  H    0.155161
    40  H    0.159470
 Sum of Mulliken charges =  -0.00000

 Dipole moment (field-independent basis, Debye):
    X=             -0.0296    Y=             -0.0032    Z=              0.0125  Tot=              0.0323
 Quadrupole moment (field-independent basis, Debye-Ang):
   XX=            -84.9253   YY=            -85.0717   ZZ=            -84.9588
   XY=              0.4927   XZ=              0.0353   YZ=              0.0779

 Normal termination of Gaussian 16 at Thu May  6 03:41:03 2021.
