 Gaussian 16, Revision A.03,
 Gaussian 16:  EM64L-G16RevA.03 25-Dec-2016

 -------------
 #p 6-31g* mp2
 -------------

 ------------------------------------------------------
 Input file generated by CHIRIPA (05-May-2021 14:55:20)
 ------------------------------------------------------
 Symbolic Z-matrix:
 Charge =  0 Multiplicity = 1

                         Standard orientation:
 ---------------------------------------------------------------------
 Center     Atomic      Atomic             Coordinates (Angstroms)
 Number     Number       Type             X           Y           Z
 ---------------------------------------------------------------------
      1          6           0       -5.720127    0.669279    0.789610
      2          6           0       -5.409539   -0.675722    1.015500
      3          6           0       -4.218379   -1.221035    0.527321
      4          6           0       -3.356883   -0.388906   -0.185894
      5          6           0       -3.638148    0.954915   -0.427397
      6          6           0       -4.835001    1.478878    0.070150
      7          1           0       -6.647660    1.084599    1.172478
      8          1           0       -6.095056   -1.306826    1.573909
      9          1           0       -3.953066   -2.258970    0.687689
     10          1           0       -2.934932    1.559174   -0.987556
     11          1           0       -5.073601    2.523772   -0.106800
     12          7           0       -2.092842   -0.954904   -0.707666
     13          8           0       -1.350628   -0.200811   -1.333046
     14          8           0       -1.868235   -2.141908   -0.481372
     15          6           0        3.968915    0.608578   -0.292785
     16          6           0        2.886581    1.316221    0.523170
     17          6           0        1.703679    1.770782   -0.332347
     18          1           0        4.324170    1.284299   -1.082810
     19          1           0        3.526768   -0.260135   -0.799973
     20          1           0        3.330948    2.182541    1.029771
     21          1           0        2.533997    0.638805    1.311464
     22          1           0        1.233895    0.914168   -0.826429
     23          1           0        2.035374    2.466676   -1.109722
     24          1           0        0.941832    2.274182    0.271010
     25          6           0        5.158029    0.148217    0.548527
     26          6           0        6.240361   -0.559426   -0.267428
     27          6           0        7.423263   -1.013987    0.588089
     28          1           0        5.600174    1.016930    1.055715
     29          1           0        4.802773   -0.527503    1.338551
     30          1           0        6.592946    0.117990   -1.055722
     31          1           0        5.795996   -1.425745   -0.774030
     32          1           0        7.091568   -1.709880    1.365464
     33          1           0        7.893047   -0.157373    1.082171
     34          1           0        8.185110   -1.517386   -0.015269
 ---------------------------------------------------------------------

 SCF Done:  E(RHF) =  -669.536149680     A.U. after   15 cycles
 E2 =    -0.2090727332D+01 EUMP2 =    -0.67162687701260D+03

 The electronic state is 1-A.
 Alpha  occ. eigenvalues --  -20.60924 -20.60908 -15.85949 -11.31267 -11.27832
 Alpha  occ. eigenvalues --  -11.27823 -11.27571 -11.26839 -11.26829 -11.20993
 Alpha  occ. eigenvalues --  -11.20694 -11.20680 -11.20568 -11.20508 -11.19831
 Alpha  occ. eigenvalues --   -1.59980  -1.39535  -1.19436  -1.08842  -1.07653
 Alpha  occ. eigenvalues --   -1.04832  -1.02727  -0.95687  -0.95161  -0.86233
 Alpha  occ. eigenvalues --   -0.86176  -0.82518  -0.78807  -0.77573  -0.77450
 Alpha  occ. eigenvalues --   -0.72177  -0.71293  -0.70545  -0.65093  -0.64836
 Alpha  occ. eigenvalues --   -0.64280  -0.62178  -0.60113  -0.58573  -0.56783
 Alpha  occ. eigenvalues --   -0.55339  -0.54428  -0.53164  -0.52924  -0.51878
 Alpha  occ. eigenvalues --   -0.51582  -0.49162  -0.48931  -0.48854  -0.47113
 Alpha  occ. eigenvalues --   -0.45857  -0.45046  -0.44981  -0.44759  -0.42997
 Alpha  occ. eigenvalues --   -0.37416  -0.36433
 Alpha virt. eigenvalues --    0.04939   0.11221   0.16419   0.21339   0.23637
 Alpha virt. eigenvalues --    0.25138   0.27245   0.27433   0.28067   0.28279
 Alpha virt. eigenvalues --    0.28982   0.30904   0.32096   0.32365   0.32645

 Mulliken charges:
               1
     1  C   -0.170598
     2  C   -0.218618
     3  C   -0.170731
     4  C    0.158024
     5  C   -0.170843
     6  C   -0.218621
     7  H    0.225897
     8  H    0.223685
     9  H    0.275695
    10  H    0.276559
    11  H    0.223843
    12  N    0.489899
    13  O   -0.460922
    14  O   -0.459793
    15  C   -0.298911
    16  C   -0.298562
    17  C   -0.483884
    18  H    0.147337
    19  H    0.155492
    20  H    0.146049
    21  H    0.150933
    22  H    0.183396
    23  H    0.148763
    24  H    0.150623
    25  C   -0.297760
    26  C   -0.299420
    27  C   -0.475318
    28  H    0.146885
    29  H    0.149366
    30  H    0.150781
    31  H    0.153442
    32  H    0.154782
    33  H    0.153677
    34  H    0.158856
 Sum of Mulliken charges =  -0.00000

 Dipole moment (field-independent basis, Debye):
    X=             -4.7093    Y=              1.8688    Z=              1.7496  Tot=              5.3601
 Quadrupole moment (field-independent basis, Debye-Ang):
   XX=            -66.6504   YY=            -92.2113   ZZ=            -95.6906
   XY=             -3.4513   XZ=             -6.8364   YZ=             -3.1486

 Normal termination of Gaussian 16 at Thu May  6 14:08:00 2021.
