 Gaussian 16, Revision A.03,
 Gaussian 16:  EM64L-G16RevA.03 25-Dec-2016

 -------------
 #p 6-31g* mp2
 -------------

 ------------------------------------------------------
 Input file generated by CHIRIPA (05-May-2021 14:51:13)
 ------------------------------------------------------
 Symbolic Z-matrix:
 Charge =  0 Multiplicity = 1

                         Standard orientation:
 ---------------------------------------------------------------------
 Center     Atomic      Atomic             Coordinates (Angstroms)
 Number     Number       Type             X           Y           Z
 ---------------------------------------------------------------------
      1          6           0       -2.736695   -0.021703    0.314057
      2          6           0       -2.116665   -1.162589    1.121477
      3          6           0       -0.602490   -1.020402    1.279121
      4          1           0       -2.265271    0.015639   -0.677563
      5          1           0       -2.506410    0.933572    0.805802
      6          1           0       -2.349224   -2.115534    0.629106
      7          1           0       -2.589753   -1.197341    2.111222
      8          1           0       -0.354604   -0.084695    1.790596
      9          1           0       -0.112708   -1.008105    0.300059
     10          1           0       -0.179946   -1.846528    1.859493
     11          6           0       -4.249868   -0.149773    0.147829
     12          6           0       -4.869898    0.991114   -0.659591
     13          6           0       -6.384073    0.848926   -0.817236
     14          1           0       -4.480152   -1.105048   -0.343917
     15          1           0       -4.721291   -0.187115    1.139449
     16          1           0       -4.396809    1.025865   -1.649336
     17          1           0       -4.637339    1.944058   -0.167220
     18          1           0       -6.873855    0.836629    0.161827
     19          1           0       -6.631959   -0.086781   -1.328710
     20          1           0       -6.806617    1.675053   -1.397607
     21          6           0        3.247288    0.789331   -0.063981
     22          6           0        4.360885    1.837132   -0.064761
     23          6           0        3.853107    3.239707    0.271002
     24          1           0        2.474713    1.084056   -0.787313
     25          1           0        2.763922    0.778843    0.922752
     26          1           0        4.842916    1.844672   -1.050766
     27          1           0        5.130992    1.539779    0.658519
     28          1           0        3.390055    3.254561    1.262951
     29          1           0        3.100343    3.561186   -0.456045
     30          1           0        4.665600    3.972973    0.264863
     31          6           0        3.739274   -0.617855   -0.397904
     32          6           0        2.625678   -1.665656   -0.397125
     33          6           0        3.133455   -3.068232   -0.732887
     34          1           0        4.222640   -0.607368   -1.384638
     35          1           0        4.511850   -0.912581    0.325428
     36          1           0        1.855571   -1.368304   -1.120405
     37          1           0        2.143646   -1.673196    0.588880
     38          1           0        3.886220   -3.389711   -0.005840
     39          1           0        3.596508   -3.083085   -1.724836
     40          1           0        2.320962   -3.801498   -0.726749
 ---------------------------------------------------------------------

 SCF Done:  E(RHF) =  -470.731780325     A.U. after   11 cycles
 E2 =    -0.1583557843D+01 EUMP2 =    -0.47231533816855D+03

 The electronic state is 1-A.
 Alpha  occ. eigenvalues --  -11.21588 -11.21570 -11.21534 -11.21478 -11.21380
 Alpha  occ. eigenvalues --  -11.21351 -11.21320 -11.21292 -11.21062 -11.21049
 Alpha  occ. eigenvalues --  -11.21027 -11.20920  -1.08416  -1.08368  -1.03543
 Alpha  occ. eigenvalues --   -1.03440  -0.95968  -0.95919  -0.87040  -0.86897
 Alpha  occ. eigenvalues --   -0.79770  -0.79398  -0.78294  -0.78091  -0.65032
 Alpha  occ. eigenvalues --   -0.65017  -0.60926  -0.60883  -0.59374  -0.59262
 Alpha  occ. eigenvalues --   -0.57563  -0.57552  -0.55256  -0.55206  -0.52745
 Alpha  occ. eigenvalues --   -0.52609  -0.52421  -0.52284  -0.49958  -0.49870
 Alpha  occ. eigenvalues --   -0.48070  -0.47685  -0.46618  -0.46559  -0.45910
 Alpha  occ. eigenvalues --   -0.45720  -0.45643  -0.45358  -0.43760  -0.43679
 Alpha virt. eigenvalues --    0.22252   0.23017   0.23871   0.24697   0.25525
 Alpha virt. eigenvalues --    0.26127   0.26978   0.27602   0.28010   0.29513
 Alpha virt. eigenvalues --    0.30065   0.30818   0.31826   0.31951   0.32174

 Mulliken charges:
               1
     1  C   -0.298269
     2  C   -0.300153
     3  C   -0.480723
     4  H    0.149156
     5  H    0.149535
     6  H    0.151397
     7  H    0.151134
     8  H    0.154346
     9  H    0.164534
    10  H    0.158048
    11  C   -0.298223
    12  C   -0.299592
    13  C   -0.475680
    14  H    0.149404
    15  H    0.149648
    16  H    0.151768
    17  H    0.151928
    18  H    0.155175
    19  H    0.155136
    20  H    0.160187
    21  C   -0.299137
    22  C   -0.299537
    23  C   -0.475612
    24  H    0.149210
    25  H    0.150854
    26  H    0.151798
    27  H    0.151832
    28  H    0.155030
    29  H    0.155149
    30  H    0.160107
    31  C   -0.297604
    32  C   -0.305918
    33  C   -0.475297
    34  H    0.148788
    35  H    0.149237
    36  H    0.150128
    37  H    0.162906
    38  H    0.154900
    39  H    0.154641
    40  H    0.159768
 Sum of Mulliken charges =  -0.00000

 Dipole moment (field-independent basis, Debye):
    X=              0.0179    Y=             -0.0033    Z=              0.0080  Tot=              0.0199
 Quadrupole moment (field-independent basis, Debye-Ang):
   XX=            -86.2155   YY=            -85.7008   ZZ=            -83.1915
   XY=              0.1410   XZ=             -0.0093   YZ=              0.0372

 Normal termination of Gaussian 16 at Thu May  6 03:59:44 2021.
