 Gaussian 16, Revision A.03,
 Gaussian 16:  EM64L-G16RevA.03 25-Dec-2016

 -------------
 #p 6-31g* mp2
 -------------

 ------------------------------------------------------
 Input file generated by CHIRIPA (05-May-2021 14:53:17)
 ------------------------------------------------------
 Symbolic Z-matrix:
 Charge =  0 Multiplicity = 1

                         Standard orientation:
 ---------------------------------------------------------------------
 Center     Atomic      Atomic             Coordinates (Angstroms)
 Number     Number       Type             X           Y           Z
 ---------------------------------------------------------------------
      1          6           0        3.486032    0.912589    0.450141
      2          6           0        2.971291    2.204536   -0.185392
      3          6           0        2.722856    3.310148    0.841105
      4          1           0        2.759985    0.564536    1.197576
      5          1           0        4.416875    1.125222    0.993937
      6          1           0        2.042433    1.989253   -0.728983
      7          1           0        3.698558    2.549451   -0.931538
      8          1           0        3.646440    3.553654    1.376175
      9          1           0        1.980905    2.990273    1.579880
     10          1           0        2.355318    4.224627    0.365181
     11          6           0        3.739133   -0.202107   -0.563329
     12          6           0        4.253874   -1.494053    0.072204
     13          6           0        4.502309   -2.599665   -0.954293
     14          1           0        2.808290   -0.414739   -1.107125
     15          1           0        4.465180    0.145947   -1.310764
     16          1           0        3.526608   -1.838968    0.818349
     17          1           0        5.182733   -1.278771    0.615795
     18          1           0        5.244261   -2.279790   -1.693068
     19          1           0        3.578726   -2.843171   -1.489363
     20          1           0        4.869847   -3.514144   -0.478369
     21          6           0       -0.585590   -1.234955    0.712240
     22          6           0       -0.645852   -0.080780   -0.075649
     23          6           0       -1.879644    0.458519   -0.451763
     24          6           0       -3.038570   -0.184972   -0.020369
     25          6           0       -3.011342   -1.336189    0.765284
     26          6           0       -1.766446   -1.857878    1.129457
     27          1           0        0.377162   -1.647055    0.999777
     28          1           0        0.269588    0.405104   -0.401117
     29          1           0       -1.955250    1.350911   -1.061139
     30          1           0       -3.941041   -1.798266    1.074414
     31          1           0       -1.722679   -2.754344    1.741402
     32          7           0       -4.350608    0.376638   -0.412223
     33          8           0       -5.357150   -0.209085   -0.019236
     34          8           0       -4.347599    1.391917   -1.104924
 ---------------------------------------------------------------------

 SCF Done:  E(RHF) =  -669.535355975     A.U. after   15 cycles
 E2 =    -0.2092312434D+01 EUMP2 =    -0.67162766840921D+03

 The electronic state is 1-A.
 Alpha  occ. eigenvalues --  -20.60753 -20.60748 -15.85806 -11.31177 -11.27747
 Alpha  occ. eigenvalues --  -11.27739 -11.27491 -11.26763 -11.26727 -11.22686
 Alpha  occ. eigenvalues --  -11.22670 -11.22527 -11.22467 -11.21936 -11.21864
 Alpha  occ. eigenvalues --   -1.59828  -1.39382  -1.19349  -1.09528  -1.08742
 Alpha  occ. eigenvalues --   -1.04755  -1.04520  -0.96937  -0.95577  -0.87947
 Alpha  occ. eigenvalues --   -0.86154  -0.82412  -0.80590  -0.79336  -0.77459
 Alpha  occ. eigenvalues --   -0.72025  -0.71151  -0.70465  -0.66325  -0.64999
 Alpha  occ. eigenvalues --   -0.64663  -0.62207  -0.61808  -0.60300  -0.58548
 Alpha  occ. eigenvalues --   -0.56227  -0.55257  -0.53599  -0.53343  -0.53081
 Alpha  occ. eigenvalues --   -0.52853  -0.50876  -0.48892  -0.48779  -0.48777
 Alpha  occ. eigenvalues --   -0.47656  -0.46838  -0.46812  -0.44793  -0.44786
 Alpha  occ. eigenvalues --   -0.37331  -0.36353
 Alpha virt. eigenvalues --    0.05076   0.11240   0.16559   0.17467   0.22136
 Alpha virt. eigenvalues --    0.23497   0.24914   0.25087   0.26899   0.28383
 Alpha virt. eigenvalues --    0.29568   0.30435   0.30888   0.31398   0.32418

 Mulliken charges:
               1
     1  C   -0.301872
     2  C   -0.302986
     3  C   -0.476814
     4  H    0.145096
     5  H    0.155836
     6  H    0.144123
     7  H    0.157872
     8  H    0.158520
     9  H    0.156553
    10  H    0.164339
    11  C   -0.301381
    12  C   -0.299955
    13  C   -0.476495
    14  H    0.144138
    15  H    0.155623
    16  H    0.145011
    17  H    0.156565
    18  H    0.158773
    19  H    0.155174
    20  H    0.162777
    21  C   -0.175746
    22  C   -0.228366
    23  C   -0.173295
    24  C    0.158897
    25  C   -0.171027
    26  C   -0.218630
    27  H    0.227770
    28  H    0.237409
    29  H    0.275827
    30  H    0.275585
    31  H    0.223493
    32  N    0.488053
    33  O   -0.460527
    34  O   -0.460338
 Sum of Mulliken charges =  -0.00000

 Dipole moment (field-independent basis, Debye):
    X=              4.8848    Y=             -1.9013    Z=              1.3775  Tot=              5.4197
 Quadrupole moment (field-independent basis, Debye-Ang):
   XX=           -120.1230   YY=            -91.8683   ZZ=            -94.5632
   XY=              7.8831   XZ=             -5.7168   YZ=             -2.8419

 Normal termination of Gaussian 16 at Wed May  5 22:01:47 2021.
