 Gaussian 16, Revision A.03,
 Gaussian 16:  EM64L-G16RevA.03 25-Dec-2016

 -------------
 #p 6-31g* mp2
 -------------

 ------------------------------------------------------
 Input file generated by CHIRIPA (05-May-2021 14:55:19)
 ------------------------------------------------------
 Symbolic Z-matrix:
 Charge =  0 Multiplicity = 1

                         Standard orientation:
 ---------------------------------------------------------------------
 Center     Atomic      Atomic             Coordinates (Angstroms)
 Number     Number       Type             X           Y           Z
 ---------------------------------------------------------------------
      1          6           0        0.682207   -0.709326   -0.465385
      2          6           0        1.663014   -1.686454   -0.265987
      3          6           0        2.994212   -1.321371   -0.044232
      4          6           0        3.310794    0.036130   -0.028218
      5          6           0        2.356307    1.033161   -0.223598
      6          6           0        1.031369    0.644976   -0.443593
      7          1           0       -0.349468   -1.001905   -0.636965
      8          1           0        1.394746   -2.738979   -0.282384
      9          1           0        3.773563   -2.057100    0.113034
     10          1           0        2.654230    2.074401   -0.201700
     11          1           0        0.271762    1.405999   -0.598144
     12          7           0        4.716761    0.434857    0.205612
     13          8           0        4.969920    1.637545    0.215033
     14          8           0        5.538975   -0.462860    0.375039
     15          6           0       -4.231225   -0.655070    0.223875
     16          6           0       -3.254230   -1.792328   -0.076312
     17          6           0       -3.848916   -3.172427    0.205591
     18          1           0       -4.540932   -0.714454    1.276254
     19          1           0       -5.140221   -0.793519   -0.377748
     20          1           0       -2.346779   -1.651017    0.524671
     21          1           0       -2.946664   -1.730117   -1.128049
     22          1           0       -4.742627   -3.338742   -0.404507
     23          1           0       -4.139335   -3.259193    1.257603
     24          1           0       -3.133613   -3.970657   -0.015838
     25          6           0       -3.651206    0.730806   -0.052980
     26          6           0       -4.628200    1.868065    0.247207
     27          6           0       -4.033514    3.248163   -0.034696
     28          1           0       -2.742209    0.869255    0.548643
     29          1           0       -3.341498    0.790190   -1.105359
     30          1           0       -4.935765    1.805853    1.298944
     31          1           0       -5.535650    1.726753   -0.353776
     32          1           0       -3.743095    3.334929   -1.086709
     33          1           0       -3.139802    3.414478    0.575402
     34          1           0       -4.748817    4.046393    0.186732
 ---------------------------------------------------------------------

 SCF Done:  E(RHF) =  -669.535721719     A.U. after   15 cycles
 E2 =    -0.2091726540D+01 EUMP2 =    -0.67162744825871D+03

 The electronic state is 1-A.
 Alpha  occ. eigenvalues --  -20.60692 -20.60687 -15.85746 -11.31088 -11.27660
 Alpha  occ. eigenvalues --  -11.27654 -11.27297 -11.26654 -11.26635 -11.22916
 Alpha  occ. eigenvalues --  -11.22536 -11.22465 -11.22434 -11.22110 -11.21875
 Alpha  occ. eigenvalues --   -1.59769  -1.39323  -1.19254  -1.09521  -1.08642
 Alpha  occ. eigenvalues --   -1.04657  -1.04563  -0.96976  -0.95486  -0.87995
 Alpha  occ. eigenvalues --   -0.86048  -0.82332  -0.80669  -0.79370  -0.77379
 Alpha  occ. eigenvalues --   -0.71963  -0.71093  -0.70343  -0.66132  -0.64899
 Alpha  occ. eigenvalues --   -0.64656  -0.62010  -0.61943  -0.60377  -0.58611
 Alpha  occ. eigenvalues --   -0.56243  -0.55171  -0.53648  -0.53395  -0.52987
 Alpha  occ. eigenvalues --   -0.52741  -0.50911  -0.48953  -0.48720  -0.48702
 Alpha  occ. eigenvalues --   -0.47685  -0.46855  -0.46790  -0.44820  -0.44734
 Alpha  occ. eigenvalues --   -0.37215  -0.36270
 Alpha virt. eigenvalues --    0.05136   0.11365   0.16567   0.19953   0.22433
 Alpha virt. eigenvalues --    0.22947   0.25317   0.25530   0.26932   0.27332
 Alpha virt. eigenvalues --    0.29758   0.30251   0.30496   0.31044   0.32098

 Mulliken charges:
               1
     1  C   -0.178728
     2  C   -0.221533
     3  C   -0.170790
     4  C    0.158177
     5  C   -0.170806
     6  C   -0.222968
     7  H    0.239143
     8  H    0.223000
     9  H    0.275114
    10  H    0.275165
    11  H    0.225022
    12  N    0.488044
    13  O   -0.460740
    14  O   -0.460776
    15  C   -0.297214
    16  C   -0.309670
    17  C   -0.474791
    18  H    0.154101
    19  H    0.153816
    20  H    0.150020
    21  H    0.149682
    22  H    0.159367
    23  H    0.159397
    24  H    0.159664
    25  C   -0.302815
    26  C   -0.299910
    27  C   -0.477002
    28  H    0.146881
    29  H    0.147433
    30  H    0.155171
    31  H    0.154926
    32  H    0.154867
    33  H    0.154137
    34  H    0.164615
 Sum of Mulliken charges =  -0.00000

 Dipole moment (field-independent basis, Debye):
    X=             -5.3018    Y=             -1.4089    Z=             -0.7737  Tot=              5.5401
 Quadrupole moment (field-independent basis, Debye-Ang):
   XX=           -126.5296   YY=            -90.9810   ZZ=            -94.6608
   XY=             -6.5487   XZ=             -2.3191   YZ=             -0.2167

 Normal termination of Gaussian 16 at Thu May  6 17:23:27 2021.
