 Gaussian 16, Revision A.03,
 Gaussian 16:  EM64L-G16RevA.03 25-Dec-2016

 -------------
 #p 6-31g* mp2
 -------------

 ------------------------------------------------------
 Input file generated by CHIRIPA (05-May-2021 14:57:22)
 ------------------------------------------------------
 Symbolic Z-matrix:
 Charge =  0 Multiplicity = 1

                         Standard orientation:
 ---------------------------------------------------------------------
 Center     Atomic      Atomic             Coordinates (Angstroms)
 Number     Number       Type             X           Y           Z
 ---------------------------------------------------------------------
      1          6           0       -4.460707    1.786178   -1.083500
      2          6           0       -3.315027    2.057376   -0.328257
      3          6           0       -2.649198    1.029357    0.345833
      4          6           0       -3.158871   -0.264026    0.242463
      5          6           0       -4.298054   -0.566019   -0.502085
      6          6           0       -4.947705    0.477653   -1.167855
      7          1           0       -4.971655    2.590848   -1.603918
      8          1           0       -2.934555    3.072638   -0.260958
      9          1           0       -1.760236    1.211255    0.937505
     10          1           0       -4.653486   -1.588154   -0.550338
     11          1           0       -5.837243    0.264097   -1.753654
     12          7           0       -2.462551   -1.360629    0.951687
     13          8           0       -2.931703   -2.491599    0.844717
     14          8           0       -1.460810   -1.068413    1.601118
     15          6           0        3.232742   -2.324274   -0.879147
     16          6           0        4.435054   -1.609476   -0.884371
     17          6           0        4.469513   -0.275014   -0.468951
     18          6           0        3.277586    0.316047   -0.052721
     19          6           0        2.063975   -0.369636   -0.036114
     20          6           0        2.053118   -1.703169   -0.455782
     21          1           0        3.215141   -3.360556   -1.203505
     22          1           0        5.352704   -2.089267   -1.212646
     23          1           0        5.386434    0.301733   -0.462935
     24          1           0        1.165432    0.135701    0.296564
     25          1           0        1.117934   -2.255841   -0.450670
     26          7           0        3.301573    1.728290    0.389313
     27          8           0        2.237793    2.226173    0.751422
     28          8           0        4.383698    2.310582    0.365302
 ---------------------------------------------------------------------

 SCF Done:  E(RHF) =  -868.340505711     A.U. after   16 cycles
 E2 =    -0.2598802441D+01 EUMP2 =    -0.87093930815250D+03

 The electronic state is 1-A.
 Alpha  occ. eigenvalues --  -20.61458 -20.61426 -20.60489 -20.60469 -15.86455
 Alpha  occ. eigenvalues --  -15.85525 -11.31507 -11.30641 -11.28055 -11.27986
 Alpha  occ. eigenvalues --  -11.27709 -11.27229 -11.27094 -11.27004 -11.26918
 Alpha  occ. eigenvalues --  -11.26890 -11.26215 -11.26034  -1.60511  -1.59555
 Alpha  occ. eigenvalues --   -1.40070  -1.39118  -1.19649  -1.18792  -1.09104
 Alpha  occ. eigenvalues --   -1.08240  -1.04990  -1.04139  -0.95986  -0.95114
 Alpha  occ. eigenvalues --   -0.86408  -0.85561  -0.82820  -0.81944  -0.77909
 Alpha  occ. eigenvalues --   -0.77015  -0.72673  -0.71831  -0.71754  -0.70868
 Alpha  occ. eigenvalues --   -0.70744  -0.69905  -0.65296  -0.64978  -0.64441
 Alpha  occ. eigenvalues --   -0.64130  -0.62332  -0.61474  -0.55505  -0.54679
 Alpha  occ. eigenvalues --   -0.53354  -0.53065  -0.52508  -0.52218  -0.49447
 Alpha  occ. eigenvalues --   -0.49405  -0.48518  -0.48483  -0.45532  -0.44577
 Alpha  occ. eigenvalues --   -0.37621  -0.36784  -0.36581  -0.35730
 Alpha virt. eigenvalues --    0.04538   0.05486   0.11035   0.11912   0.16103
 Alpha virt. eigenvalues --    0.17033   0.20791   0.22144   0.25848   0.27534
 Alpha virt. eigenvalues --    0.28335   0.29202   0.30822   0.31287   0.31997

 Mulliken charges:
               1
     1  C   -0.170034
     2  C   -0.218790
     3  C   -0.175420
     4  C    0.156103
     5  C   -0.171385
     6  C   -0.218632
     7  H    0.227716
     8  H    0.230292
     9  H    0.282535
    10  H    0.274765
    11  H    0.224210
    12  N    0.487234
    13  O   -0.458814
    14  O   -0.466145
    15  C   -0.171181
    16  C   -0.219138
    17  C   -0.171848
    18  C    0.157682
    19  C   -0.171445
    20  C   -0.219749
    21  H    0.225178
    22  H    0.221208
    23  H    0.273058
    24  H    0.279004
    25  H    0.232583
    26  N    0.488650
    27  O   -0.466033
    28  O   -0.461603
 Sum of Mulliken charges =  -0.00000

 Dipole moment (field-independent basis, Debye):
    X=             -2.8491    Y=             -1.0982    Z=             -4.0652  Tot=              5.0842
 Quadrupole moment (field-independent basis, Debye-Ang):
   XX=            -83.2638   YY=           -108.5629   ZZ=           -106.6927
   XY=            -26.0633   XZ=              2.8722   YZ=              2.5485

 Normal termination of Gaussian 16 at Thu May  6 09:42:50 2021.
