 Gaussian 16, Revision A.03,
 Gaussian 16:  EM64L-G16RevA.03 25-Dec-2016

 -------------
 #p 6-31g* mp2
 -------------

 ------------------------------------------------------
 Input file generated by CHIRIPA (05-May-2021 14:53:15)
 ------------------------------------------------------
 Symbolic Z-matrix:
 Charge =  0 Multiplicity = 1

                         Standard orientation:
 ---------------------------------------------------------------------
 Center     Atomic      Atomic             Coordinates (Angstroms)
 Number     Number       Type             X           Y           Z
 ---------------------------------------------------------------------
      1          6           0       -3.321122    0.838705   -0.380571
      2          6           0       -3.285136    2.235717    0.239951
      3          6           0       -2.983618    3.329997   -0.784468
      4          1           0       -2.356132    0.634309   -0.864266
      5          1           0       -4.079763    0.817475   -1.175183
      6          1           0       -2.527753    2.253915    1.034089
      7          1           0       -4.250257    2.436736    0.722391
      8          1           0       -3.744264    3.340783   -1.571807
      9          1           0       -2.011972    3.156925   -1.258338
     10          1           0       -2.962641    4.320526   -0.319417
     11          6           0       -3.621418   -0.265949    0.631008
     12          6           0       -3.657404   -1.662961    0.010487
     13          6           0       -3.958922   -2.757241    1.034905
     14          1           0       -2.862777   -0.244719    1.425620
     15          1           0       -4.586408   -0.061553    1.114703
     16          1           0       -2.692283   -1.863979   -0.471954
     17          1           0       -4.414787   -1.681159   -0.783652
     18          1           0       -4.930567   -2.584168    1.508775
     19          1           0       -3.198276   -2.768027    1.822244
     20          1           0       -3.979899   -3.747770    0.569855
     21          6           0        1.237699   -2.074681   -0.973359
     22          6           0        0.733437   -0.775485   -0.853654
     23          6           0        1.541237    0.257883   -0.369755
     24          6           0        2.854453   -0.044790   -0.013184
     25          6           0        3.385878   -1.329030   -0.120912
     26          6           0        2.559979   -2.346828   -0.607252
     27          1           0        0.603152   -2.871379   -1.350212
     28          1           0       -0.293073   -0.561218   -1.137220
     29          1           0        1.176457    1.272661   -0.266901
     30          1           0        4.413252   -1.511898    0.169744
     31          1           0        2.954278   -3.354859   -0.699150
     32          7           0        3.719214    1.040949    0.500390
     33          8           0        4.872700    0.748353    0.807791
     34          8           0        3.227153    2.163989    0.585806
 ---------------------------------------------------------------------

 SCF Done:  E(RHF) =  -669.535402758     A.U. after   15 cycles
 E2 =    -0.2091843721D+01 EUMP2 =    -0.67162724647828D+03

 The electronic state is 1-A.
 Alpha  occ. eigenvalues --  -20.60768 -20.60763 -15.85822 -11.31192 -11.27762
 Alpha  occ. eigenvalues --  -11.27758 -11.27501 -11.26774 -11.26748 -11.22501
 Alpha  occ. eigenvalues --  -11.22289 -11.22188 -11.22134 -11.21785 -11.21561
 Alpha  occ. eigenvalues --   -1.59844  -1.39397  -1.19364  -1.09216  -1.08756
 Alpha  occ. eigenvalues --   -1.04768  -1.04233  -0.96669  -0.95591  -0.87680
 Alpha  occ. eigenvalues --   -0.86169  -0.82427  -0.80301  -0.79046  -0.77471
 Alpha  occ. eigenvalues --   -0.72040  -0.71167  -0.70471  -0.65941  -0.65016
 Alpha  occ. eigenvalues --   -0.64721  -0.62112  -0.61632  -0.60039  -0.58281
 Alpha  occ. eigenvalues --   -0.55966  -0.55262  -0.53337  -0.53109  -0.53095
 Alpha  occ. eigenvalues --   -0.52846  -0.50614  -0.48803  -0.48795  -0.48611
 Alpha  occ. eigenvalues --   -0.47351  -0.46564  -0.46469  -0.44802  -0.44507
 Alpha  occ. eigenvalues --   -0.37342  -0.36370
 Alpha virt. eigenvalues --    0.05062   0.11233   0.16535   0.18442   0.22872
 Alpha virt. eigenvalues --    0.23177   0.24697   0.26324   0.27112   0.27538
 Alpha virt. eigenvalues --    0.29674   0.30709   0.31189   0.31252   0.31884

 Mulliken charges:
               1
     1  C   -0.302013
     2  C   -0.301264
     3  C   -0.475442
     4  H    0.140129
     5  H    0.152997
     6  H    0.154425
     7  H    0.155387
     8  H    0.156265
     9  H    0.152244
    10  H    0.165308
    11  C   -0.299749
    12  C   -0.299188
    13  C   -0.476463
    14  H    0.152450
    15  H    0.154118
    16  H    0.140998
    17  H    0.154450
    18  H    0.158663
    19  H    0.157315
    20  H    0.160126
    21  C   -0.172663
    22  C   -0.226932
    23  C   -0.173931
    24  C    0.158790
    25  C   -0.171073
    26  C   -0.218482
    27  H    0.226385
    28  H    0.235540
    29  H    0.275281
    30  H    0.275650
    31  H    0.223471
    32  N    0.488084
    33  O   -0.460464
    34  O   -0.460411
 Sum of Mulliken charges =  -0.00000

 Dipole moment (field-independent basis, Debye):
    X=             -3.2404    Y=             -3.7619    Z=             -1.7100  Tot=              5.2513
 Quadrupole moment (field-independent basis, Debye-Ang):
   XX=           -107.7162   YY=            -93.0570   ZZ=            -95.8361
   XY=            -14.2352   XZ=             -4.6959   YZ=              0.2968

 Normal termination of Gaussian 16 at Wed May  5 23:31:49 2021.
