 Gaussian 16, Revision A.03,
 Gaussian 16:  EM64L-G16RevA.03 25-Dec-2016

 -------------
 #p 6-31g* mp2
 -------------

 ------------------------------------------------------
 Input file generated by CHIRIPA (05-May-2021 14:55:21)
 ------------------------------------------------------
 Symbolic Z-matrix:
 Charge =  0 Multiplicity = 1

                         Standard orientation:
 ---------------------------------------------------------------------
 Center     Atomic      Atomic             Coordinates (Angstroms)
 Number     Number       Type             X           Y           Z
 ---------------------------------------------------------------------
      1          6           0       -4.692761   -1.836644   -0.000741
      2          6           0       -3.693644   -1.740993    0.973496
      3          6           0       -2.893721   -0.597692    1.060290
      4          6           0       -3.121308    0.435642    0.152702
      5          6           0       -4.108780    0.370197   -0.829085
      6          6           0       -4.896780   -0.782601   -0.897341
      7          1           0       -5.309529   -2.728476   -0.060965
      8          1           0       -3.532950   -2.558019    1.671128
      9          1           0       -2.113203   -0.497300    1.804690
     10          1           0       -4.245269    1.201056   -1.510599
     11          1           0       -5.671971   -0.854123   -1.654976
     12          7           0       -2.280776    1.651031    0.234775
     13          8           0       -2.501288    2.547547   -0.576564
     14          8           0       -1.417371    1.684123    1.108888
     15          6           0        4.892687   -0.399223   -0.413284
     16          6           0        5.929207    0.181309    0.549313
     17          6           0        7.365103   -0.022591    0.065139
     18          1           0        5.086940   -1.472129   -0.547763
     19          1           0        5.017501    0.067154   -1.400354
     20          1           0        5.801575   -0.285018    1.534637
     21          1           0        5.732349    1.252918    0.681667
     22          1           0        7.515707    0.457772   -0.907060
     23          1           0        7.585327   -1.088902   -0.049242
     24          1           0        8.089670    0.399962    0.768211
     25          6           0        3.452496   -0.203224    0.056995
     26          6           0        2.415976   -0.783756   -0.905602
     27          6           0        0.980081   -0.579855   -0.421427
     28          1           0        3.327682   -0.669599    1.044067
     29          1           0        3.258244    0.869682    0.191475
     30          1           0        2.612834   -1.855365   -1.037955
     31          1           0        2.543608   -0.317428   -1.890926
     32          1           0        0.759857    0.486456   -0.307047
     33          1           0        0.829476   -1.060219    0.550771
     34          1           0        0.255513   -1.002409   -1.124500
 ---------------------------------------------------------------------

 SCF Done:  E(RHF) =  -669.536131124     A.U. after   15 cycles
 E2 =    -0.2091527321D+01 EUMP2 =    -0.67162765844528D+03

 The electronic state is 1-A.
 Alpha  occ. eigenvalues --  -20.60846 -20.60832 -15.85863 -11.31193 -11.27762
 Alpha  occ. eigenvalues --  -11.27752 -11.27505 -11.26773 -11.26760 -11.21231
 Alpha  occ. eigenvalues --  -11.21117 -11.20981 -11.20855 -11.20768 -11.20435
 Alpha  occ. eigenvalues --   -1.59899  -1.39455  -1.19363  -1.08768  -1.07983
 Alpha  occ. eigenvalues --   -1.04762  -1.03086  -0.95619  -0.95523  -0.86555
 Alpha  occ. eigenvalues --   -0.86159  -0.82445  -0.79161  -0.77792  -0.77488
 Alpha  occ. eigenvalues --   -0.72094  -0.71209  -0.70476  -0.65021  -0.64770
 Alpha  occ. eigenvalues --   -0.64612  -0.62111  -0.60481  -0.58918  -0.57141
 Alpha  occ. eigenvalues --   -0.55272  -0.54811  -0.53101  -0.52858  -0.52242
 Alpha  occ. eigenvalues --   -0.51946  -0.49471  -0.48856  -0.48847  -0.47483
 Alpha  occ. eigenvalues --   -0.46205  -0.45384  -0.45268  -0.44696  -0.43354
 Alpha  occ. eigenvalues --   -0.37338  -0.36356
 Alpha virt. eigenvalues --    0.05017   0.11260   0.16500   0.21317   0.23305
 Alpha virt. eigenvalues --    0.24671   0.26715   0.27267   0.27729   0.28053
 Alpha virt. eigenvalues --    0.28867   0.30813   0.31576   0.32141   0.32277

 Mulliken charges:
               1
     1  C   -0.170649
     2  C   -0.218980
     3  C   -0.168930
     4  C    0.159144
     5  C   -0.171105
     6  C   -0.218728
     7  H    0.225576
     8  H    0.223437
     9  H    0.276466
    10  H    0.275469
    11  H    0.223379
    12  N    0.487972
    13  O   -0.459920
    14  O   -0.458630
    15  C   -0.298057
    16  C   -0.299517
    17  C   -0.475481
    18  H    0.147372
    19  H    0.149382
    20  H    0.151064
    21  H    0.153663
    22  H    0.155055
    23  H    0.153884
    24  H    0.159588
    25  C   -0.298401
    26  C   -0.299561
    27  C   -0.482858
    28  H    0.147732
    29  H    0.155566
    30  H    0.147379
    31  H    0.151830
    32  H    0.175528
    33  H    0.148208
    34  H    0.153123
 Sum of Mulliken charges =  -0.00000

 Dipole moment (field-independent basis, Debye):
    X=             -3.0756    Y=             -4.1413    Z=             -0.2494  Tot=              5.1645
 Quadrupole moment (field-independent basis, Debye-Ang):
   XX=            -77.1642   YY=            -97.5966   ZZ=            -92.0939
   XY=             11.5333   XZ=              3.0258   YZ=             -3.1253

 Normal termination of Gaussian 16 at Thu May  6 17:29:43 2021.
