 Gaussian 16, Revision A.03,
 Gaussian 16:  EM64L-G16RevA.03 25-Dec-2016

 -------------
 #p 6-31g* mp2
 -------------

 ------------------------------------------------------
 Input file generated by CHIRIPA (05-May-2021 14:53:17)
 ------------------------------------------------------
 Symbolic Z-matrix:
 Charge =  0 Multiplicity = 1

                         Standard orientation:
 ---------------------------------------------------------------------
 Center     Atomic      Atomic             Coordinates (Angstroms)
 Number     Number       Type             X           Y           Z
 ---------------------------------------------------------------------
      1          6           0        3.029490    1.172375   -0.331043
      2          6           0        1.813093    1.329822    0.581958
      3          6           0        0.964742    2.552459    0.230881
      4          1           0        3.646787    2.078999   -0.268423
      5          1           0        2.689648    1.096993   -1.373262
      6          1           0        2.155046    1.403496    1.622274
      7          1           0        1.198719    0.422639    0.517303
      8          1           0        0.595629    2.482816   -0.797470
      9          1           0        1.557390    3.469245    0.313778
     10          1           0        0.100540    2.645841    0.895934
     11          6           0        3.887444   -0.045439    0.007443
     12          6           0        5.103841   -0.202887   -0.905559
     13          6           0        5.952192   -1.425523   -0.554482
     14          1           0        4.227286    0.029943    1.049661
     15          1           0        3.270147   -0.952064   -0.055178
     16          1           0        5.718215    0.704296   -0.840904
     17          1           0        4.761888   -0.276560   -1.945874
     18          1           0        5.359544   -2.342310   -0.637379
     19          1           0        6.321305   -1.355881    0.473870
     20          1           0        6.816394   -1.518906   -1.219535
     21          6           0       -0.842794   -1.450029    1.501111
     22          6           0       -1.282862   -0.149206    1.767049
     23          6           0       -2.312230    0.420434    1.011760
     24          6           0       -2.881661   -0.342583   -0.006495
     25          6           0       -2.465186   -1.641112   -0.295737
     26          6           0       -1.434318   -2.190525    0.472381
     27          1           0       -0.042574   -1.884681    2.092821
     28          1           0       -0.825320    0.428208    2.565355
     29          1           0       -2.672306    1.425292    1.196213
     30          1           0       -2.940699   -2.192106   -1.098053
     31          1           0       -1.094588   -3.200989    0.263605
     32          7           0       -3.972201    0.249762   -0.812876
     33          8           0       -4.457483   -0.443228   -1.704451
     34          8           0       -4.321035    1.395814   -0.538075
 ---------------------------------------------------------------------

 SCF Done:  E(RHF) =  -669.534315329     A.U. after   15 cycles
 E2 =    -0.2093735215D+01 EUMP2 =    -0.67162805054377D+03

 The electronic state is 1-A.
 Alpha  occ. eigenvalues --  -20.60802 -20.60795 -15.85855 -11.31246 -11.27809
 Alpha  occ. eigenvalues --  -11.27791 -11.27537 -11.26844 -11.26811 -11.22006
 Alpha  occ. eigenvalues --  -11.21984 -11.21881 -11.21766 -11.21480 -11.21478
 Alpha  occ. eigenvalues --   -1.59876  -1.39428  -1.19428  -1.08898  -1.08791
 Alpha  occ. eigenvalues --   -1.04841  -1.03945  -0.96404  -0.95645  -0.87417
 Alpha  occ. eigenvalues --   -0.86227  -0.82473  -0.80030  -0.78706  -0.77515
 Alpha  occ. eigenvalues --   -0.72072  -0.71199  -0.70522  -0.65504  -0.65075
 Alpha  occ. eigenvalues --   -0.64830  -0.62200  -0.61361  -0.59794  -0.58049
 Alpha  occ. eigenvalues --   -0.55697  -0.55318  -0.53281  -0.52958  -0.52932
 Alpha  occ. eigenvalues --   -0.52796  -0.50329  -0.48834  -0.48826  -0.48349
 Alpha  occ. eigenvalues --   -0.47052  -0.46240  -0.46159  -0.44828  -0.44221
 Alpha  occ. eigenvalues --   -0.37325  -0.36371
 Alpha virt. eigenvalues --    0.04974   0.11193   0.16347   0.20496   0.22614
 Alpha virt. eigenvalues --    0.23916   0.25855   0.26376   0.26721   0.28431
 Alpha virt. eigenvalues --    0.28532   0.30518   0.31172   0.31434   0.32189

 Mulliken charges:
               1
     1  C   -0.297680
     2  C   -0.308563
     3  C   -0.473313
     4  H    0.150759
     5  H    0.152108
     6  H    0.144603
     7  H    0.159496
     8  H    0.160593
     9  H    0.156781
    10  H    0.151622
    11  C   -0.297824
    12  C   -0.299921
    13  C   -0.475756
    14  H    0.147857
    15  H    0.145502
    16  H    0.153504
    17  H    0.153480
    18  H    0.153607
    19  H    0.154828
    20  H    0.162030
    21  C   -0.173215
    22  C   -0.214470
    23  C   -0.169807
    24  C    0.157990
    25  C   -0.171422
    26  C   -0.218779
    27  H    0.227186
    28  H    0.225793
    29  H    0.275778
    30  H    0.275774
    31  H    0.223750
    32  N    0.488053
    33  O   -0.460405
    34  O   -0.459938
 Sum of Mulliken charges =  -0.00000

 Dipole moment (field-independent basis, Debye):
    X=              3.8263    Y=             -2.0995    Z=              2.7778  Tot=              5.1735
 Quadrupole moment (field-independent basis, Debye-Ang):
   XX=           -117.8445   YY=            -90.3891   ZZ=            -93.4955
   XY=              5.9704   XZ=             -8.0399   YZ=              1.9295

 Normal termination of Gaussian 16 at Wed May  5 15:46:30 2021.
