 Gaussian 16, Revision A.03,
 Gaussian 16:  EM64L-G16RevA.03 25-Dec-2016

 -------------
 #p 6-31g* mp2
 -------------

 ------------------------------------------------------
 Input file generated by CHIRIPA (05-May-2021 14:51:10)
 ------------------------------------------------------
 Symbolic Z-matrix:
 Charge =  0 Multiplicity = 1

                         Standard orientation:
 ---------------------------------------------------------------------
 Center     Atomic      Atomic             Coordinates (Angstroms)
 Number     Number       Type             X           Y           Z
 ---------------------------------------------------------------------
      1          6           0        2.631333   -0.312154    0.233630
      2          6           0        1.988295   -0.997903    1.439547
      3          6           0        0.461040   -0.930122    1.413256
      4          1           0        2.309967    0.737942    0.202527
      5          1           0        2.258397   -0.780584   -0.687720
      6          1           0        2.363388   -0.529234    2.358389
      7          1           0        2.311381   -2.046439    1.467892
      8          1           0        0.069336   -1.415088    0.513269
      9          1           0        0.121638    0.110738    1.408825
     10          1           0        0.022099   -1.426386    2.284413
     11          6           0        4.157785   -0.371546    0.245674
     12          6           0        4.800824    0.314204   -0.960243
     13          6           0        6.328079    0.246422   -0.933953
     14          1           0        4.530721    0.096885    1.167024
     15          1           0        4.479152   -1.421642    0.276777
     16          1           0        4.477737    1.362740   -0.988588
     17          1           0        4.425731   -0.154465   -1.879085
     18          1           0        6.667480   -0.794437   -0.929522
     19          1           0        6.719782    0.731388   -0.033965
     20          1           0        6.767020    0.742686   -1.805109
     21          6           0       -3.250898   -0.382250   -0.435799
     22          6           0       -4.479419   -1.288623   -0.350885
     23          6           0       -4.176075   -2.734099   -0.746327
     24          1           0       -2.854092   -0.408161   -1.459917
     25          1           0       -2.462027   -0.783654    0.215318
     26          1           0       -5.266227   -0.884863   -1.000905
     27          1           0       -4.873459   -1.260400    0.673103
     28          1           0       -3.409028   -3.159808   -0.091337
     29          1           0       -3.804028   -2.782137   -1.774857
     30          1           0       -5.068152   -3.364536   -0.678450
     31          6           0       -3.538220    1.065949   -0.043505
     32          6           0       -2.309701    1.972322   -0.128419
     33          6           0       -2.613044    3.417799    0.267024
     34          1           0       -4.327091    1.467353   -0.694622
     35          1           0       -3.935026    1.091861    0.980614
     36          1           0       -1.915660    1.944100   -1.152407
     37          1           0       -1.522891    1.568563    0.521601
     38          1           0       -2.985092    3.465836    1.295553
     39          1           0       -3.380091    3.843507   -0.387967
     40          1           0       -1.720967    4.048235    0.199146
 ---------------------------------------------------------------------

 SCF Done:  E(RHF) =  -470.732880385     A.U. after   11 cycles
 E2 =    -0.1583360145D+01 EUMP2 =    -0.47231624052986D+03

 The electronic state is 1-A.
 Alpha  occ. eigenvalues --  -11.21631 -11.21608 -11.21537 -11.21529 -11.21416
 Alpha  occ. eigenvalues --  -11.21356 -11.21322 -11.21241 -11.21110 -11.21076
 Alpha  occ. eigenvalues --  -11.21041 -11.21032  -1.08449  -1.08358  -1.03555
 Alpha  occ. eigenvalues --   -1.03476  -0.96013  -0.95921  -0.87033  -0.86943
 Alpha  occ. eigenvalues --   -0.79647  -0.79534  -0.78300  -0.78115  -0.65085
 Alpha  occ. eigenvalues --   -0.64992  -0.61039  -0.60809  -0.59381  -0.59288
 Alpha  occ. eigenvalues --   -0.57629  -0.57530  -0.55340  -0.55179  -0.52722
 Alpha  occ. eigenvalues --   -0.52649  -0.52435  -0.52344  -0.50063  -0.49780
 Alpha  occ. eigenvalues --   -0.48049  -0.47833  -0.46780  -0.46407  -0.45976
 Alpha  occ. eigenvalues --   -0.45711  -0.45684  -0.45328  -0.43803  -0.43720
 Alpha virt. eigenvalues --    0.21806   0.22976   0.23856   0.24236   0.25447
 Alpha virt. eigenvalues --    0.26547   0.27048   0.27593   0.28010   0.29316
 Alpha virt. eigenvalues --    0.29781   0.31665   0.31740   0.31921   0.32117

 Mulliken charges:
               1
     1  C   -0.298311
     2  C   -0.300239
     3  C   -0.482653
     4  H    0.149776
     5  H    0.149871
     6  H    0.151835
     7  H    0.152073
     8  H    0.157486
     9  H    0.160654
    10  H    0.159700
    11  C   -0.298322
    12  C   -0.299654
    13  C   -0.475717
    14  H    0.149496
    15  H    0.149684
    16  H    0.151996
    17  H    0.151982
    18  H    0.155190
    19  H    0.155180
    20  H    0.160282
    21  C   -0.305930
    22  C   -0.299193
    23  C   -0.475807
    24  H    0.148551
    25  H    0.159922
    26  H    0.151557
    27  H    0.151690
    28  H    0.155096
    29  H    0.154807
    30  H    0.160065
    31  C   -0.297354
    32  C   -0.306740
    33  C   -0.475173
    34  H    0.149108
    35  H    0.149158
    36  H    0.151735
    37  H    0.158558
    38  H    0.154909
    39  H    0.155169
    40  H    0.159562
 Sum of Mulliken charges =  -0.00000

 Dipole moment (field-independent basis, Debye):
    X=              0.0354    Y=             -0.0156    Z=              0.0108  Tot=              0.0402
 Quadrupole moment (field-independent basis, Debye-Ang):
   XX=            -86.1495   YY=            -85.2206   ZZ=            -83.6696
   XY=              0.0314   XZ=              0.3279   YZ=             -0.0229

 Normal termination of Gaussian 16 at Thu May  6 03:49:16 2021.
