 Gaussian 16, Revision A.03,
 Gaussian 16:  EM64L-G16RevA.03 25-Dec-2016

 -------------
 #p 6-31g* mp2
 -------------

 ------------------------------------------------------
 Input file generated by CHIRIPA (05-May-2021 14:53:13)
 ------------------------------------------------------
 Symbolic Z-matrix:
 Charge =  0 Multiplicity = 1

                         Standard orientation:
 ---------------------------------------------------------------------
 Center     Atomic      Atomic             Coordinates (Angstroms)
 Number     Number       Type             X           Y           Z
 ---------------------------------------------------------------------
      1          6           0        3.159339    0.639227    0.030895
      2          6           0        3.171281    1.894756    0.903529
      3          6           0        1.890879    2.719697    0.769970
      4          1           0        3.017388    0.931216   -1.018646
      5          1           0        2.293196    0.020243    0.303018
      6          1           0        4.037921    2.510520    0.630791
      7          1           0        3.313411    1.599758    1.951093
      8          1           0        1.018190    2.126409    1.061557
      9          1           0        1.746817    3.042345   -0.266247
     10          1           0        1.920762    3.612542    1.402263
     11          6           0        4.432622   -0.195902    0.153521
     12          6           0        4.420680   -1.451431   -0.719113
     13          6           0        5.701081   -2.276372   -0.585554
     14          1           0        5.298764    0.423082   -0.118602
     15          1           0        4.574572   -0.487891    1.203062
     16          1           0        4.278550   -1.156433   -1.766677
     17          1           0        3.554040   -2.067194   -0.446375
     18          1           0        5.845144   -2.599020    0.450663
     19          1           0        6.573771   -1.683084   -0.877141
     20          1           0        5.671199   -3.169217   -1.217847
     21          6           0       -3.578787   -2.526916    0.598659
     22          6           0       -2.242386   -2.115263    0.631789
     23          6           0       -1.891077   -0.813481    0.262338
     24          6           0       -2.906330    0.054377   -0.136879
     25          6           0       -4.246753   -0.325965   -0.180420
     26          6           0       -4.574948   -1.632530    0.193375
     27          1           0       -3.842715   -3.540029    0.887345
     28          1           0       -1.466650   -2.807707    0.946115
     29          1           0       -0.864365   -0.468500    0.278690
     30          1           0       -4.997873    0.386946   -0.498218
     31          1           0       -5.613641   -1.949469    0.166672
     32          7           0       -2.546649    1.435048   -0.530298
     33          8           0       -3.459808    2.180510   -0.878241
     34          8           0       -1.358384    1.745611   -0.483270
 ---------------------------------------------------------------------

 SCF Done:  E(RHF) =  -669.535626492     A.U. after   15 cycles
 E2 =    -0.2091365856D+01 EUMP2 =    -0.67162699234804D+03

 The electronic state is 1-A.
 Alpha  occ. eigenvalues --  -20.60832 -20.60827 -15.85871 -11.31236 -11.27808
 Alpha  occ. eigenvalues --  -11.27802 -11.27549 -11.26822 -11.26812 -11.21576
 Alpha  occ. eigenvalues --  -11.21218 -11.21088 -11.21073 -11.20991 -11.19940
 Alpha  occ. eigenvalues --   -1.59901  -1.39456  -1.19409  -1.08806  -1.08151
 Alpha  occ. eigenvalues --   -1.04812  -1.03140  -0.95656  -0.95540  -0.86561
 Alpha  occ. eigenvalues --   -0.86210  -0.82475  -0.79229  -0.77947  -0.77503
 Alpha  occ. eigenvalues --   -0.72095  -0.71220  -0.70519  -0.65065  -0.64836
 Alpha  occ. eigenvalues --   -0.64777  -0.62162  -0.60544  -0.58995  -0.57155
 Alpha  occ. eigenvalues --   -0.55315  -0.54837  -0.53141  -0.52906  -0.52240
 Alpha  occ. eigenvalues --   -0.51946  -0.49510  -0.48855  -0.48843  -0.47492
 Alpha  occ. eigenvalues --   -0.46290  -0.45464  -0.45399  -0.44819  -0.43422
 Alpha  occ. eigenvalues --   -0.37390  -0.36415
 Alpha virt. eigenvalues --    0.04993   0.11236   0.16474   0.20243   0.22861
 Alpha virt. eigenvalues --    0.23972   0.25698   0.27364   0.27620   0.28417
 Alpha virt. eigenvalues --    0.29218   0.30526   0.31564   0.32010   0.32423

 Mulliken charges:
               1
     1  C   -0.295466
     2  C   -0.301600
     3  C   -0.475120
     4  H    0.153688
     5  H    0.140392
     6  H    0.150058
     7  H    0.147052
     8  H    0.164602
     9  H    0.162977
    10  H    0.155857
    11  C   -0.298027
    12  C   -0.298345
    13  C   -0.475438
    14  H    0.150688
    15  H    0.147725
    16  H    0.153348
    17  H    0.146298
    18  H    0.154178
    19  H    0.156293
    20  H    0.159055
    21  C   -0.170568
    22  C   -0.219199
    23  C   -0.173077
    24  C    0.157691
    25  C   -0.170603
    26  C   -0.218679
    27  H    0.225784
    28  H    0.223656
    29  H    0.278450
    30  H    0.275741
    31  H    0.223629
    32  N    0.491152
    33  O   -0.459843
    34  O   -0.462349
 Sum of Mulliken charges =  -0.00000

 Dipole moment (field-independent basis, Debye):
    X=             -1.4155    Y=             -4.7518    Z=              1.3080  Tot=              5.1278
 Quadrupole moment (field-independent basis, Debye-Ang):
   XX=            -83.6735   YY=            -95.8191   ZZ=            -95.3543
   XY=             14.1534   XZ=             -3.4813   YZ=             -0.1261

 Normal termination of Gaussian 16 at Thu May  6 17:01:44 2021.
