 Gaussian 16, Revision A.03,
 Gaussian 16:  EM64L-G16RevA.03 25-Dec-2016

 -------------
 #p 6-31g* mp2
 -------------

 ------------------------------------------------------
 Input file generated by CHIRIPA (05-May-2021 14:51:14)
 ------------------------------------------------------
 Symbolic Z-matrix:
 Charge =  0 Multiplicity = 1

                         Standard orientation:
 ---------------------------------------------------------------------
 Center     Atomic      Atomic             Coordinates (Angstroms)
 Number     Number       Type             X           Y           Z
 ---------------------------------------------------------------------
      1          6           0       -2.070804   -0.391588    0.734807
      2          6           0       -2.575717   -1.736560    1.258352
      3          6           0       -1.632396   -2.362775    2.285871
      4          1           0       -1.077344   -0.529408    0.286491
      5          1           0       -1.939158    0.297232    1.580734
      6          1           0       -2.707690   -2.422201    0.411537
      7          1           0       -3.568173   -1.595557    1.705303
      8          1           0       -1.508761   -1.700787    3.149055
      9          1           0       -0.643389   -2.532128    1.847939
     10          1           0       -2.012627   -3.323500    2.646830
     11          6           0       -3.003079    0.246944   -0.293234
     12          6           0       -2.498166    1.591916   -0.816779
     13          6           0       -3.441487    2.218131   -1.844298
     14          1           0       -3.134725   -0.441876   -1.139161
     15          1           0       -3.996539    0.384764    0.155082
     16          1           0       -1.505710    1.450914   -1.263730
     17          1           0       -2.366193    2.277557    0.030036
     18          1           0       -4.430494    2.387484   -1.406366
     19          1           0       -3.565122    1.556144   -2.707482
     20          1           0       -3.061256    3.178857   -2.205257
     21          6           0        2.972304    0.522231    0.216789
     22          6           0        2.213227    1.709993    0.809250
     23          6           0        3.097650    2.600776    1.682231
     24          1           0        3.402975   -0.073604    1.033151
     25          1           0        3.817852    0.895827   -0.377239
     26          1           0        1.368546    1.334310    1.400851
     27          1           0        1.784151    2.302963   -0.008611
     28          1           0        3.932900    3.003282    1.100040
     29          1           0        3.514933    2.029125    2.517510
     30          1           0        2.534881    3.443596    2.095516
     31          6           0        2.101579   -0.377588   -0.658362
     32          6           0        2.860656   -1.565349   -1.250823
     33          6           0        1.976233   -2.456132   -2.123803
     34          1           0        1.256030   -0.751184   -0.064334
     35          1           0        1.670908    0.218248   -1.474724
     36          1           0        3.289731   -2.158320   -0.432963
     37          1           0        3.705338   -1.189666   -1.842424
     38          1           0        1.558950   -1.884482   -2.959083
     39          1           0        1.140982   -2.858639   -1.541613
     40          1           0        2.539002   -3.298953   -2.537089
 ---------------------------------------------------------------------

 SCF Done:  E(RHF) =  -470.733385259     A.U. after   11 cycles
 E2 =    -0.1583728175D+01 EUMP2 =    -0.47231711343451D+03

 The electronic state is 1-A.
 Alpha  occ. eigenvalues --  -11.21651 -11.21614 -11.21576 -11.21565 -11.21439
 Alpha  occ. eigenvalues --  -11.21375 -11.21372 -11.21313 -11.21137 -11.21127
 Alpha  occ. eigenvalues --  -11.21059 -11.21052  -1.08474  -1.08404  -1.03552
 Alpha  occ. eigenvalues --   -1.03528  -0.96011  -0.95976  -0.87026  -0.86994
 Alpha  occ. eigenvalues --   -0.79623  -0.79576  -0.78439  -0.78078  -0.65180
 Alpha  occ. eigenvalues --   -0.64970  -0.60978  -0.60895  -0.59380  -0.59341
 Alpha  occ. eigenvalues --   -0.57645  -0.57564  -0.55344  -0.55228  -0.52707
 Alpha  occ. eigenvalues --   -0.52668  -0.52463  -0.52380  -0.49993  -0.49890
 Alpha  occ. eigenvalues --   -0.47984  -0.47879  -0.46762  -0.46584  -0.46331
 Alpha  occ. eigenvalues --   -0.45752  -0.45709  -0.45068  -0.43809  -0.43773
 Alpha virt. eigenvalues --    0.20287   0.23165   0.23507   0.24316   0.24995
 Alpha virt. eigenvalues --    0.26478   0.26739   0.27818   0.27940   0.30566
 Alpha virt. eigenvalues --    0.30819   0.31579   0.31775   0.31914   0.32092

 Mulliken charges:
               1
     1  C   -0.308169
     2  C   -0.299220
     3  C   -0.476542
     4  H    0.159667
     5  H    0.149044
     6  H    0.151908
     7  H    0.152113
     8  H    0.155244
     9  H    0.154232
    10  H    0.160719
    11  C   -0.297580
    12  C   -0.300583
    13  C   -0.475755
    14  H    0.149508
    15  H    0.149432
    16  H    0.153224
    17  H    0.151977
    18  H    0.155109
    19  H    0.155102
    20  H    0.160014
    21  C   -0.297683
    22  C   -0.301210
    23  C   -0.475769
    24  H    0.149705
    25  H    0.149550
    26  H    0.154105
    27  H    0.152169
    28  H    0.155048
    29  H    0.155152
    30  H    0.160237
    31  C   -0.307159
    32  C   -0.298998
    33  C   -0.475941
    34  H    0.157309
    35  H    0.149348
    36  H    0.152142
    37  H    0.152289
    38  H    0.155111
    39  H    0.154352
    40  H    0.160801
 Sum of Mulliken charges =  -0.00000

 Dipole moment (field-independent basis, Debye):
    X=              0.0162    Y=              0.0017    Z=             -0.0007  Tot=              0.0163
 Quadrupole moment (field-independent basis, Debye-Ang):
   XX=            -85.0961   YY=            -85.1512   ZZ=            -84.5505
   XY=             -0.1526   XZ=             -1.3661   YZ=             -0.1328

 Normal termination of Gaussian 16 at Wed May  5 15:24:26 2021.
