 Gaussian 16, Revision A.03,
 Gaussian 16:  EM64L-G16RevA.03 25-Dec-2016

 -------------
 #p 6-31g* mp2
 -------------

 ------------------------------------------------------
 Input file generated by CHIRIPA (05-May-2021 14:57:25)
 ------------------------------------------------------
 Symbolic Z-matrix:
 Charge =  0 Multiplicity = 1

                         Standard orientation:
 ---------------------------------------------------------------------
 Center     Atomic      Atomic             Coordinates (Angstroms)
 Number     Number       Type             X           Y           Z
 ---------------------------------------------------------------------
      1          6           0        1.345525    1.835412    0.083343
      2          6           0        2.304956    1.928243    1.096948
      3          6           0        3.461160    1.143441    1.054219
      4          6           0        3.626449    0.272511   -0.021630
      5          6           0        2.688783    0.157331   -1.046719
      6          6           0        1.540158    0.951810   -0.983375
      7          1           0        0.450302    2.448823    0.124543
      8          1           0        2.156450    2.613588    1.926582
      9          1           0        4.220013    1.195288    1.825498
     10          1           0        2.864721   -0.535039   -1.861020
     11          1           0        0.796738    0.877617   -1.771961
     12          7           0        4.846458   -0.563446   -0.077778
     13          8           0        4.968523   -1.322982   -1.036341
     14          8           0        5.657536   -0.443305    0.837840
     15          6           0       -1.375014   -1.869906    0.189716
     16          6           0       -2.308339   -1.844418    1.231241
     17          6           0       -3.448026   -1.039425    1.143788
     18          6           0       -3.623598   -0.269176   -0.004768
     19          6           0       -2.711853   -0.272970   -1.059280
     20          6           0       -1.579390   -1.085484   -0.950211
     21          1           0       -0.492484   -2.498165    0.266047
     22          1           0       -2.152213   -2.452567    2.117709
     23          1           0       -4.186591   -1.000634    1.935266
     24          1           0       -2.894826    0.344266   -1.930462
     25          1           0       -0.856235   -1.103280   -1.760628
     26          7           0       -4.826310    0.587015   -0.108792
     27          8           0       -4.957907    1.256315   -1.131219
     28          8           0       -5.614625    0.572584    0.834070
 ---------------------------------------------------------------------

 SCF Done:  E(RHF) =  -868.337147634     A.U. after   16 cycles
 E2 =    -0.2600601496D+01 EUMP2 =    -0.87093774913014D+03

 The electronic state is 1-A.
 Alpha  occ. eigenvalues --  -20.61362 -20.61351 -20.61330 -20.61318 -15.86416
 Alpha  occ. eigenvalues --  -15.86383 -11.31832 -11.31791 -11.28456 -11.28411
 Alpha  occ. eigenvalues --  -11.28370 -11.28327 -11.28096 -11.28049 -11.27479
 Alpha  occ. eigenvalues --  -11.27428 -11.27352 -11.27311  -1.60436  -1.60404
 Alpha  occ. eigenvalues --   -1.39988  -1.39956  -1.20014  -1.19960  -1.09385
 Alpha  occ. eigenvalues --   -1.09322  -1.05461  -1.05359  -0.96201  -0.96161
 Alpha  occ. eigenvalues --   -0.86871  -0.86711  -0.83070  -0.82984  -0.78158
 Alpha  occ. eigenvalues --   -0.78009  -0.72627  -0.72595  -0.71767  -0.71734
 Alpha  occ. eigenvalues --   -0.71066  -0.71023  -0.65666  -0.65649  -0.65602
 Alpha  occ. eigenvalues --   -0.65203  -0.62916  -0.62586  -0.55875  -0.55801
 Alpha  occ. eigenvalues --   -0.53932  -0.53636  -0.53577  -0.53276  -0.49394
 Alpha  occ. eigenvalues --   -0.49383  -0.49357  -0.49349  -0.45383  -0.45353
 Alpha  occ. eigenvalues --   -0.38185  -0.37773  -0.37213  -0.36717
 Alpha virt. eigenvalues --    0.04428   0.04488   0.10126   0.11128   0.15807
 Alpha virt. eigenvalues --    0.15987   0.19330   0.21742   0.25024   0.27449
 Alpha virt. eigenvalues --    0.28057   0.28244   0.29752   0.31531   0.32047

 Mulliken charges:
               1
     1  C   -0.169083
     2  C   -0.219045
     3  C   -0.170839
     4  C    0.158327
     5  C   -0.176317
     6  C   -0.216960
     7  H    0.230674
     8  H    0.226483
     9  H    0.277204
    10  H    0.273333
    11  H    0.217521
    12  N    0.487892
    13  O   -0.461092
    14  O   -0.458506
    15  C   -0.168591
    16  C   -0.219066
    17  C   -0.170745
    18  C    0.158195
    19  C   -0.176395
    20  C   -0.217965
    21  H    0.230764
    22  H    0.226680
    23  H    0.277349
    24  H    0.273818
    25  H    0.217838
    26  N    0.487862
    27  O   -0.460905
    28  O   -0.458429
 Sum of Mulliken charges =  -0.00000

 Dipole moment (field-independent basis, Debye):
    X=             -0.0747    Y=             -0.0659    Z=              0.7997  Tot=              0.8059
 Quadrupole moment (field-independent basis, Debye-Ang):
   XX=           -166.9229   YY=           -101.1382   ZZ=            -97.4826
   XY=             20.9534   XZ=             -0.5581   YZ=              0.2511

 Normal termination of Gaussian 16 at Fri May  7 06:33:42 2021.
