 Gaussian 16, Revision A.03,
 Gaussian 16:  EM64L-G16RevA.03 25-Dec-2016

 -------------
 #p 6-31g* mp2
 -------------

 ------------------------------------------------------
 Input file generated by CHIRIPA (05-May-2021 14:53:14)
 ------------------------------------------------------
 Symbolic Z-matrix:
 Charge =  0 Multiplicity = 1

                         Standard orientation:
 ---------------------------------------------------------------------
 Center     Atomic      Atomic             Coordinates (Angstroms)
 Number     Number       Type             X           Y           Z
 ---------------------------------------------------------------------
      1          6           0       -4.235514   -0.448342    0.401965
      2          6           0       -2.872205    0.233466    0.522419
      3          6           0       -1.751394   -0.744443    0.876355
      4          1           0       -4.471691   -0.951589    1.349545
      5          1           0       -4.178179   -1.234457   -0.363627
      6          1           0       -2.932472    1.018987    1.286579
      7          1           0       -2.639332    0.735309   -0.425495
      8          1           0       -1.662341   -1.521841    0.110638
      9          1           0       -1.957147   -1.236551    1.832439
     10          1           0       -0.785640   -0.235913    0.957451
     11          6           0       -5.366161    0.516263    0.048548
     12          6           0       -6.729471   -0.165545   -0.071906
     13          6           0       -7.850282    0.812364   -0.425842
     14          1           0       -5.423496    1.302378    0.814140
     15          1           0       -5.129984    1.019509   -0.899032
     16          1           0       -6.962343   -0.667388    0.876008
     17          1           0       -6.669203   -0.951066   -0.836066
     18          1           0       -7.644529    1.304472   -1.381926
     19          1           0       -7.939334    1.589762    0.339875
     20          1           0       -8.816035    0.303833   -0.506938
     21          6           0        5.897631    1.156292    0.421798
     22          6           0        5.815730   -0.236757    0.517852
     23          6           0        4.631212   -0.902695    0.189226
     24          6           0        3.543093   -0.140882   -0.233773
     25          6           0        3.593525    1.248186   -0.339766
     26          6           0        4.788224    1.893019   -0.005950
     27          1           0        6.821748    1.665410    0.679099
     28          1           0        6.675719   -0.811480    0.849753
     29          1           0        4.540304   -1.980142    0.254505
     30          1           0        2.719472    1.794012   -0.673718
     31          1           0        4.848947    2.974984   -0.081498
     32          7           0        2.283708   -0.834709   -0.584422
     33          8           0        1.339234   -0.140684   -0.954470
     34          8           0        2.264922   -2.059418   -0.482573
 ---------------------------------------------------------------------

 SCF Done:  E(RHF) =  -669.535867631     A.U. after   15 cycles
 E2 =    -0.2090903879D+01 EUMP2 =    -0.67162677150975D+03

 The electronic state is 1-A.
 Alpha  occ. eigenvalues --  -20.60904 -20.60898 -15.85931 -11.31273 -11.27839
 Alpha  occ. eigenvalues --  -11.27834 -11.27579 -11.26850 -11.26840 -11.21006
 Alpha  occ. eigenvalues --  -11.20659 -11.20588 -11.20465 -11.20403 -11.19456
 Alpha  occ. eigenvalues --   -1.59962  -1.39519  -1.19443  -1.08844  -1.07575
 Alpha  occ. eigenvalues --   -1.04842  -1.02590  -0.95685  -0.95016  -0.86242
 Alpha  occ. eigenvalues --   -0.86033  -0.82516  -0.78692  -0.77567  -0.77361
 Alpha  occ. eigenvalues --   -0.72154  -0.71281  -0.70552  -0.65098  -0.64845
 Alpha  occ. eigenvalues --   -0.64213  -0.62189  -0.59988  -0.58447  -0.56622
 Alpha  occ. eigenvalues --   -0.55346  -0.54310  -0.53175  -0.52934  -0.51700
 Alpha  occ. eigenvalues --   -0.51451  -0.49082  -0.48910  -0.48781  -0.46997
 Alpha  occ. eigenvalues --   -0.45743  -0.44947  -0.44867  -0.44806  -0.42810
 Alpha  occ. eigenvalues --   -0.37422  -0.36444
 Alpha virt. eigenvalues --    0.04939   0.11210   0.16418   0.21343   0.23668
 Alpha virt. eigenvalues --    0.25316   0.27260   0.27463   0.28175   0.28319
 Alpha virt. eigenvalues --    0.29049   0.30885   0.32314   0.32403   0.32553

 Mulliken charges:
               1
     1  C   -0.297707
     2  C   -0.300226
     3  C   -0.472649
     4  H    0.146985
     5  H    0.150501
     6  H    0.144791
     7  H    0.154326
     8  H    0.164080
     9  H    0.144441
    10  H    0.167366
    11  C   -0.297487
    12  C   -0.299041
    13  C   -0.475212
    14  H    0.147089
    15  H    0.149039
    16  H    0.150820
    17  H    0.151954
    18  H    0.154560
    19  H    0.153873
    20  H    0.158573
    21  C   -0.170657
    22  C   -0.218551
    23  C   -0.170803
    24  C    0.158375
    25  C   -0.171019
    26  C   -0.218519
    27  H    0.225915
    28  H    0.223766
    29  H    0.275895
    30  H    0.275661
    31  H    0.223763
    32  N    0.487897
    33  O   -0.459043
    34  O   -0.458755
 Sum of Mulliken charges =  -0.00000

 Dipole moment (field-independent basis, Debye):
    X=              4.7592    Y=              2.3937    Z=              1.1343  Tot=              5.4467
 Quadrupole moment (field-independent basis, Debye-Ang):
   XX=            -64.8738   YY=            -92.0270   ZZ=            -95.2464
   XY=              6.6857   XZ=              3.8910   YZ=             -1.4751

 Normal termination of Gaussian 16 at Wed May  5 20:14:13 2021.
