 Gaussian 16, Revision A.03,
 Gaussian 16:  EM64L-G16RevA.03 25-Dec-2016

 -------------
 #p 6-31g* mp2
 -------------

 ------------------------------------------------------
 Input file generated by CHIRIPA (05-May-2021 14:55:22)
 ------------------------------------------------------
 Symbolic Z-matrix:
 Charge =  0 Multiplicity = 1

                         Standard orientation:
 ---------------------------------------------------------------------
 Center     Atomic      Atomic             Coordinates (Angstroms)
 Number     Number       Type             X           Y           Z
 ---------------------------------------------------------------------
      1          6           0        2.524924   -2.199411    0.846167
      2          6           0        3.373777   -1.466477    1.682096
      3          6           0        3.849201   -0.212289    1.287719
      4          6           0        3.453870    0.280880    0.045227
      5          6           0        2.609342   -0.425312   -0.809967
      6          6           0        2.146083   -1.677410   -0.395008
      7          1           0        2.160328   -3.172883    1.160523
      8          1           0        3.669643   -1.869381    2.646552
      9          1           0        4.507418    0.376345    1.915158
     10          1           0        2.331835    0.002553   -1.765655
     11          1           0        1.486964   -2.244392   -1.046267
     12          7           0        3.950741    1.607526   -0.383177
     13          8           0        3.587740    2.019863   -1.482652
     14          8           0        4.693780    2.209894    0.388628
     15          6           0       -4.609852    0.532396    0.201810
     16          6           0       -6.130959    0.476165    0.346918
     17          6           0       -6.703725    1.707641    1.049199
     18          1           0       -4.156366    0.632550    1.197433
     19          1           0       -4.335183    1.436437   -0.359138
     20          1           0       -6.402764   -0.428218    0.906229
     21          1           0       -6.580867    0.375941   -0.649152
     22          1           0       -6.461390    2.617350    0.490359
     23          1           0       -6.282273    1.808622    2.054576
     24          1           0       -7.792515    1.646592    1.142312
     25          6           0       -4.022417   -0.691711   -0.498341
     26          6           0       -2.501309   -0.635480   -0.643449
     27          6           0       -1.928544   -1.866956   -1.345731
     28          1           0       -4.297086   -1.595752    0.062606
     29          1           0       -4.475903   -0.791865   -1.493964
     30          1           0       -2.051401   -0.535256    0.352620
     31          1           0       -2.229506    0.268904   -1.202760
     32          1           0       -2.349995   -1.967937   -2.351107
     33          1           0       -2.170879   -2.776665   -0.786890
     34          1           0       -0.839753   -1.805907   -1.438844
 ---------------------------------------------------------------------

 SCF Done:  E(RHF) =  -669.535424874     A.U. after   15 cycles
 E2 =    -0.2090987168D+01 EUMP2 =    -0.67162641204171D+03

 The electronic state is 1-A.
 Alpha  occ. eigenvalues --  -20.60763 -20.60758 -15.85817 -11.31188 -11.27766
 Alpha  occ. eigenvalues --  -11.27761 -11.27505 -11.26778 -11.26756 -11.22083
 Alpha  occ. eigenvalues --  -11.21834 -11.21809 -11.21757 -11.21622 -11.21218
 Alpha  occ. eigenvalues --   -1.59838  -1.39392  -1.19366  -1.08775  -1.08754
 Alpha  occ. eigenvalues --   -1.04773  -1.03910  -0.96381  -0.95591  -0.87406
 Alpha  occ. eigenvalues --   -0.86166  -0.82426  -0.79972  -0.78555  -0.77473
 Alpha  occ. eigenvalues --   -0.72035  -0.71161  -0.70470  -0.65397  -0.65018
 Alpha  occ. eigenvalues --   -0.64804  -0.62161  -0.61300  -0.59761  -0.57977
 Alpha  occ. eigenvalues --   -0.55658  -0.55270  -0.53301  -0.53067  -0.52872
 Alpha  occ. eigenvalues --   -0.52604  -0.50307  -0.48795  -0.48790  -0.48283
 Alpha  occ. eigenvalues --   -0.46986  -0.46106  -0.46012  -0.44796  -0.44164
 Alpha  occ. eigenvalues --   -0.37341  -0.36363
 Alpha virt. eigenvalues --    0.05058   0.11227   0.16466   0.20491   0.22658
 Alpha virt. eigenvalues --    0.23952   0.26004   0.26346   0.27199   0.28294
 Alpha virt. eigenvalues --    0.28415   0.30063   0.31040   0.31692   0.32287

 Mulliken charges:
               1
     1  C   -0.171668
     2  C   -0.218699
     3  C   -0.170727
     4  C    0.158463
     5  C   -0.171728
     6  C   -0.219742
     7  H    0.225990
     8  H    0.223403
     9  H    0.275660
    10  H    0.275629
    11  H    0.227320
    12  N    0.488140
    13  O   -0.460381
    14  O   -0.460490
    15  C   -0.298772
    16  C   -0.299910
    17  C   -0.475949
    18  H    0.150063
    19  H    0.151591
    20  H    0.151457
    21  H    0.152372
    22  H    0.156371
    23  H    0.155422
    24  H    0.160751
    25  C   -0.298943
    26  C   -0.299267
    27  C   -0.478769
    28  H    0.148871
    29  H    0.150588
    30  H    0.153281
    31  H    0.155280
    32  H    0.158543
    33  H    0.154524
    34  H    0.151324
 Sum of Mulliken charges =  -0.00000

 Dipole moment (field-independent basis, Debye):
    X=             -1.8516    Y=             -4.6264    Z=              1.5409  Tot=              5.2160
 Quadrupole moment (field-independent basis, Debye-Ang):
   XX=           -106.1074   YY=            -98.5800   ZZ=            -90.5556
   XY=            -16.2262   XZ=              8.1562   YZ=             -0.3253

 Normal termination of Gaussian 16 at Thu May  6 14:14:13 2021.
