 Gaussian 16, Revision A.03,
 Gaussian 16:  EM64L-G16RevA.03 25-Dec-2016

 -------------
 #p 6-31g* mp2
 -------------

 ------------------------------------------------------
 Input file generated by CHIRIPA (05-May-2021 14:57:21)
 ------------------------------------------------------
 Symbolic Z-matrix:
 Charge =  0 Multiplicity = 1

                         Standard orientation:
 ---------------------------------------------------------------------
 Center     Atomic      Atomic             Coordinates (Angstroms)
 Number     Number       Type             X           Y           Z
 ---------------------------------------------------------------------
      1          6           0       -1.838958    1.721885    1.238446
      2          6           0       -1.597550    0.362075    1.460170
      3          6           0       -2.431547   -0.608213    0.896665
      4          6           0       -3.502641   -0.181338    0.113195
      5          6           0       -3.769250    1.165852   -0.126153
      6          6           0       -2.922128    2.118734    0.447387
      7          1           0       -1.185991    2.468867    1.680088
      8          1           0       -0.757095    0.050965    2.074084
      9          1           0       -2.267678   -1.667657    1.052045
     10          1           0       -4.614947    1.445298   -0.742696
     11          1           0       -3.112021    3.174075    0.273488
     12          7           0       -4.392504   -1.199325   -0.488675
     13          8           0       -5.329478   -0.797342   -1.175061
     14          8           0       -4.136155   -2.379930   -0.262637
     15          6           0        4.971349   -1.852224    0.312351
     16          6           0        5.449372   -0.560833    0.066744
     17          6           0        4.563499    0.480638   -0.224999
     18          6           0        3.199813    0.193939   -0.263120
     19          6           0        2.692764   -1.082196   -0.022970
     20          6           0        3.596993   -2.108333    0.266790
     21          1           0        5.666645   -2.655308    0.538213
     22          1           0        6.516196   -0.359020    0.101454
     23          1           0        4.906408    1.489664   -0.419156
     24          1           0        1.623826   -1.252643   -0.064657
     25          1           0        3.222906   -3.110272    0.457111
     26          7           0        2.252262    1.288380   -0.570925
     27          8           0        1.055476    1.009853   -0.598528
     28          8           0        2.724300    2.404009   -0.778752
 ---------------------------------------------------------------------

 SCF Done:  E(RHF) =  -868.338279488     A.U. after   16 cycles
 E2 =    -0.2600082674D+01 EUMP2 =    -0.87093836216131D+03

 The electronic state is 1-A.
 Alpha  occ. eigenvalues --  -20.61453 -20.61444 -20.60146 -20.60133 -15.86472
 Alpha  occ. eigenvalues --  -15.85191 -11.31748 -11.30309 -11.28308 -11.28283
 Alpha  occ. eigenvalues --  -11.27992 -11.27276 -11.27264 -11.26918 -11.26856
 Alpha  occ. eigenvalues --  -11.26492 -11.25852 -11.25772  -1.60531  -1.59223
 Alpha  occ. eigenvalues --   -1.40084  -1.38785  -1.19904  -1.18450  -1.09315
 Alpha  occ. eigenvalues --   -1.07866  -1.05287  -1.03854  -0.96168  -0.94756
 Alpha  occ. eigenvalues --   -0.86687  -0.85258  -0.82994  -0.81627  -0.78066
 Alpha  occ. eigenvalues --   -0.76725  -0.72702  -0.71860  -0.71419  -0.70998
 Alpha  occ. eigenvalues --   -0.70541  -0.69550  -0.65552  -0.65278  -0.64120
 Alpha  occ. eigenvalues --   -0.63883  -0.62635  -0.61250  -0.55775  -0.54307
 Alpha  occ. eigenvalues --   -0.53627  -0.53370  -0.52122  -0.51979  -0.49469
 Alpha  occ. eigenvalues --   -0.49451  -0.48186  -0.48151  -0.45515  -0.44249
 Alpha  occ. eigenvalues --   -0.37875  -0.36890  -0.36271  -0.35419
 Alpha virt. eigenvalues --    0.04422   0.05845   0.10753   0.12251   0.15986
 Alpha virt. eigenvalues --    0.17386   0.20816   0.22197   0.26540   0.27403
 Alpha virt. eigenvalues --    0.28489   0.29185   0.30608   0.31461   0.32603

 Mulliken charges:
               1
     1  C   -0.153939
     2  C   -0.205770
     3  C   -0.175051
     4  C    0.158311
     5  C   -0.170931
     6  C   -0.217973
     7  H    0.226752
     8  H    0.214822
     9  H    0.267356
    10  H    0.272804
    11  H    0.222328
    12  N    0.488366
    13  O   -0.462086
    14  O   -0.465567
    15  C   -0.170318
    16  C   -0.218321
    17  C   -0.170977
    18  C    0.157402
    19  C   -0.173764
    20  C   -0.218313
    21  H    0.227819
    22  H    0.225195
    23  H    0.276151
    24  H    0.274290
    25  H    0.225767
    26  N    0.488200
    27  O   -0.462147
    28  O   -0.460405
 Sum of Mulliken charges =  -0.00000

 Dipole moment (field-independent basis, Debye):
    X=              6.8149    Y=             -0.0759    Z=              3.1830  Tot=              7.5220
 Quadrupole moment (field-independent basis, Debye-Ang):
   XX=           -102.0502   YY=           -103.4353   ZZ=           -105.6659
   XY=            -25.3182   XZ=             -3.4684   YZ=             -0.6996

 Normal termination of Gaussian 16 at Thu May  6 08:02:49 2021.
