 Gaussian 16, Revision A.03,
 Gaussian 16:  EM64L-G16RevA.03 25-Dec-2016

 -------------
 #p 6-31g* mp2
 -------------

 ------------------------------------------------------
 Input file generated by CHIRIPA (05-May-2021 14:57:25)
 ------------------------------------------------------
 Symbolic Z-matrix:
 Charge =  0 Multiplicity = 1

                         Standard orientation:
 ---------------------------------------------------------------------
 Center     Atomic      Atomic             Coordinates (Angstroms)
 Number     Number       Type             X           Y           Z
 ---------------------------------------------------------------------
      1          6           0       -6.184502   -0.470861    0.302306
      2          6           0       -5.745616    0.711116   -0.303360
      3          6           0       -4.379642    0.961798   -0.464052
      4          6           0       -3.476059    0.004478   -0.005393
      5          6           0       -3.882160   -1.182694    0.602055
      6          6           0       -5.253015   -1.412334    0.752286
      7          1           0       -7.247519   -0.657424    0.423072
      8          1           0       -6.466757    1.444062   -0.653776
      9          1           0       -4.012367    1.868427   -0.929400
     10          1           0       -3.139434   -1.894516    0.941299
     11          1           0       -5.590977   -2.331155    1.223025
     12          7           0       -2.027380    0.258726   -0.169974
     13          8           0       -1.251464   -0.600559    0.242605
     14          8           0       -1.695252    1.312475   -0.708435
     15          6           0        3.120367    2.466128    0.315835
     16          6           0        2.287292    1.641032   -0.446874
     17          6           0        2.606780    0.293825   -0.640544
     18          6           0        3.772288   -0.197373   -0.054366
     19          6           0        4.622556    0.599381    0.710825
     20          6           0        4.283289    1.943590    0.891236
     21          1           0        2.864498    3.511506    0.461133
     22          1           0        1.383517    2.044120   -0.894930
     23          1           0        1.979714   -0.367269   -1.226345
     24          1           0        5.516799    0.168891    1.144906
     25          1           0        4.932139    2.582029    1.484054
     26          7           0        4.120985   -1.622015   -0.252378
     27          8           0        5.153443   -2.030555    0.274654
     28          8           0        3.355233   -2.303132   -0.930861
 ---------------------------------------------------------------------

 SCF Done:  E(RHF) =  -868.340568693     A.U. after   16 cycles
 E2 =    -0.2598704799D+01 EUMP2 =    -0.87093927349127D+03

 The electronic state is 1-A.
 Alpha  occ. eigenvalues --  -20.61578 -20.61539 -20.59657 -20.59635 -15.86560
 Alpha  occ. eigenvalues --  -15.84690 -11.31655 -11.29824 -11.28211 -11.28160
 Alpha  occ. eigenvalues --  -11.27887 -11.27157 -11.27122 -11.26458 -11.26213
 Alpha  occ. eigenvalues --  -11.26106 -11.25479 -11.25121  -1.60611  -1.58727
 Alpha  occ. eigenvalues --   -1.40168  -1.38285  -1.19801  -1.17976  -1.09251
 Alpha  occ. eigenvalues --   -1.07433  -1.05161  -1.03311  -0.96130  -0.94303
 Alpha  occ. eigenvalues --   -0.86573  -0.84740  -0.82970  -0.81118  -0.78045
 Alpha  occ. eigenvalues --   -0.76179  -0.72795  -0.71900  -0.70921  -0.70906
 Alpha  occ. eigenvalues --   -0.70043  -0.69121  -0.65458  -0.65163  -0.63624
 Alpha  occ. eigenvalues --   -0.63298  -0.62509  -0.60645  -0.55677  -0.53895
 Alpha  occ. eigenvalues --   -0.53507  -0.53249  -0.51703  -0.51393  -0.49556
 Alpha  occ. eigenvalues --   -0.49525  -0.47681  -0.47653  -0.45627  -0.43741
 Alpha  occ. eigenvalues --   -0.37767  -0.36751  -0.35998  -0.34887
 Alpha virt. eigenvalues --    0.04471   0.06303   0.10908   0.12738   0.16020
 Alpha virt. eigenvalues --    0.17840   0.21069   0.22868   0.27005   0.27921
 Alpha virt. eigenvalues --    0.28943   0.29620   0.30677   0.32096   0.32443

 Mulliken charges:
               1
     1  C   -0.169787
     2  C   -0.218621
     3  C   -0.170657
     4  C    0.157662
     5  C   -0.170031
     6  C   -0.218659
     7  H    0.227419
     8  H    0.224427
     9  H    0.274225
    10  H    0.278630
    11  H    0.225947
    12  N    0.489903
    13  O   -0.456238
    14  O   -0.470504
    15  C   -0.173216
    16  C   -0.220709
    17  C   -0.165430
    18  C    0.156006
    19  C   -0.173737
    20  C   -0.219311
    21  H    0.221128
    22  H    0.241078
    23  H    0.280977
    24  H    0.270475
    25  H    0.217405
    26  N    0.488216
    27  O   -0.466078
    28  O   -0.460518
 Sum of Mulliken charges =  -0.00000

 Dipole moment (field-independent basis, Debye):
    X=             -6.9620    Y=              4.0177    Z=              1.2222  Tot=              8.1305
 Quadrupole moment (field-independent basis, Debye-Ang):
   XX=            -76.9318   YY=           -104.0092   ZZ=           -103.8114
   XY=             22.1727   XZ=              3.2923   YZ=             -2.4411

 Normal termination of Gaussian 16 at Thu May  6 22:54:05 2021.
