 Gaussian 16, Revision A.03,
 Gaussian 16:  EM64L-G16RevA.03 25-Dec-2016

 -------------
 #p 6-31g* mp2
 -------------

 ------------------------------------------------------
 Input file generated by CHIRIPA (05-May-2021 14:53:16)
 ------------------------------------------------------
 Symbolic Z-matrix:
 Charge =  0 Multiplicity = 1

                         Standard orientation:
 ---------------------------------------------------------------------
 Center     Atomic      Atomic             Coordinates (Angstroms)
 Number     Number       Type             X           Y           Z
 ---------------------------------------------------------------------
      1          6           0        4.275985   -0.200183    0.270037
      2          6           0        4.354820   -1.596815   -0.347369
      3          6           0        5.497283   -2.434077    0.228449
      4          1           0        5.230502    0.319358    0.109042
      5          1           0        4.150856   -0.294216    1.357647
      6          1           0        4.478375   -1.500182   -1.433653
      7          1           0        3.399938   -2.113022   -0.185053
      8          1           0        5.375818   -2.560066    1.309178
      9          1           0        6.460383   -1.943744    0.053484
     10          1           0        5.535235   -3.428599   -0.226903
     11          6           0        3.138828    0.648849   -0.295423
     12          6           0        3.059993    2.045481    0.321983
     13          6           0        1.917531    2.882743   -0.253835
     14          1           0        3.263957    0.742881   -1.383033
     15          1           0        2.184311    0.129308   -0.134428
     16          1           0        4.014875    2.561688    0.159667
     17          1           0        2.936438    1.948848    1.408267
     18          1           0        0.954431    2.392410   -0.078870
     19          1           0        2.038995    3.008731   -1.334564
     20          1           0        1.879578    3.877265    0.201517
     21          6           0       -5.380138   -0.615479    0.066769
     22          6           0       -4.704967   -0.570920   -1.157437
     23          6           0       -3.328909   -0.327770   -1.200913
     24          6           0       -2.656294   -0.132701    0.004420
     25          6           0       -3.300810   -0.171083    1.239902
     26          6           0       -4.677144   -0.415771    1.259428
     27          1           0       -6.449200   -0.804962    0.091239
     28          1           0       -5.248351   -0.725655   -2.085250
     29          1           0       -2.781355   -0.287967   -2.134732
     30          1           0       -2.732051   -0.013029    2.148169
     31          1           0       -5.198885   -0.449819    2.211622
     32          7           0       -1.199377    0.125525   -0.028929
     33          8           0       -0.629672    0.294166    1.047005
     34          8           0       -0.654738    0.154391   -1.130370
 ---------------------------------------------------------------------

 SCF Done:  E(RHF) =  -669.537139975     A.U. after   15 cycles
 E2 =    -0.2092927265D+01 EUMP2 =    -0.67163006723999D+03

 The electronic state is 1-A.
 Alpha  occ. eigenvalues --  -20.61293 -20.61287 -15.86253 -11.31479 -11.28018
 Alpha  occ. eigenvalues --  -11.28013 -11.27737 -11.26995 -11.26986 -11.20392
 Alpha  occ. eigenvalues --  -11.20127 -11.19908 -11.19822 -11.19311 -11.19118
 Alpha  occ. eigenvalues --   -1.60312  -1.39867  -1.19627  -1.09054  -1.06812
 Alpha  occ. eigenvalues --   -1.05003  -1.01996  -0.95909  -0.94446  -0.86409
 Alpha  occ. eigenvalues --   -0.85469  -0.82747  -0.78129  -0.77820  -0.76535
 Alpha  occ. eigenvalues --   -0.72445  -0.71614  -0.70734  -0.65280  -0.65008
 Alpha  occ. eigenvalues --   -0.63446  -0.62349  -0.59403  -0.57876  -0.56054
 Alpha  occ. eigenvalues --   -0.55510  -0.53736  -0.53330  -0.53091  -0.51231
 Alpha  occ. eigenvalues --   -0.50856  -0.49351  -0.49229  -0.48358  -0.46397
 Alpha  occ. eigenvalues --   -0.45304  -0.45139  -0.44109  -0.43786  -0.42223
 Alpha  occ. eigenvalues --   -0.37597  -0.36596
 Alpha virt. eigenvalues --    0.04658   0.11062   0.16191   0.21201   0.24395
 Alpha virt. eigenvalues --    0.25940   0.27140   0.28031   0.28339   0.29197
 Alpha virt. eigenvalues --    0.29486   0.30808   0.32322   0.32902   0.33007

 Mulliken charges:
               1
     1  C   -0.297459
     2  C   -0.298092
     3  C   -0.474649
     4  H    0.143171
     5  H    0.146997
     6  H    0.149664
     7  H    0.153148
     8  H    0.153281
     9  H    0.152754
    10  H    0.155999
    11  C   -0.305930
    12  C   -0.294925
    13  C   -0.480242
    14  H    0.143147
    15  H    0.177563
    16  H    0.141836
    17  H    0.149830
    18  H    0.175046
    19  H    0.148544
    20  H    0.147651
    21  C   -0.170052
    22  C   -0.218693
    23  C   -0.170456
    24  C    0.161245
    25  C   -0.170472
    26  C   -0.218682
    27  H    0.226726
    28  H    0.224554
    29  H    0.276502
    30  H    0.276217
    31  H    0.224500
    32  N    0.486336
    33  O   -0.459289
    34  O   -0.455772
 Sum of Mulliken charges =  -0.00000

 Dipole moment (field-independent basis, Debye):
    X=             -5.7802    Y=             -1.0654    Z=              0.1103  Tot=              5.8786
 Quadrupole moment (field-independent basis, Debye-Ang):
   XX=            -70.0105   YY=            -97.0149   ZZ=            -89.3454
   XY=              3.7570   XZ=             -0.9604   YZ=              0.3722

 Normal termination of Gaussian 16 at Thu May  6 13:52:47 2021.
