 Gaussian 16, Revision A.03,
 Gaussian 16:  EM64L-G16RevA.03 25-Dec-2016

 -------------
 #p 6-31g* mp2
 -------------

 ------------------------------------------------------
 Input file generated by CHIRIPA (05-May-2021 14:53:16)
 ------------------------------------------------------
 Symbolic Z-matrix:
 Charge =  0 Multiplicity = 1

                         Standard orientation:
 ---------------------------------------------------------------------
 Center     Atomic      Atomic             Coordinates (Angstroms)
 Number     Number       Type             X           Y           Z
 ---------------------------------------------------------------------
      1          6           0        5.048826   -0.543635   -0.008057
      2          6           0        5.921415    0.706519   -0.125057
      3          6           0        7.387132    0.438607    0.218004
      4          1           0        5.121210   -0.939190    1.014314
      5          1           0        5.445608   -1.322833   -0.673497
      6          1           0        5.522291    1.483597    0.539372
      7          1           0        5.846795    1.099253   -1.147215
      8          1           0        7.807526   -0.318184   -0.452173
      9          1           0        7.481178    0.068343    1.243997
     10          1           0        7.992839    1.345716    0.127829
     11          6           0        3.580892   -0.291805   -0.347879
     12          6           0        2.708304   -1.541959   -0.230880
     13          6           0        1.242587   -1.274047   -0.573940
     14          1           0        3.184111    0.487393    0.317561
     15          1           0        3.508509    0.103750   -1.370250
     16          1           0        2.782924   -1.934693    0.791279
     17          1           0        3.107428   -2.319037   -0.895309
     18          1           0        1.148541   -0.903784   -1.599933
     19          1           0        0.822193   -0.517256    0.096237
     20          1           0        0.636880   -2.181157   -0.483766
     21          6           0       -5.394086   -1.122819   -0.276782
     22          6           0       -5.150032   -0.011384   -1.090214
     23          6           0       -4.032205    0.798604   -0.869019
     24          6           0       -3.175398    0.466443    0.179238
     25          6           0       -3.391451   -0.634215    1.006982
     26          6           0       -4.515566   -1.430145    0.767380
     27          1           0       -6.264884   -1.746578   -0.455762
     28          1           0       -5.830594    0.229691   -1.901857
     29          1           0       -3.819351    1.664943   -1.483483
     30          1           0       -2.695019   -0.849227    1.808338
     31          1           0       -4.702595   -2.292681    1.400702
     32          7           0       -1.988676    1.316501    0.423151
     33          8           0       -1.249037    1.002503    1.353192
     34          8           0       -1.820634    2.280677   -0.320329
 ---------------------------------------------------------------------

 SCF Done:  E(RHF) =  -669.536423545     A.U. after   15 cycles
 E2 =    -0.2090953627D+01 EUMP2 =    -0.67162737717258D+03

 The electronic state is 1-A.
 Alpha  occ. eigenvalues --  -20.60921 -20.60914 -15.85940 -11.31242 -11.27807
 Alpha  occ. eigenvalues --  -11.27803 -11.27547 -11.26814 -11.26804 -11.21015
 Alpha  occ. eigenvalues --  -11.20872 -11.20752 -11.20592 -11.20571 -11.20150
 Alpha  occ. eigenvalues --   -1.59971  -1.39530  -1.19411  -1.08820  -1.07738
 Alpha  occ. eigenvalues --   -1.04807  -1.02850  -0.95666  -0.95295  -0.86316
 Alpha  occ. eigenvalues --   -0.86208  -0.82502  -0.78927  -0.77563  -0.77531
 Alpha  occ. eigenvalues --   -0.72168  -0.71277  -0.70525  -0.65070  -0.64813
 Alpha  occ. eigenvalues --   -0.64365  -0.62156  -0.60240  -0.58684  -0.56910
 Alpha  occ. eigenvalues --   -0.55317  -0.54566  -0.53137  -0.52901  -0.52023
 Alpha  occ. eigenvalues --   -0.51715  -0.49240  -0.48933  -0.48907  -0.47245
 Alpha  occ. eigenvalues --   -0.45989  -0.45138  -0.45055  -0.44724  -0.43115
 Alpha  occ. eigenvalues --   -0.37388  -0.36406
 Alpha virt. eigenvalues --    0.04941   0.11245   0.16414   0.21363   0.23566
 Alpha virt. eigenvalues --    0.25013   0.27271   0.27372   0.28061   0.28272
 Alpha virt. eigenvalues --    0.28782   0.30898   0.32070   0.32374   0.32574

 Mulliken charges:
               1
     1  C   -0.297942
     2  C   -0.299530
     3  C   -0.475366
     4  H    0.148573
     5  H    0.146870
     6  H    0.154016
     7  H    0.151488
     8  H    0.153655
     9  H    0.154442
    10  H    0.159219
    11  C   -0.299501
    12  C   -0.297749
    13  C   -0.487649
    14  H    0.157723
    15  H    0.148816
    16  H    0.150164
    17  H    0.147305
    18  H    0.152187
    19  H    0.177196
    20  H    0.151029
    21  C   -0.170537
    22  C   -0.218613
    23  C   -0.170698
    24  C    0.159218
    25  C   -0.170225
    26  C   -0.218659
    27  H    0.225802
    28  H    0.223621
    29  H    0.275689
    30  H    0.275827
    31  H    0.223646
    32  N    0.488521
    33  O   -0.460133
    34  O   -0.458408
 Sum of Mulliken charges =  -0.00000

 Dipole moment (field-independent basis, Debye):
    X=             -4.3845    Y=             -2.8431    Z=             -0.7940  Tot=              5.2856
 Quadrupole moment (field-independent basis, Debye-Ang):
   XX=            -70.1884   YY=            -96.5760   ZZ=            -91.6352
   XY=              7.2031   XZ=              2.9878   YZ=             -3.4810

 Normal termination of Gaussian 16 at Thu May  6 18:52:26 2021.
