 Gaussian 16, Revision A.03,
 Gaussian 16:  EM64L-G16RevA.03 25-Dec-2016

 -------------
 #p 6-31g* mp2
 -------------

 ------------------------------------------------------
 Input file generated by CHIRIPA (05-May-2021 14:53:15)
 ------------------------------------------------------
 Symbolic Z-matrix:
 Charge =  0 Multiplicity = 1

                         Standard orientation:
 ---------------------------------------------------------------------
 Center     Atomic      Atomic             Coordinates (Angstroms)
 Number     Number       Type             X           Y           Z
 ---------------------------------------------------------------------
      1          6           0       -3.935299    0.226857    0.239624
      2          6           0       -2.814317   -0.811603    0.294253
      3          6           0       -1.447475   -0.191255    0.585292
      4          1           0       -3.698061    0.972958   -0.531088
      5          1           0       -3.972673    0.766491    1.196072
      6          1           0       -2.779970   -1.350063   -0.661517
      7          1           0       -3.054345   -1.555426    1.064793
      8          1           0       -1.458155    0.330168    1.547895
      9          1           0       -1.182222    0.536698   -0.188223
     10          1           0       -0.660776   -0.951365    0.619905
     11          6           0       -5.307803   -0.377965   -0.050468
     12          6           0       -6.428785    0.660496   -0.105098
     13          6           0       -7.795628    0.040148   -0.396137
     14          1           0       -5.270429   -0.917598   -1.006916
     15          1           0       -5.545041   -1.124066    0.720243
     16          1           0       -6.188757    1.404318   -0.875637
     17          1           0       -6.463132    1.198956    0.850673
     18          1           0       -8.060880   -0.687806    0.377379
     19          1           0       -7.784947   -0.481276   -1.358739
     20          1           0       -8.582326    0.800258   -0.430749
     21          6           0        3.486354    2.578801   -0.038909
     22          6           0        2.312225    1.820802   -0.097024
     23          6           0        2.369084    0.424048   -0.116885
     24          6           0        3.622597   -0.184576   -0.077270
     25          6           0        4.810230    0.543047   -0.019106
     26          6           0        4.729418    1.938633   -0.000203
     27          1           0        3.432881    3.663379   -0.023853
     28          1           0        1.345455    2.315265   -0.127181
     29          1           0        1.475833   -0.187113   -0.161645
     30          1           0        5.759316    0.021694    0.009931
     31          1           0        5.642910    2.524754    0.044954
     32          7           0        3.695470   -1.662639   -0.097789
     33          8           0        4.812174   -2.174820   -0.062023
     34          8           0        2.634504   -2.280975   -0.149250
 ---------------------------------------------------------------------

 SCF Done:  E(RHF) =  -669.535673612     A.U. after   15 cycles
 E2 =    -0.2091299606D+01 EUMP2 =    -0.67162697321846D+03

 The electronic state is 1-A.
 Alpha  occ. eigenvalues --  -20.60723 -20.60718 -15.85771 -11.31081 -11.27673
 Alpha  occ. eigenvalues --  -11.27588 -11.27415 -11.26684 -11.26649 -11.21916
 Alpha  occ. eigenvalues --  -11.21779 -11.21686 -11.21675 -11.21558 -11.21197
 Alpha  occ. eigenvalues --   -1.59795  -1.39351  -1.19263  -1.08688  -1.08673
 Alpha  occ. eigenvalues --   -1.04660  -1.03820  -0.96307  -0.95510  -0.87341
 Alpha  occ. eigenvalues --   -0.86060  -0.82344  -0.79898  -0.78486  -0.77389
 Alpha  occ. eigenvalues --   -0.71993  -0.71116  -0.70385  -0.65315  -0.64917
 Alpha  occ. eigenvalues --   -0.64679  -0.62062  -0.61200  -0.59635  -0.57887
 Alpha  occ. eigenvalues --   -0.55607  -0.55174  -0.53150  -0.52991  -0.52751
 Alpha  occ. eigenvalues --   -0.52545  -0.50244  -0.48750  -0.48744  -0.48200
 Alpha  occ. eigenvalues --   -0.46900  -0.46038  -0.45942  -0.44767  -0.44058
 Alpha  occ. eigenvalues --   -0.37256  -0.36259
 Alpha virt. eigenvalues --    0.05127   0.11380   0.16624   0.20511   0.22719
 Alpha virt. eigenvalues --    0.23958   0.25623   0.26508   0.27044   0.27936
 Alpha virt. eigenvalues --    0.29084   0.29443   0.31368   0.31622   0.32177

 Mulliken charges:
               1
     1  C   -0.299004
     2  C   -0.298421
     3  C   -0.488830
     4  H    0.147717
     5  H    0.149101
     6  H    0.156206
     7  H    0.156615
     8  H    0.156995
     9  H    0.145978
    10  H    0.173108
    11  C   -0.298763
    12  C   -0.299732
    13  C   -0.475889
    14  H    0.150922
    15  H    0.151203
    16  H    0.151283
    17  H    0.151703
    18  H    0.155950
    19  H    0.155854
    20  H    0.160418
    21  C   -0.170591
    22  C   -0.223458
    23  C   -0.177314
    24  C    0.157795
    25  C   -0.170233
    26  C   -0.219180
    27  H    0.225153
    28  H    0.224542
    29  H    0.287616
    30  H    0.275172
    31  H    0.222989
    32  N    0.487729
    33  O   -0.460445
    34  O   -0.462189
 Sum of Mulliken charges =  -0.00000

 Dipole moment (field-independent basis, Debye):
    X=             -0.4235    Y=              5.1156    Z=              0.1057  Tot=              5.1342
 Quadrupole moment (field-independent basis, Debye-Ang):
   XX=            -92.4067   YY=            -97.3712   ZZ=            -94.6825
   XY=             19.3523   XZ=              0.1037   YZ=             -0.6206

 Normal termination of Gaussian 16 at Wed May  5 23:31:53 2021.
