 Gaussian 16, Revision A.03,
 Gaussian 16:  EM64L-G16RevA.03 25-Dec-2016

 -------------
 #p 6-31g* mp2
 -------------

 ------------------------------------------------------
 Input file generated by CHIRIPA (05-May-2021 14:55:23)
 ------------------------------------------------------
 Symbolic Z-matrix:
 Charge =  0 Multiplicity = 1

                         Standard orientation:
 ---------------------------------------------------------------------
 Center     Atomic      Atomic             Coordinates (Angstroms)
 Number     Number       Type             X           Y           Z
 ---------------------------------------------------------------------
      1          6           0       -0.486832    0.118466    1.009820
      2          6           0       -1.538441    0.824835    1.602847
      3          6           0       -2.846269    0.680493    1.130300
      4          6           0       -3.067537   -0.182572    0.058176
      5          6           0       -2.040889   -0.900068   -0.553775
      6          6           0       -0.740964   -0.740217   -0.064704
      7          1           0        0.526051    0.236618    1.383324
      8          1           0       -1.344032    1.492396    2.437479
      9          1           0       -3.679005    1.215231    1.570781
     10          1           0       -2.265804   -1.558180   -1.384268
     11          1           0        0.073779   -1.290062   -0.527208
     12          7           0       -4.447892   -0.343589   -0.450835
     13          8           0       -4.616558   -1.110152   -1.396653
     14          8           0       -5.335012    0.299817    0.105658
     15          6           0        3.099299    0.742092   -0.136838
     16          6           0        3.557558    2.094297   -0.684127
     17          6           0        2.474396    3.169079   -0.587183
     18          1           0        2.205965    0.414999   -0.686300
     19          1           0        2.794358    0.863116    0.911856
     20          1           0        3.862850    1.970481   -1.731067
     21          1           0        4.450016    2.418120   -0.133426
     22          1           0        2.175374    3.321770    0.454870
     23          1           0        1.584872    2.871588   -1.151849
     24          1           0        2.823262    4.127579   -0.983957
     25          6           0        4.171198   -0.342646   -0.226854
     26          6           0        3.712939   -1.694850    0.320436
     27          6           0        4.796102   -2.769632    0.223491
     28          1           0        4.476139   -0.463670   -1.275548
     29          1           0        5.064531   -0.015552    0.322610
     30          1           0        2.820480   -2.018672   -0.230264
     31          1           0        3.407646   -1.571034    1.367376
     32          1           0        5.685625   -2.472142    0.788157
     33          1           0        5.095122   -2.922323   -0.818560
     34          1           0        4.447234   -3.728131    0.620267
 ---------------------------------------------------------------------

 SCF Done:  E(RHF) =  -669.535015316     A.U. after   15 cycles
 E2 =    -0.2092852960D+01 EUMP2 =    -0.67162786827531D+03

 The electronic state is 1-A.
 Alpha  occ. eigenvalues --  -20.60691 -20.60686 -15.85746 -11.31083 -11.27666
 Alpha  occ. eigenvalues --  -11.27662 -11.27302 -11.26644 -11.26633 -11.22771
 Alpha  occ. eigenvalues --  -11.22660 -11.22522 -11.22432 -11.21945 -11.21869
 Alpha  occ. eigenvalues --   -1.59768  -1.39323  -1.19255  -1.09541  -1.08639
 Alpha  occ. eigenvalues --   -1.04661  -1.04511  -0.96950  -0.95484  -0.87960
 Alpha  occ. eigenvalues --   -0.86056  -0.82331  -0.80591  -0.79433  -0.77380
 Alpha  occ. eigenvalues --   -0.71963  -0.71092  -0.70335  -0.66178  -0.64899
 Alpha  occ. eigenvalues --   -0.64661  -0.62018  -0.61897  -0.60320  -0.58583
 Alpha  occ. eigenvalues --   -0.56236  -0.55168  -0.53597  -0.53343  -0.52980
 Alpha  occ. eigenvalues --   -0.52754  -0.50884  -0.48896  -0.48721  -0.48717
 Alpha  occ. eigenvalues --   -0.47630  -0.46854  -0.46834  -0.44800  -0.44735
 Alpha  occ. eigenvalues --   -0.37193  -0.36271
 Alpha virt. eigenvalues --    0.05151   0.11284   0.16624   0.19200   0.22669
 Alpha virt. eigenvalues --    0.22708   0.23907   0.25264   0.27027   0.28429
 Alpha virt. eigenvalues --    0.29707   0.30407   0.30776   0.31213   0.31637

 Mulliken charges:
               1
     1  C   -0.171616
     2  C   -0.220872
     3  C   -0.170669
     4  C    0.158070
     5  C   -0.171570
     6  C   -0.225958
     7  H    0.234271
     8  H    0.222935
     9  H    0.275167
    10  H    0.275216
    11  H    0.226290
    12  N    0.488080
    13  O   -0.460875
    14  O   -0.460767
    15  C   -0.306449
    16  C   -0.299429
    17  C   -0.477324
    18  H    0.150120
    19  H    0.143043
    20  H    0.155813
    21  H    0.154669
    22  H    0.151493
    23  H    0.159150
    24  H    0.164598
    25  C   -0.297859
    26  C   -0.302965
    27  C   -0.476034
    28  H    0.153655
    29  H    0.153701
    30  H    0.146537
    31  H    0.150326
    32  H    0.158252
    33  H    0.157962
    34  H    0.163038
 Sum of Mulliken charges =  -0.00000

 Dipole moment (field-independent basis, Debye):
    X=              5.1598    Y=              0.6158    Z=              1.7252  Tot=              5.4753
 Quadrupole moment (field-independent basis, Debye-Ang):
   XX=           -124.0102   YY=            -93.6548   ZZ=            -91.6963
   XY=             -3.2600   XZ=             -6.4696   YZ=              2.3885

 Normal termination of Gaussian 16 at Thu May  6 06:19:22 2021.
