 Gaussian 16, Revision A.03,
 Gaussian 16:  EM64L-G16RevA.03 25-Dec-2016

 -------------
 #p 6-31g* mp2
 -------------

 ------------------------------------------------------
 Input file generated by CHIRIPA (05-May-2021 14:51:11)
 ------------------------------------------------------
 Symbolic Z-matrix:
 Charge =  0 Multiplicity = 1

                         Standard orientation:
 ---------------------------------------------------------------------
 Center     Atomic      Atomic             Coordinates (Angstroms)
 Number     Number       Type             X           Y           Z
 ---------------------------------------------------------------------
      1          6           0        2.672457   -0.141546    0.407842
      2          6           0        3.993482    0.562048    0.095056
      3          6           0        4.270708    1.741082    1.028233
      4          1           0        1.851543    0.585084    0.336753
      5          1           0        2.689673   -0.492831    1.448849
      6          1           0        3.974327    0.910687   -0.945473
      7          1           0        4.811325   -0.166384    0.166710
      8          1           0        4.316672    1.405781    2.069416
      9          1           0        3.474917    2.488972    0.950914
     10          1           0        5.219937    2.229528    0.786895
     11          6           0        2.381292   -1.322382   -0.516592
     12          6           0        1.060268   -2.025976   -0.203806
     13          6           0        0.783041   -3.205009   -1.136984
     14          1           0        2.364077   -0.971096   -1.557599
     15          1           0        3.202207   -2.049012   -0.445503
     16          1           0        0.242424   -1.297543   -0.275460
     17          1           0        1.079423   -2.374614    0.836723
     18          1           0        1.578832   -3.952899   -1.059664
     19          1           0        0.737078   -2.869708   -2.178166
     20          1           0       -0.166188   -3.693455   -0.895645
     21          6           0       -2.803722    0.260661    0.587912
     22          6           0       -3.052562   -1.157746    0.073925
     23          6           0       -3.606363   -2.088837    1.152891
     24          1           0       -2.103665    0.219828    1.433607
     25          1           0       -3.744361    0.671262    0.980341
     26          1           0       -2.112035   -1.565036   -0.318683
     27          1           0       -3.751958   -1.113513   -0.770767
     28          1           0       -4.557797   -1.708574    1.538605
     29          1           0       -2.908557   -2.162663    1.993258
     30          1           0       -3.776840   -3.097523    0.763857
     31          6           0       -2.250028    1.203266   -0.479162
     32          6           0       -2.001188    2.621674    0.034825
     33          6           0       -1.447386    3.552764   -1.044141
     34          1           0       -1.309389    0.792666   -0.871591
     35          1           0       -2.950084    1.244099   -1.324857
     36          1           0       -1.301792    2.577441    0.879517
     37          1           0       -2.941715    3.028964    0.427433
     38          1           0       -2.145193    3.626591   -1.884508
     39          1           0       -0.495952    3.172503   -1.429855
     40          1           0       -1.276909    4.561452   -0.655107
 ---------------------------------------------------------------------

 SCF Done:  E(RHF) =  -470.733085528     A.U. after   11 cycles
 E2 =    -0.1583975533D+01 EUMP2 =    -0.47231706106105D+03

 The electronic state is 1-A.
 Alpha  occ. eigenvalues --  -11.21657 -11.21648 -11.21639 -11.21554 -11.21470
 Alpha  occ. eigenvalues --  -11.21435 -11.21410 -11.21360 -11.21127 -11.21117
 Alpha  occ. eigenvalues --  -11.21105 -11.21055  -1.08511  -1.08433  -1.03606
 Alpha  occ. eigenvalues --   -1.03523  -0.96036  -0.95993  -0.87048  -0.87010
 Alpha  occ. eigenvalues --   -0.79685  -0.79583  -0.78373  -0.78202  -0.65335
 Alpha  occ. eigenvalues --   -0.64905  -0.61119  -0.60836  -0.59442  -0.59308
 Alpha  occ. eigenvalues --   -0.57673  -0.57571  -0.55321  -0.55284  -0.52730
 Alpha  occ. eigenvalues --   -0.52681  -0.52458  -0.52417  -0.49989  -0.49925
 Alpha  occ. eigenvalues --   -0.48022  -0.47890  -0.46866  -0.46569  -0.46111
 Alpha  occ. eigenvalues --   -0.45811  -0.45762  -0.45276  -0.43840  -0.43797
 Alpha virt. eigenvalues --    0.19601   0.22373   0.23671   0.24844   0.25780
 Alpha virt. eigenvalues --    0.26758   0.26847   0.27376   0.28267   0.29870
 Alpha virt. eigenvalues --    0.31120   0.31196   0.31494   0.31768   0.32389

 Mulliken charges:
               1
     1  C   -0.299096
     2  C   -0.299682
     3  C   -0.475810
     4  H    0.149205
     5  H    0.149704
     6  H    0.152071
     7  H    0.152224
     8  H    0.155209
     9  H    0.155293
    10  H    0.160514
    11  C   -0.297419
    12  C   -0.308918
    13  C   -0.476928
    14  H    0.149523
    15  H    0.150048
    16  H    0.159469
    17  H    0.152095
    18  H    0.155744
    19  H    0.155489
    20  H    0.161507
    21  C   -0.298233
    22  C   -0.307350
    23  C   -0.475446
    24  H    0.150347
    25  H    0.149775
    26  H    0.160157
    27  H    0.151676
    28  H    0.155098
    29  H    0.155395
    30  H    0.159831
    31  C   -0.302301
    32  C   -0.299788
    33  C   -0.475723
    34  H    0.151307
    35  H    0.150054
    36  H    0.152196
    37  H    0.152344
    38  H    0.155431
    39  H    0.154449
    40  H    0.160539
 Sum of Mulliken charges =  -0.00000

 Dipole moment (field-independent basis, Debye):
    X=              0.0140    Y=             -0.0099    Z=              0.0003  Tot=              0.0172
 Quadrupole moment (field-independent basis, Debye-Ang):
   XX=            -83.8909   YY=            -85.6727   ZZ=            -85.0930
   XY=             -1.2337   XZ=              0.6487   YZ=             -0.4516

 Normal termination of Gaussian 16 at Thu May  6 05:28:17 2021.
