 Gaussian 16, Revision A.03,
 Gaussian 16:  EM64L-G16RevA.03 25-Dec-2016

 -------------
 #p 6-31g* mp2
 -------------

 ------------------------------------------------------
 Input file generated by CHIRIPA (05-May-2021 14:55:24)
 ------------------------------------------------------
 Symbolic Z-matrix:
 Charge =  0 Multiplicity = 1

                         Standard orientation:
 ---------------------------------------------------------------------
 Center     Atomic      Atomic             Coordinates (Angstroms)
 Number     Number       Type             X           Y           Z
 ---------------------------------------------------------------------
      1          6           0       -3.404136   -1.768615    0.923592
      2          6           0       -3.338324   -1.506340   -0.448779
      3          6           0       -2.849466   -0.282360   -0.915082
      4          6           0       -2.433034    0.660866    0.023107
      5          6           0       -2.486184    0.429302    1.396731
      6          6           0       -2.978607   -0.801661    1.840351
      7          1           0       -3.785277   -2.722144    1.277017
      8          1           0       -3.668099   -2.255423   -1.163039
      9          1           0       -2.787557   -0.053069   -1.971969
     10          1           0       -2.150106    1.195685    2.084573
     11          1           0       -3.028569   -1.002596    2.906735
     12          7           0       -1.913615    1.960335   -0.458540
     13          8           0       -1.552936    2.774720    0.388411
     14          8           0       -1.877008    2.139869   -1.673885
     15          6           0        2.473255   -0.680195   -0.040252
     16          6           0        1.891934   -1.725999   -0.992273
     17          6           0        0.389334   -1.931732   -0.798213
     18          1           0        2.274425   -0.986161    0.995990
     19          1           0        1.949182    0.273833   -0.190499
     20          1           0        2.417888   -2.677408   -0.841244
     21          1           0        2.092339   -1.417604   -2.026365
     22          1           0       -0.152827   -0.996040   -0.968922
     23          1           0        0.174571   -2.263002    0.222932
     24          1           0       -0.005453   -2.683429   -1.488833
     25          6           0        3.974464   -0.463351   -0.222120
     26          6           0        4.555784    0.582452    0.729903
     27          6           0        6.058385    0.788187    0.535842
     28          1           0        4.498537   -1.417379   -0.071873
     29          1           0        4.173294   -0.157385   -1.258361
     30          1           0        4.355380    0.274058    1.763994
     31          1           0        4.029830    1.533862    0.578873
     32          1           0        6.273148    1.119456   -0.485303
     33          1           0        6.600545   -0.147506    0.706551
     34          1           0        6.453171    1.539882    1.226462
 ---------------------------------------------------------------------

 SCF Done:  E(RHF) =  -669.534341008     A.U. after   15 cycles
 E2 =    -0.2093396177D+01 EUMP2 =    -0.67162773718501D+03

 The electronic state is 1-A.
 Alpha  occ. eigenvalues --  -20.60813 -20.60807 -15.85861 -11.31162 -11.27771
 Alpha  occ. eigenvalues --  -11.27741 -11.27523 -11.26778 -11.26752 -11.21462
 Alpha  occ. eigenvalues --  -11.21331 -11.21199 -11.21134 -11.20995 -11.20831
 Alpha  occ. eigenvalues --   -1.59890  -1.39443  -1.19377  -1.08775  -1.08231
 Alpha  occ. eigenvalues --   -1.04776  -1.03353  -0.95825  -0.95607  -0.86844
 Alpha  occ. eigenvalues --   -0.86175  -0.82444  -0.79426  -0.78041  -0.77493
 Alpha  occ. eigenvalues --   -0.72080  -0.71223  -0.70491  -0.65027  -0.64860
 Alpha  occ. eigenvalues --   -0.64775  -0.62122  -0.60762  -0.59195  -0.57462
 Alpha  occ. eigenvalues --   -0.55288  -0.55157  -0.53433  -0.52866  -0.52493
 Alpha  occ. eigenvalues --   -0.51943  -0.49752  -0.48840  -0.48834  -0.47693
 Alpha  occ. eigenvalues --   -0.46456  -0.45577  -0.45496  -0.44848  -0.43616
 Alpha  occ. eigenvalues --   -0.37313  -0.36290
 Alpha virt. eigenvalues --    0.05028   0.11216   0.16513   0.21374   0.23032
 Alpha virt. eigenvalues --    0.24392   0.26801   0.27195   0.27617   0.28174
 Alpha virt. eigenvalues --    0.28388   0.30641   0.31496   0.31893   0.32090

 Mulliken charges:
               1
     1  C   -0.170736
     2  C   -0.211508
     3  C   -0.174993
     4  C    0.161305
     5  C   -0.170776
     6  C   -0.218384
     7  H    0.225731
     8  H    0.223518
     9  H    0.275424
    10  H    0.275647
    11  H    0.223369
    12  N    0.487698
    13  O   -0.460491
    14  O   -0.461127
    15  C   -0.299263
    16  C   -0.299869
    17  C   -0.475987
    18  H    0.146653
    19  H    0.154677
    20  H    0.149382
    21  H    0.153469
    22  H    0.159538
    23  H    0.152636
    24  H    0.153200
    25  C   -0.298122
    26  C   -0.300356
    27  C   -0.475701
    28  H    0.147598
    29  H    0.151090
    30  H    0.150084
    31  H    0.156490
    32  H    0.155892
    33  H    0.153601
    34  H    0.160313
 Sum of Mulliken charges =  -0.00000

 Dipole moment (field-independent basis, Debye):
    X=             -1.9182    Y=             -4.5134    Z=              1.7053  Tot=              5.1922
 Quadrupole moment (field-independent basis, Debye-Ang):
   XX=            -87.6559   YY=           -100.8085   ZZ=            -89.8264
   XY=             10.3192   XZ=             -3.3478   YZ=              2.0099

 Normal termination of Gaussian 16 at Thu May  6 19:21:37 2021.
