 Gaussian 16, Revision A.03,
 Gaussian 16:  EM64L-G16RevA.03 25-Dec-2016

 -------------
 #p 6-31g* mp2
 -------------

 ------------------------------------------------------
 Input file generated by CHIRIPA (05-May-2021 14:55:23)
 ------------------------------------------------------
 Symbolic Z-matrix:
 Charge =  0 Multiplicity = 1

                         Standard orientation:
 ---------------------------------------------------------------------
 Center     Atomic      Atomic             Coordinates (Angstroms)
 Number     Number       Type             X           Y           Z
 ---------------------------------------------------------------------
      1          6           0        3.351805   -2.004288    0.447529
      2          6           0        2.249434   -1.491619    1.139245
      3          6           0        1.866014   -0.157246    0.974971
      4          6           0        2.610861    0.639842    0.107133
      5          6           0        3.713997    0.158345   -0.596104
      6          6           0        4.079285   -1.179124   -0.416415
      7          1           0        3.642613   -3.042063    0.581128
      8          1           0        1.682610   -2.130136    1.810849
      9          1           0        1.016845    0.265487    1.498065
     10          1           0        4.259504    0.819256   -1.258703
     11          1           0        4.935846   -1.574561   -0.954912
     12          7           0        2.214548    2.054122   -0.074936
     13          8           0        2.887249    2.735753   -0.845319
     14          8           0        1.238722    2.454223    0.556188
     15          6           0       -3.050449   -1.082449   -0.532101
     16          6           0       -1.615389   -1.263485   -0.036304
     17          6           0       -0.878035   -2.391126   -0.759166
     18          1           0       -3.599005   -2.025063   -0.399781
     19          1           0       -3.035021   -0.878686   -1.611748
     20          1           0       -1.633437   -1.465475    1.042348
     21          1           0       -1.070239   -0.320273   -0.169642
     22          1           0       -0.830416   -2.192809   -1.834807
     23          1           0       -1.396815   -3.344518   -0.615930
     24          1           0        0.145892   -2.503119   -0.389178
     25          6           0       -3.800567    0.041165    0.181022
     26          6           0       -5.235627    0.222201   -0.314774
     27          6           0       -5.972981    1.349842    0.408087
     28          1           0       -3.815995   -0.162598    1.260669
     29          1           0       -3.252011    0.983779    0.048703
     30          1           0       -5.780777   -0.721011   -0.181436
     31          1           0       -5.217578    0.424191   -1.393427
     32          1           0       -5.454202    2.303233    0.264852
     33          1           0       -6.020600    1.151524    1.483728
     34          1           0       -6.996908    1.461835    0.038100
 ---------------------------------------------------------------------

 SCF Done:  E(RHF) =  -669.534802777     A.U. after   15 cycles
 E2 =    -0.2093432811D+01 EUMP2 =    -0.67162823558812D+03

 The electronic state is 1-A.
 Alpha  occ. eigenvalues --  -20.60836 -20.60831 -15.85884 -11.31241 -11.27809
 Alpha  occ. eigenvalues --  -11.27785 -11.27560 -11.26824 -11.26808 -11.21810
 Alpha  occ. eigenvalues --  -11.21477 -11.21427 -11.21253 -11.21213 -11.20890
 Alpha  occ. eigenvalues --   -1.59908  -1.39461  -1.19426  -1.08823  -1.08430
 Alpha  occ. eigenvalues --   -1.04837  -1.03547  -0.95987  -0.95650  -0.87014
 Alpha  occ. eigenvalues --   -0.86219  -0.82484  -0.79645  -0.78239  -0.77522
 Alpha  occ. eigenvalues --   -0.72101  -0.71230  -0.70522  -0.65083  -0.65063
 Alpha  occ. eigenvalues --   -0.64818  -0.62194  -0.60947  -0.59418  -0.57646
 Alpha  occ. eigenvalues --   -0.55320  -0.55262  -0.53351  -0.52927  -0.52591
 Alpha  occ. eigenvalues --   -0.52238  -0.49920  -0.48861  -0.48857  -0.47945
 Alpha  occ. eigenvalues --   -0.46672  -0.45774  -0.45677  -0.44856  -0.43804
 Alpha  occ. eigenvalues --   -0.37382  -0.36344
 Alpha virt. eigenvalues --    0.04986   0.11098   0.16444   0.20816   0.22987
 Alpha virt. eigenvalues --    0.24321   0.26295   0.26575   0.27439   0.28352
 Alpha virt. eigenvalues --    0.28909   0.30467   0.31454   0.31593   0.32552

 Mulliken charges:
               1
     1  C   -0.170799
     2  C   -0.221529
     3  C   -0.166825
     4  C    0.157401
     5  C   -0.170753
     6  C   -0.218044
     7  H    0.226314
     8  H    0.225630
     9  H    0.277951
    10  H    0.275761
    11  H    0.223804
    12  N    0.488363
    13  O   -0.459975
    14  O   -0.461032
    15  C   -0.297444
    16  C   -0.304101
    17  C   -0.481607
    18  H    0.148399
    19  H    0.151603
    20  H    0.143432
    21  H    0.158566
    22  H    0.157490
    23  H    0.152603
    24  H    0.161036
    25  C   -0.300230
    26  C   -0.299739
    27  C   -0.476079
    28  H    0.147497
    29  H    0.156828
    30  H    0.150336
    31  H    0.152652
    32  H    0.158260
    33  H    0.154446
    34  H    0.159783
 Sum of Mulliken charges =  -0.00000

 Dipole moment (field-independent basis, Debye):
    X=              1.4575    Y=             -4.8709    Z=              0.6136  Tot=              5.1212
 Quadrupole moment (field-independent basis, Debye-Ang):
   XX=            -85.1021   YY=           -102.1306   ZZ=            -92.7375
   XY=            -11.3592   XZ=             -0.8036   YZ=             -1.4659

 Normal termination of Gaussian 16 at Wed May  5 22:21:19 2021.
