 Gaussian 16, Revision A.03,
 Gaussian 16:  EM64L-G16RevA.03 25-Dec-2016

 -------------
 #p 6-31g* mp2
 -------------

 ------------------------------------------------------
 Input file generated by CHIRIPA (05-May-2021 14:53:11)
 ------------------------------------------------------
 Symbolic Z-matrix:
 Charge =  0 Multiplicity = 1

                         Standard orientation:
 ---------------------------------------------------------------------
 Center     Atomic      Atomic             Coordinates (Angstroms)
 Number     Number       Type             X           Y           Z
 ---------------------------------------------------------------------
      1          6           0       -4.125031    0.517124    0.297025
      2          6           0       -3.952630    1.893023   -0.347309
      3          6           0       -2.709649    2.628944    0.153902
      4          1           0       -4.181676    0.634625    1.387864
      5          1           0       -3.231733   -0.089657    0.093976
      6          1           0       -4.846580    2.496552   -0.144278
      7          1           0       -3.896582    1.772251   -1.436753
      8          1           0       -1.805850    2.050270   -0.062627
      9          1           0       -2.761246    2.778687    1.237191
     10          1           0       -2.605807    3.610179   -0.319655
     11          6           0       -5.363254   -0.230878   -0.193918
     12          6           0       -5.535656   -1.606777    0.450415
     13          6           0       -6.778637   -2.342699   -0.050795
     14          1           0       -6.256553    0.375903    0.009130
     15          1           0       -5.306610   -0.348379   -1.284757
     16          1           0       -5.591704   -1.486005    1.539859
     17          1           0       -4.641705   -2.210307    0.247385
     18          1           0       -6.727039   -2.492442   -1.134084
     19          1           0       -7.682436   -1.764025    0.165734
     20          1           0       -6.882479   -3.323933    0.422761
     21          6           0        1.491998    1.083515   -0.223861
     22          6           0        2.656474    1.806155    0.055971
     23          6           0        3.888872    1.154288    0.159961
     24          6           0        3.920438   -0.227375   -0.022528
     25          6           0        2.777718   -0.975149   -0.302373
     26          6           0        1.556223   -0.302388   -0.401827
     27          1           0        0.538876    1.598016   -0.302881
     28          1           0        2.609595    2.882544    0.194661
     29          1           0        4.805791    1.689212    0.375680
     30          1           0        2.856047   -2.047313   -0.435579
     31          1           0        0.653492   -0.866169   -0.619245
     32          7           0        5.219351   -0.928537    0.085161
     33          8           0        5.220484   -2.146486   -0.079872
     34          8           0        6.211710   -0.246882    0.332561
 ---------------------------------------------------------------------

 SCF Done:  E(RHF) =  -669.535498920     A.U. after   15 cycles
 E2 =    -0.2090792283D+01 EUMP2 =    -0.67162629120287D+03

 The electronic state is 1-A.
 Alpha  occ. eigenvalues --  -20.60732 -20.60727 -15.85786 -11.31146 -11.27720
 Alpha  occ. eigenvalues --  -11.27714 -11.27434 -11.26732 -11.26717 -11.22545
 Alpha  occ. eigenvalues --  -11.22298 -11.22242 -11.22181 -11.22045 -11.21541
 Alpha  occ. eigenvalues --   -1.59808  -1.39362  -1.19319  -1.09211  -1.08713
 Alpha  occ. eigenvalues --   -1.04723  -1.04322  -0.96790  -0.95550  -0.87809
 Alpha  occ. eigenvalues --   -0.86120  -0.82385  -0.80393  -0.78993  -0.77432
 Alpha  occ. eigenvalues --   -0.72004  -0.71131  -0.70445  -0.65843  -0.64971
 Alpha  occ. eigenvalues --   -0.64730  -0.62073  -0.61727  -0.60162  -0.58386
 Alpha  occ. eigenvalues --   -0.56176  -0.55181  -0.53473  -0.53190  -0.53049
 Alpha  occ. eigenvalues --   -0.52816  -0.50727  -0.48771  -0.48760  -0.48692
 Alpha  occ. eigenvalues --   -0.47419  -0.46542  -0.46449  -0.44769  -0.44563
 Alpha  occ. eigenvalues --   -0.37294  -0.36330
 Alpha virt. eigenvalues --    0.05105   0.11325   0.16591   0.19449   0.22421
 Alpha virt. eigenvalues --    0.23727   0.25275   0.26020   0.26603   0.27682
 Alpha virt. eigenvalues --    0.28664   0.30306   0.30892   0.31308   0.31966

 Mulliken charges:
               1
     1  C   -0.297412
     2  C   -0.299873
     3  C   -0.480538
     4  H    0.152062
     5  H    0.143743
     6  H    0.156353
     7  H    0.153242
     8  H    0.144995
     9  H    0.160123
    10  H    0.163406
    11  C   -0.298975
    12  C   -0.299904
    13  C   -0.476147
    14  H    0.151618
    15  H    0.150287
    16  H    0.153202
    17  H    0.150801
    18  H    0.155712
    19  H    0.156281
    20  H    0.162037
    21  C   -0.177632
    22  C   -0.221082
    23  C   -0.170642
    24  C    0.158227
    25  C   -0.170789
    26  C   -0.221687
    27  H    0.237990
    28  H    0.224266
    29  H    0.275446
    30  H    0.275446
    31  H    0.222552
    32  N    0.487999
    33  O   -0.460598
    34  O   -0.460509
 Sum of Mulliken charges =  -0.00000

 Dipole moment (field-independent basis, Debye):
    X=             -4.8312    Y=              2.5055    Z=             -0.3508  Tot=              5.4535
 Quadrupole moment (field-independent basis, Debye-Ang):
   XX=           -129.4958   YY=            -92.2556   ZZ=            -94.9179
   XY=             12.1709   XZ=             -1.6123   YZ=              1.1880

 Normal termination of Gaussian 16 at Wed May  5 20:04:21 2021.
