 Gaussian 16, Revision A.03,
 Gaussian 16:  EM64L-G16RevA.03 25-Dec-2016

 -------------
 #p 6-31g* mp2
 -------------

 ------------------------------------------------------
 Input file generated by CHIRIPA (05-May-2021 14:55:24)
 ------------------------------------------------------
 Symbolic Z-matrix:
 Charge =  0 Multiplicity = 1

                         Standard orientation:
 ---------------------------------------------------------------------
 Center     Atomic      Atomic             Coordinates (Angstroms)
 Number     Number       Type             X           Y           Z
 ---------------------------------------------------------------------
      1          6           0       -1.054203    1.846355   -0.056201
      2          6           0       -2.075366    1.801972   -1.011071
      3          6           0       -3.042399    0.793153   -0.970081
      4          6           0       -2.957624   -0.159437    0.044155
      5          6           0       -1.952438   -0.142115    1.009863
      6          6           0       -0.996100    0.875881    0.949445
      7          1           0       -0.307142    2.633594   -0.095590
      8          1           0       -2.122976    2.554331   -1.793206
      9          1           0       -3.843736    0.735060   -1.696649
     10          1           0       -1.931181   -0.906056    1.777561
     11          1           0       -0.204182    0.907862    1.692337
     12          7           0       -3.975717   -1.232286    0.097833
     13          8           0       -3.878909   -2.059740    1.001484
     14          8           0       -4.851229   -1.225417   -0.764761
     15          6           0        3.641321   -0.663503   -0.454189
     16          6           0        4.510801   -1.722860    0.223860
     17          6           0        4.642024   -2.999941   -0.606584
     18          1           0        2.643975   -1.083369   -0.643814
     19          1           0        4.070219   -0.420884   -1.436318
     20          1           0        4.081160   -1.962401    1.205005
     21          1           0        5.506134   -1.300360    0.412066
     22          1           0        5.091624   -2.781575   -1.580636
     23          1           0        3.658554   -3.447376   -0.783191
     24          1           0        5.267645   -3.743635   -0.103218
     25          6           0        3.500644    0.619007    0.363799
     26          6           0        2.631164    1.678365   -0.314249
     27          6           0        2.499941    2.955446    0.516196
     28          1           0        3.071747    0.376388    1.345929
     29          1           0        4.497991    1.038873    0.553425
     30          1           0        1.635831    1.255865   -0.502455
     31          1           0        3.060805    1.917906   -1.295394
     32          1           0        3.483411    3.402881    0.692803
     33          1           0        2.050341    2.737079    1.490247
     34          1           0        1.874320    3.699140    0.012828
 ---------------------------------------------------------------------

 SCF Done:  E(RHF) =  -669.534054398     A.U. after   15 cycles
 E2 =    -0.2093602956D+01 EUMP2 =    -0.67162765735360D+03

 The electronic state is 1-A.
 Alpha  occ. eigenvalues --  -20.60768 -20.60762 -15.85823 -11.31187 -11.27772
 Alpha  occ. eigenvalues --  -11.27766 -11.27417 -11.26765 -11.26746 -11.22570
 Alpha  occ. eigenvalues --  -11.22454 -11.22231 -11.22072 -11.21961 -11.21403
 Alpha  occ. eigenvalues --   -1.59844  -1.39397  -1.19369  -1.09216  -1.08749
 Alpha  occ. eigenvalues --   -1.04776  -1.04337  -0.96816  -0.95583  -0.87809
 Alpha  occ. eigenvalues --   -0.86170  -0.82430  -0.80406  -0.78945  -0.77475
 Alpha  occ. eigenvalues --   -0.72041  -0.71168  -0.70545  -0.65908  -0.65006
 Alpha  occ. eigenvalues --   -0.64744  -0.62173  -0.61641  -0.60268  -0.58413
 Alpha  occ. eigenvalues --   -0.56161  -0.55095  -0.53478  -0.53209  -0.53107
 Alpha  occ. eigenvalues --   -0.52855  -0.50727  -0.48806  -0.48796  -0.48700
 Alpha  occ. eigenvalues --   -0.47438  -0.46492  -0.46385  -0.44804  -0.44561
 Alpha  occ. eigenvalues --   -0.37264  -0.36379
 Alpha virt. eigenvalues --    0.05038   0.11178   0.16479   0.19126   0.22630
 Alpha virt. eigenvalues --    0.24121   0.24742   0.26265   0.26806   0.27798
 Alpha virt. eigenvalues --    0.29233   0.30255   0.31313   0.31574   0.32507

 Mulliken charges:
               1
     1  C   -0.174050
     2  C   -0.222031
     3  C   -0.170492
     4  C    0.158062
     5  C   -0.171148
     6  C   -0.223126
     7  H    0.238349
     8  H    0.223874
     9  H    0.275639
    10  H    0.275554
    11  H    0.225143
    12  N    0.488047
    13  O   -0.460588
    14  O   -0.460401
    15  C   -0.299578
    16  C   -0.300135
    17  C   -0.476356
    18  H    0.152369
    19  H    0.151143
    20  H    0.151794
    21  H    0.152555
    22  H    0.155822
    23  H    0.157172
    24  H    0.161986
    25  C   -0.297008
    26  C   -0.311860
    27  C   -0.484841
    28  H    0.145413
    29  H    0.152400
    30  H    0.157819
    31  H    0.156243
    32  H    0.165966
    33  H    0.151627
    34  H    0.154636
 Sum of Mulliken charges =  -0.00000

 Dipole moment (field-independent basis, Debye):
    X=              3.7463    Y=              3.7286    Z=             -0.2502  Tot=              5.2915
 Quadrupole moment (field-independent basis, Debye-Ang):
   XX=           -114.3297   YY=            -96.5676   ZZ=            -91.8474
   XY=            -12.3659   XZ=              2.4303   YZ=             -2.2953

 Normal termination of Gaussian 16 at Thu May  6 12:38:23 2021.
