 Gaussian 16, Revision A.03,
 Gaussian 16:  EM64L-G16RevA.03 25-Dec-2016

 -------------
 #p 6-31g* mp2
 -------------

 ------------------------------------------------------
 Input file generated by CHIRIPA (05-May-2021 14:53:18)
 ------------------------------------------------------
 Symbolic Z-matrix:
 Charge =  0 Multiplicity = 1

                         Standard orientation:
 ---------------------------------------------------------------------
 Center     Atomic      Atomic             Coordinates (Angstroms)
 Number     Number       Type             X           Y           Z
 ---------------------------------------------------------------------
      1          6           0        3.237444   -0.055968   -0.054762
      2          6           0        2.828649   -1.525316    0.054272
      3          6           0        4.008186   -2.445136    0.371159
      4          1           0        4.004786    0.047682   -0.834112
      5          1           0        3.705487    0.258146    0.888457
      6          1           0        2.360266   -1.836180   -0.888382
      7          1           0        2.062052   -1.625452    0.833321
      8          1           0        4.472316   -2.162855    1.321686
      9          1           0        4.772224   -2.374780   -0.409800
     10          1           0        3.693435   -3.490791    0.444624
     11          6           0        2.069116    0.876023   -0.371197
     12          6           0        2.477911    2.345371   -0.480231
     13          6           0        1.298373    3.265191   -0.797118
     14          1           0        1.601073    0.561909   -1.314417
     15          1           0        1.301774    0.772372    0.408153
     16          1           0        3.244507    2.445507   -1.259280
     17          1           0        2.946294    2.656235    0.462423
     18          1           0        0.534335    3.194834   -0.016159
     19          1           0        0.834243    2.982909   -1.747645
     20          1           0        1.613125    4.310846   -0.870583
     21          6           0       -2.162208    2.097117    0.883241
     22          6           0       -2.982006    1.644320   -0.155714
     23          6           0       -2.940877    0.307006   -0.561234
     24          6           0       -2.064238   -0.554044    0.097087
     25          6           0       -1.234973   -0.133108    1.135559
     26          6           0       -1.292840    1.208524    1.524431
     27          1           0       -2.200658    3.137652    1.191792
     28          1           0       -3.658136    2.332167   -0.655473
     29          1           0       -3.564526   -0.070180   -1.362615
     30          1           0       -0.571175   -0.842448    1.614751
     31          1           0       -0.655020    1.557379    2.331605
     32          7           0       -2.011837   -1.972085   -0.323406
     33          8           0       -1.230906   -2.710695    0.272611
     34          8           0       -2.752689   -2.318084   -1.241044
 ---------------------------------------------------------------------

 SCF Done:  E(RHF) =  -669.533517437     A.U. after   15 cycles
 E2 =    -0.2095461035D+01 EUMP2 =    -0.67162897847225D+03

 The electronic state is 1-A.
 Alpha  occ. eigenvalues --  -20.60821 -20.60812 -15.85868 -11.31244 -11.27825
 Alpha  occ. eigenvalues --  -11.27819 -11.27566 -11.26831 -11.26821 -11.21833
 Alpha  occ. eigenvalues --  -11.21412 -11.21388 -11.21379 -11.21317 -11.20809
 Alpha  occ. eigenvalues --   -1.59889  -1.39443  -1.19437  -1.08828  -1.08466
 Alpha  occ. eigenvalues --   -1.04856  -1.03547  -0.96023  -0.95648  -0.87037
 Alpha  occ. eigenvalues --   -0.86241  -0.82496  -0.79625  -0.78294  -0.77506
 Alpha  occ. eigenvalues --   -0.72088  -0.71208  -0.70548  -0.65179  -0.65063
 Alpha  occ. eigenvalues --   -0.64854  -0.62187  -0.60972  -0.59388  -0.57604
 Alpha  occ. eigenvalues --   -0.55387  -0.55289  -0.53261  -0.52943  -0.52688
 Alpha  occ. eigenvalues --   -0.52446  -0.49995  -0.48850  -0.48846  -0.47899
 Alpha  occ. eigenvalues --   -0.46677  -0.45811  -0.45724  -0.44813  -0.43794
 Alpha  occ. eigenvalues --   -0.37361  -0.36277
 Alpha virt. eigenvalues --    0.04953   0.11057   0.16326   0.20264   0.23170
 Alpha virt. eigenvalues --    0.23800   0.25612   0.26903   0.27222   0.28253
 Alpha virt. eigenvalues --    0.29623   0.30244   0.31240   0.31599   0.32121

 Mulliken charges:
               1
     1  C   -0.298594
     2  C   -0.299770
     3  C   -0.476363
     4  H    0.150040
     5  H    0.145693
     6  H    0.158409
     7  H    0.150766
     8  H    0.151999
     9  H    0.154427
    10  H    0.165644
    11  C   -0.301832
    12  C   -0.299183
    13  C   -0.476793
    14  H    0.151173
    15  H    0.149697
    16  H    0.153584
    17  H    0.148475
    18  H    0.150060
    19  H    0.156818
    20  H    0.158155
    21  C   -0.168815
    22  C   -0.218650
    23  C   -0.171121
    24  C    0.158621
    25  C   -0.170078
    26  C   -0.218519
    27  H    0.226606
    28  H    0.224005
    29  H    0.275838
    30  H    0.278494
    31  H    0.223929
    32  N    0.487979
    33  O   -0.460347
    34  O   -0.460349
 Sum of Mulliken charges =  -0.00000

 Dipole moment (field-independent basis, Debye):
    X=             -0.3031    Y=              4.8500    Z=              1.4215  Tot=              5.0632
 Quadrupole moment (field-independent basis, Debye-Ang):
   XX=            -92.6863   YY=           -101.5400   ZZ=            -91.5150
   XY=            -10.9206   XZ=             -0.8147   YZ=             -0.6722

 Normal termination of Gaussian 16 at Wed May  5 17:17:54 2021.
