 Gaussian 16, Revision A.03,
 Gaussian 16:  EM64L-G16RevA.03 25-Dec-2016

 -------------
 #p 6-31g* mp2
 -------------

 ------------------------------------------------------
 Input file generated by CHIRIPA (05-May-2021 14:55:25)
 ------------------------------------------------------
 Symbolic Z-matrix:
 Charge =  0 Multiplicity = 1

                         Standard orientation:
 ---------------------------------------------------------------------
 Center     Atomic      Atomic             Coordinates (Angstroms)
 Number     Number       Type             X           Y           Z
 ---------------------------------------------------------------------
      1          6           0        5.238375    0.000977    0.456271
      2          6           0        4.317224    0.924863    0.960688
      3          6           0        2.951024    0.778622    0.702502
      4          6           0        2.538989   -0.308125   -0.067236
      5          6           0        3.432258   -1.245404   -0.583829
      6          6           0        4.793736   -1.079304   -0.313021
      7          1           0        6.297837    0.122294    0.661739
      8          1           0        4.659672    1.764789    1.558433
      9          1           0        2.216286    1.479051    1.080625
     10          1           0        3.060707   -2.072512   -1.176501
     11          1           0        5.506848   -1.798359   -0.706055
     12          7           0        1.095154   -0.473456   -0.347247
     13          8           0        0.757631   -1.439470   -1.028080
     14          8           0        0.328338    0.366101    0.119415
     15          6           0       -3.906704   -0.119244    0.506746
     16          6           0       -4.384798   -1.407327   -0.164263
     17          6           0       -5.087452   -2.354958    0.808397
     18          1           0       -3.225198   -0.373374    1.330101
     19          1           0       -4.767737    0.391271    0.959948
     20          1           0       -3.523329   -1.914560   -0.617255
     21          1           0       -5.065094   -1.150092   -0.986237
     22          1           0       -5.964119   -1.871598    1.251588
     23          1           0       -4.413593   -2.640410    1.622666
     24          1           0       -5.420987   -3.269270    0.307752
     25          6           0       -3.202288    0.838288   -0.452764
     26          6           0       -2.724195    2.126371    0.218244
     27          6           0       -2.021541    3.074002   -0.754415
     28          1           0       -2.341255    0.327774   -0.905966
     29          1           0       -3.883794    1.092419   -1.276118
     30          1           0       -2.043897    1.869136    1.040220
     31          1           0       -3.585662    2.633604    0.671237
     32          1           0       -2.695399    3.359454   -1.568684
     33          1           0       -1.144874    2.590642   -1.197605
     34          1           0       -1.688004    3.988315   -0.253769
 ---------------------------------------------------------------------

 SCF Done:  E(RHF) =  -669.536728333     A.U. after   15 cycles
 E2 =    -0.2092439748D+01 EUMP2 =    -0.67162916808145D+03

 The electronic state is 1-A.
 Alpha  occ. eigenvalues --  -20.61221 -20.61215 -15.86215 -11.31440 -11.27988
 Alpha  occ. eigenvalues --  -11.27984 -11.27710 -11.26973 -11.26963 -11.20251
 Alpha  occ. eigenvalues --  -11.20011 -11.19931 -11.19859 -11.19621 -11.19458
 Alpha  occ. eigenvalues --   -1.60261  -1.39821  -1.19597  -1.09023  -1.06826
 Alpha  occ. eigenvalues --   -1.04977  -1.02073  -0.95880  -0.94549  -0.86383
 Alpha  occ. eigenvalues --   -0.85578  -0.82719  -0.78162  -0.77783  -0.76624
 Alpha  occ. eigenvalues --   -0.72464  -0.71559  -0.70706  -0.65263  -0.64983
 Alpha  occ. eigenvalues --   -0.63395  -0.62323  -0.59427  -0.57946  -0.56179
 Alpha  occ. eigenvalues --   -0.55487  -0.53823  -0.53313  -0.53066  -0.51324
 Alpha  occ. eigenvalues --   -0.51002  -0.49281  -0.49196  -0.48404  -0.46493
 Alpha  occ. eigenvalues --   -0.45350  -0.45060  -0.44199  -0.43925  -0.42294
 Alpha  occ. eigenvalues --   -0.37570  -0.36572
 Alpha virt. eigenvalues --    0.04715   0.11084   0.16215   0.21175   0.24478
 Alpha virt. eigenvalues --    0.25640   0.27151   0.27868   0.28580   0.29108
 Alpha virt. eigenvalues --    0.29350   0.30837   0.32158   0.32873   0.33060

 Mulliken charges:
               1
     1  C   -0.170214
     2  C   -0.218558
     3  C   -0.170455
     4  C    0.157163
     5  C   -0.170305
     6  C   -0.218637
     7  H    0.226593
     8  H    0.224492
     9  H    0.276292
    10  H    0.276118
    11  H    0.224339
    12  N    0.492984
    13  O   -0.458129
    14  O   -0.462856
    15  C   -0.296841
    16  C   -0.300734
    17  C   -0.474638
    18  H    0.151462
    19  H    0.141703
    20  H    0.159878
    21  H    0.147543
    22  H    0.151463
    23  H    0.153755
    24  H    0.156378
    25  C   -0.303393
    26  C   -0.294025
    27  C   -0.477851
    28  H    0.174959
    29  H    0.139091
    30  H    0.158685
    31  H    0.141328
    32  H    0.148282
    33  H    0.164551
    34  H    0.149578
 Sum of Mulliken charges =  -0.00000

 Dipole moment (field-independent basis, Debye):
    X=              5.6464    Y=              0.3852    Z=              0.9526  Tot=              5.7392
 Quadrupole moment (field-independent basis, Debye-Ang):
   XX=            -70.5278   YY=            -93.4610   ZZ=            -94.5760
   XY=             -1.4104   XZ=              2.3093   YZ=              2.8362

 Normal termination of Gaussian 16 at Thu May  6 04:49:18 2021.
