 Gaussian 16, Revision A.03,
 Gaussian 16:  EM64L-G16RevA.03 25-Dec-2016

 -------------
 #p 6-31g* mp2
 -------------

 ------------------------------------------------------
 Input file generated by CHIRIPA (05-May-2021 14:51:13)
 ------------------------------------------------------
 Symbolic Z-matrix:
 Charge =  0 Multiplicity = 1

                         Standard orientation:
 ---------------------------------------------------------------------
 Center     Atomic      Atomic             Coordinates (Angstroms)
 Number     Number       Type             X           Y           Z
 ---------------------------------------------------------------------
      1          6           0        3.518515    1.175834    0.171961
      2          6           0        2.267086    1.906132   -0.316481
      3          6           0        2.250186    3.381957    0.082832
      4          1           0        3.582368    1.262085    1.265317
      5          1           0        4.408554    1.676588   -0.233591
      6          1           0        1.379627    1.403319    0.088748
      7          1           0        2.206103    1.817970   -1.408784
      8          1           0        3.117657    3.903795   -0.334037
      9          1           0        2.286485    3.486788    1.172003
     10          1           0        1.346885    3.884756   -0.276473
     11          6           0        3.549959   -0.300487   -0.219464
     12          6           0        4.801388   -1.030785    0.268978
     13          6           0        4.818288   -2.506610   -0.130336
     14          1           0        2.659920   -0.801241    0.186087
     15          1           0        3.486106   -0.386738   -1.312821
     16          1           0        4.862371   -0.942623    1.361280
     17          1           0        5.688847   -0.527972   -0.136252
     18          1           0        4.781989   -2.611441   -1.219507
     19          1           0        3.950817   -3.028448    0.286534
     20          1           0        5.721589   -3.009409    0.228969
     21          6           0       -2.889558   -0.575855    0.409402
     22          6           0       -1.695026   -0.879844   -0.495401
     23          6           0       -0.412647   -1.154146    0.290767
     24          1           0       -2.652051    0.291478    1.040489
     25          1           0       -3.049945   -1.423260    1.090266
     26          1           0       -1.537797   -0.032704   -1.175290
     27          1           0       -1.935476   -1.746435   -1.124543
     28          1           0       -0.545529   -2.012467    0.957271
     29          1           0       -0.145589   -0.288998    0.906235
     30          1           0        0.428559   -1.369084   -0.375592
     31          6           0       -4.178917   -0.299492   -0.361899
     32          6           0       -5.373449    0.004497    0.542905
     33          6           0       -6.655827    0.278798   -0.243263
     34          1           0       -4.018529    0.547912   -1.042762
     35          1           0       -4.416423   -1.166825   -0.992985
     36          1           0       -5.132998    0.871088    1.172046
     37          1           0       -5.530677   -0.842643    1.222793
     38          1           0       -6.922885   -0.586348   -0.858731
     39          1           0       -6.522946    1.137120   -0.909767
     40          1           0       -7.497033    0.493736    0.423095
 ---------------------------------------------------------------------

 SCF Done:  E(RHF) =  -470.732370821     A.U. after   11 cycles
 E2 =    -0.1583615677D+01 EUMP2 =    -0.47231598649865D+03

 The electronic state is 1-A.
 Alpha  occ. eigenvalues --  -11.21625 -11.21614 -11.21546 -11.21522 -11.21424
 Alpha  occ. eigenvalues --  -11.21364 -11.21335 -11.21255 -11.21088 -11.21080
 Alpha  occ. eigenvalues --  -11.21049 -11.21036  -1.08457  -1.08370  -1.03559
 Alpha  occ. eigenvalues --   -1.03481  -0.96022  -0.95928  -0.87040  -0.86953
 Alpha  occ. eigenvalues --   -0.79643  -0.79548  -0.78284  -0.78161  -0.65145
 Alpha  occ. eigenvalues --   -0.64967  -0.61062  -0.60795  -0.59395  -0.59304
 Alpha  occ. eigenvalues --   -0.57671  -0.57496  -0.55315  -0.55232  -0.52811
 Alpha  occ. eigenvalues --   -0.52596  -0.52458  -0.52301  -0.50038  -0.49836
 Alpha  occ. eigenvalues --   -0.47997  -0.47804  -0.46775  -0.46488  -0.45852
 Alpha  occ. eigenvalues --   -0.45747  -0.45716  -0.45500  -0.43762  -0.43668
 Alpha virt. eigenvalues --    0.21573   0.23072   0.23868   0.24369   0.26170
 Alpha virt. eigenvalues --    0.26714   0.26938   0.27523   0.27979   0.29061
 Alpha virt. eigenvalues --    0.30215   0.31510   0.31713   0.31932   0.32236

 Mulliken charges:
               1
     1  C   -0.297261
     2  C   -0.306782
     3  C   -0.475298
     4  H    0.149028
     5  H    0.149133
     6  H    0.159901
     7  H    0.151183
     8  H    0.155156
     9  H    0.154763
    10  H    0.159514
    11  C   -0.306486
    12  C   -0.298911
    13  C   -0.475892
    14  H    0.159721
    15  H    0.148225
    16  H    0.151743
    17  H    0.151557
    18  H    0.154849
    19  H    0.155199
    20  H    0.160139
    21  C   -0.298639
    22  C   -0.300594
    23  C   -0.481944
    24  H    0.149542
    25  H    0.149512
    26  H    0.152978
    27  H    0.152235
    28  H    0.155008
    29  H    0.156224
    30  H    0.165937
    31  C   -0.298303
    32  C   -0.299644
    33  C   -0.475714
    34  H    0.149621
    35  H    0.149713
    36  H    0.151953
    37  H    0.151921
    38  H    0.155202
    39  H    0.155222
    40  H    0.160291
 Sum of Mulliken charges =  -0.00000

 Dipole moment (field-independent basis, Debye):
    X=             -0.0382    Y=             -0.0293    Z=              0.0018  Tot=              0.0482
 Quadrupole moment (field-independent basis, Debye-Ang):
   XX=            -85.7657   YY=            -85.0420   ZZ=            -84.2674
   XY=              0.6899   XZ=             -0.7698   YZ=             -0.3654

 Normal termination of Gaussian 16 at Wed May  5 18:22:54 2021.
