 Gaussian 16, Revision A.03,
 Gaussian 16:  EM64L-G16RevA.03 25-Dec-2016

 -------------
 #p 6-31g* mp2
 -------------

 ------------------------------------------------------
 Input file generated by CHIRIPA (05-May-2021 14:55:19)
 ------------------------------------------------------
 Symbolic Z-matrix:
 Charge =  0 Multiplicity = 1

                         Standard orientation:
 ---------------------------------------------------------------------
 Center     Atomic      Atomic             Coordinates (Angstroms)
 Number     Number       Type             X           Y           Z
 ---------------------------------------------------------------------
      1          6           0        2.355019    2.610150    0.210221
      2          6           0        1.541681    1.473573    0.266763
      3          6           0        2.095446    0.196853    0.133051
      4          6           0        3.472557    0.092996   -0.056862
      5          6           0        4.309276    1.206324   -0.117626
      6          6           0        3.733790    2.473139    0.018546
      7          1           0        1.916404    3.598089    0.315047
      8          1           0        0.470594    1.576958    0.415523
      9          1           0        1.489055   -0.699874    0.172915
     10          1           0        5.373667    1.071446   -0.266948
     11          1           0        4.367877    3.354055   -0.025775
     12          7           0        4.070301   -1.253368   -0.199719
     13          8           0        5.286342   -1.318002   -0.366162
     14          8           0        3.311453   -2.218519   -0.142541
     15          6           0       -3.600535   -0.436860    0.300372
     16          6           0       -2.930528   -1.788848    0.052978
     17          6           0       -1.494058   -1.840914    0.574165
     18          1           0       -3.006158    0.352946   -0.179072
     19          1           0       -3.592596   -0.223321    1.378210
     20          1           0       -2.940965   -2.000410   -1.023937
     21          1           0       -3.526672   -2.575548    0.532907
     22          1           0       -1.468638   -1.655229    1.652810
     23          1           0       -0.879604   -1.076822    0.087120
     24          1           0       -1.034137   -2.816239    0.386882
     25          6           0       -5.037013   -0.369266   -0.215079
     26          6           0       -5.707019    0.982723    0.032315
     27          6           0       -7.143490    1.034788   -0.488871
     28          1           0       -5.044952   -0.582805   -1.292916
     29          1           0       -5.631389   -1.159072    0.264367
     30          1           0       -5.110876    1.769423   -0.447613
     31          1           0       -5.696582    1.194284    1.109232
     32          1           0       -7.757943    0.270696   -0.001826
     33          1           0       -7.168909    0.849103   -1.567517
     34          1           0       -7.603410    2.010113   -0.301589
 ---------------------------------------------------------------------

 SCF Done:  E(RHF) =  -669.535542444     A.U. after   15 cycles
 E2 =    -0.2091191415D+01 EUMP2 =    -0.67162673385874D+03

 The electronic state is 1-A.
 Alpha  occ. eigenvalues --  -20.60705 -20.60699 -15.85756 -11.31105 -11.27692
 Alpha  occ. eigenvalues --  -11.27634 -11.27440 -11.26709 -11.26686 -11.22076
 Alpha  occ. eigenvalues --  -11.22007 -11.21929 -11.21785 -11.21696 -11.21396
 Alpha  occ. eigenvalues --   -1.59779  -1.39332  -1.19286  -1.08897  -1.08687
 Alpha  occ. eigenvalues --   -1.04692  -1.03987  -0.96453  -0.95521  -0.87474
 Alpha  occ. eigenvalues --   -0.86087  -0.82356  -0.80060  -0.78717  -0.77397
 Alpha  occ. eigenvalues --   -0.71976  -0.71102  -0.70406  -0.65529  -0.64942
 Alpha  occ. eigenvalues --   -0.64698  -0.62107  -0.61341  -0.59794  -0.58047
 Alpha  occ. eigenvalues --   -0.55768  -0.55187  -0.53139  -0.53022  -0.52929
 Alpha  occ. eigenvalues --   -0.52698  -0.50394  -0.48735  -0.48731  -0.48366
 Alpha  occ. eigenvalues --   -0.47082  -0.46263  -0.46170  -0.44741  -0.44231
 Alpha  occ. eigenvalues --   -0.37276  -0.36293
 Alpha virt. eigenvalues --    0.05128   0.11357   0.16610   0.19981   0.22558
 Alpha virt. eigenvalues --    0.23776   0.25314   0.26255   0.26877   0.28158
 Alpha virt. eigenvalues --    0.29200   0.29890   0.31365   0.31590   0.31759

 Mulliken charges:
               1
     1  C   -0.170681
     2  C   -0.221999
     3  C   -0.179204
     4  C    0.159686
     5  C   -0.170485
     6  C   -0.219026
     7  H    0.225291
     8  H    0.224126
     9  H    0.285709
    10  H    0.275316
    11  H    0.223154
    12  N    0.487862
    13  O   -0.460820
    14  O   -0.460274
    15  C   -0.298314
    16  C   -0.300263
    17  C   -0.480850
    18  H    0.143798
    19  H    0.149511
    20  H    0.155139
    21  H    0.155805
    22  H    0.156999
    23  H    0.143475
    24  H    0.172386
    25  C   -0.298599
    26  C   -0.299743
    27  C   -0.475950
    28  H    0.151069
    29  H    0.151751
    30  H    0.150159
    31  H    0.151885
    32  H    0.156373
    33  H    0.156020
    34  H    0.160692
 Sum of Mulliken charges =  -0.00000

 Dipole moment (field-independent basis, Debye):
    X=             -2.2749    Y=              4.6124    Z=              0.5130  Tot=              5.1684
 Quadrupole moment (field-independent basis, Debye-Ang):
   XX=           -105.8835   YY=            -93.0951   ZZ=            -94.9416
   XY=             19.1736   XZ=              0.7158   YZ=             -0.7401

 Normal termination of Gaussian 16 at Thu May  6 17:22:45 2021.
