 Gaussian 16, Revision A.03,
 Gaussian 16:  EM64L-G16RevA.03 25-Dec-2016

 -------------
 #p 6-31g* mp2
 -------------

 ------------------------------------------------------
 Input file generated by CHIRIPA (05-May-2021 14:57:26)
 ------------------------------------------------------
 Symbolic Z-matrix:
 Charge =  0 Multiplicity = 1

                         Standard orientation:
 ---------------------------------------------------------------------
 Center     Atomic      Atomic             Coordinates (Angstroms)
 Number     Number       Type             X           Y           Z
 ---------------------------------------------------------------------
      1          6           0        4.603593    2.266164    0.490898
      2          6           0        3.279313    2.119586    0.065083
      3          6           0        2.748523    0.849508   -0.179278
      4          6           0        3.573888   -0.257292    0.013226
      5          6           0        4.897173   -0.143859    0.436712
      6          6           0        5.406880    1.135966    0.675029
      7          1           0        5.007734    3.256577    0.678376
      8          1           0        2.653154    2.995532   -0.078753
      9          1           0        1.726727    0.707261   -0.509605
     10          1           0        5.496966   -1.035800    0.571274
     11          1           0        6.435691    1.246785    1.005652
     12          7           0        3.023125   -1.607026   -0.242269
     13          8           0        3.770867   -2.566283   -0.065226
     14          8           0        1.854124   -1.680132   -0.614732
     15          6           0       -6.007346    0.275317    0.850159
     16          6           0       -5.058132   -0.472922    1.554184
     17          6           0       -3.757120   -0.612921    1.061930
     18          6           0       -3.438179    0.011590   -0.142874
     19          6           0       -4.361575    0.763629   -0.867491
     20          6           0       -5.656656    0.890121   -0.356305
     21          1           0       -7.015701    0.378825    1.239908
     22          1           0       -5.327666   -0.951494    2.491396
     23          1           0       -3.002567   -1.186405    1.586509
     24          1           0       -4.063204    1.229030   -1.799046
     25          1           0       -6.391763    1.471819   -0.905203
     26          7           0       -2.063994   -0.129470   -0.674023
     27          8           0       -1.808069    0.430573   -1.737739
     28          8           0       -1.268854   -0.797405   -0.016565
 ---------------------------------------------------------------------

 SCF Done:  E(RHF) =  -868.336951071     A.U. after   16 cycles
 E2 =    -0.2600216672D+01 EUMP2 =    -0.87093716774270D+03

 The electronic state is 1-A.
 Alpha  occ. eigenvalues --  -20.60582 -20.60500 -20.59451 -20.59316 -15.85570
 Alpha  occ. eigenvalues --  -15.84429 -11.31039 -11.30048 -11.27635 -11.27597
 Alpha  occ. eigenvalues --  -11.27385 -11.26742 -11.26665 -11.26640 -11.26540
 Alpha  occ. eigenvalues --  -11.26523 -11.25814 -11.25721  -1.59608  -1.58478
 Alpha  occ. eigenvalues --   -1.39154  -1.38007  -1.19222  -1.18274  -1.08599
 Alpha  occ. eigenvalues --   -1.07643  -1.04637  -1.03706  -0.95412  -0.94417
 Alpha  occ. eigenvalues --   -0.86030  -0.85094  -0.82239  -0.81231  -0.77276
 Alpha  occ. eigenvalues --   -0.76216  -0.71771  -0.70946  -0.70613  -0.70328
 Alpha  occ. eigenvalues --   -0.69817  -0.69381  -0.64868  -0.64639  -0.63916
 Alpha  occ. eigenvalues --   -0.63723  -0.61980  -0.61020  -0.55137  -0.54244
 Alpha  occ. eigenvalues --   -0.52966  -0.52728  -0.52047  -0.51797  -0.48567
 Alpha  occ. eigenvalues --   -0.48522  -0.47470  -0.47324  -0.44537  -0.43351
 Alpha  occ. eigenvalues --   -0.37214  -0.36310  -0.36246  -0.35328
 Alpha virt. eigenvalues --    0.05241   0.06293   0.11406   0.12320   0.16714
 Alpha virt. eigenvalues --    0.17709   0.21534   0.22406   0.27444   0.28273
 Alpha virt. eigenvalues --    0.28451   0.29386   0.31075   0.31910   0.32692

 Mulliken charges:
               1
     1  C   -0.171825
     2  C   -0.220495
     3  C   -0.174255
     4  C    0.155932
     5  C   -0.172095
     6  C   -0.219633
     7  H    0.221046
     8  H    0.221138
     9  H    0.293437
    10  H    0.272625
    11  H    0.219034
    12  N    0.485580
    13  O   -0.470673
    14  O   -0.442616
    15  C   -0.171106
    16  C   -0.218674
    17  C   -0.171209
    18  C    0.158051
    19  C   -0.171524
    20  C   -0.218654
    21  H    0.225034
    22  H    0.223548
    23  H    0.278012
    24  H    0.274597
    25  H    0.222603
    26  N    0.486158
    27  O   -0.465746
    28  O   -0.448290
 Sum of Mulliken charges =  -0.00000

 Dipole moment (field-independent basis, Debye):
    X=             -3.2849    Y=              5.0832    Z=              2.7210  Tot=              6.6357
 Quadrupole moment (field-independent basis, Debye-Ang):
   XX=            -56.7511   YY=           -106.4513   ZZ=           -103.1094
   XY=             12.0907   XZ=             -0.5777   YZ=             -3.4099

 Normal termination of Gaussian 16 at Thu May  6 18:08:18 2021.
