 Gaussian 16, Revision A.03,
 Gaussian 16:  EM64L-G16RevA.03 25-Dec-2016

 -------------
 #p 6-31g* mp2
 -------------

 ------------------------------------------------------
 Input file generated by CHIRIPA (05-May-2021 14:53:16)
 ------------------------------------------------------
 Symbolic Z-matrix:
 Charge =  0 Multiplicity = 1

                         Standard orientation:
 ---------------------------------------------------------------------
 Center     Atomic      Atomic             Coordinates (Angstroms)
 Number     Number       Type             X           Y           Z
 ---------------------------------------------------------------------
      1          6           0        3.736828    0.064871    0.085787
      2          6           0        4.331116   -1.127694   -0.664277
      3          6           0        5.318578   -1.928041    0.185521
      4          1           0        4.551071    0.721946    0.420758
      5          1           0        3.232834   -0.295760    0.993163
      6          1           0        4.832649   -0.765061   -1.570687
      7          1           0        3.515352   -1.781908   -0.997667
      8          1           0        4.827126   -2.317422    1.082993
      9          1           0        6.151907   -1.294798    0.506718
     10          1           0        5.731282   -2.775831   -0.370166
     11          6           0        2.747797    0.874803   -0.750607
     12          6           0        2.153509    2.067367   -0.000543
     13          6           0        1.166047    2.867714   -0.850341
     14          1           0        3.251791    1.235433   -1.657983
     15          1           0        1.933554    0.217727   -1.085578
     16          1           0        2.969273    2.721582    0.332847
     17          1           0        1.651976    1.704735    0.905867
     18          1           0        0.332718    2.234472   -1.171538
     19          1           0        1.657499    3.257096   -1.747813
     20          1           0        0.753343    3.715505   -0.294654
     21          6           0       -4.755610   -0.417295   -0.933474
     22          6           0       -4.465222    0.617022   -0.037715
     23          6           0       -3.236971    0.654968    0.628999
     24          6           0       -2.318188   -0.362203    0.375046
     25          6           0       -2.578036   -1.406014   -0.511648
     26          6           0       -3.812753   -1.423738   -1.167170
     27          1           0       -5.712257   -0.438917   -1.447046
     28          1           0       -5.195552    1.399973    0.145729
     29          1           0       -2.986156    1.443970    1.327558
     30          1           0       -1.829922   -2.172438   -0.673937
     31          1           0       -4.035547   -2.228231   -1.862295
     32          7           0       -1.014471   -0.332737    1.074942
     33          8           0       -0.221980   -1.240736    0.833837
     34          8           0       -0.809795    0.597801    1.851372
 ---------------------------------------------------------------------

 SCF Done:  E(RHF) =  -669.536993501     A.U. after   15 cycles
 E2 =    -0.2092393462D+01 EUMP2 =    -0.67162938696350D+03

 The electronic state is 1-A.
 Alpha  occ. eigenvalues --  -20.61141 -20.61130 -15.86133 -11.31386 -11.27935
 Alpha  occ. eigenvalues --  -11.27929 -11.27658 -11.26922 -11.26911 -11.20534
 Alpha  occ. eigenvalues --  -11.20224 -11.20170 -11.20149 -11.20112 -11.20042
 Alpha  occ. eigenvalues --   -1.60173  -1.39731  -1.19541  -1.08960  -1.07193
 Alpha  occ. eigenvalues --   -1.04924  -1.02419  -0.95813  -0.94907  -0.86328
 Alpha  occ. eigenvalues --   -0.85934  -0.82649  -0.78470  -0.77712  -0.76999
 Alpha  occ. eigenvalues --   -0.72350  -0.71491  -0.70648  -0.65197  -0.64928
 Alpha  occ. eigenvalues --   -0.63781  -0.62271  -0.59802  -0.58281  -0.56517
 Alpha  occ. eigenvalues --   -0.55432  -0.54206  -0.53258  -0.53014  -0.51647
 Alpha  occ. eigenvalues --   -0.51352  -0.49192  -0.49116  -0.48800  -0.46804
 Alpha  occ. eigenvalues --   -0.45582  -0.45105  -0.44564  -0.44268  -0.42642
 Alpha  occ. eigenvalues --   -0.37512  -0.36519
 Alpha virt. eigenvalues --    0.04765   0.11133   0.16246   0.21255   0.23997
 Alpha virt. eigenvalues --    0.25188   0.27197   0.27661   0.28299   0.28806
 Alpha virt. eigenvalues --    0.29011   0.30899   0.32225   0.32382   0.32727

 Mulliken charges:
               1
     1  C   -0.299821
     2  C   -0.298881
     3  C   -0.475535
     4  H    0.143980
     5  H    0.164365
     6  H    0.146518
     7  H    0.153622
     8  H    0.157956
     9  H    0.152531
    10  H    0.155743
    11  C   -0.296268
    12  C   -0.311686
    13  C   -0.471564
    14  H    0.141138
    15  H    0.151766
    16  H    0.145925
    17  H    0.178930
    18  H    0.146051
    19  H    0.150165
    20  H    0.157414
    21  C   -0.170206
    22  C   -0.218559
    23  C   -0.170132
    24  C    0.158242
    25  C   -0.170734
    26  C   -0.218570
    27  H    0.226432
    28  H    0.224294
    29  H    0.276374
    30  H    0.275847
    31  H    0.224204
    32  N    0.488793
    33  O   -0.460052
    34  O   -0.458284
 Sum of Mulliken charges =  -0.00000

 Dipole moment (field-independent basis, Debye):
    X=             -4.9255    Y=             -0.2394    Z=             -2.2268  Tot=              5.4108
 Quadrupole moment (field-independent basis, Debye-Ang):
   XX=            -74.4799   YY=            -92.0340   ZZ=            -96.4205
   XY=              1.4135   XZ=              3.4308   YZ=              3.6446

 Normal termination of Gaussian 16 at Wed May  5 20:19:19 2021.
