 Gaussian 16, Revision A.03,
 Gaussian 16:  EM64L-G16RevA.03 25-Dec-2016

 -------------
 #p 6-31g* mp2
 -------------

 ------------------------------------------------------
 Input file generated by CHIRIPA (05-May-2021 14:53:12)
 ------------------------------------------------------
 Symbolic Z-matrix:
 Charge =  0 Multiplicity = 1

                         Standard orientation:
 ---------------------------------------------------------------------
 Center     Atomic      Atomic             Coordinates (Angstroms)
 Number     Number       Type             X           Y           Z
 ---------------------------------------------------------------------
      1          6           0        5.308412   -0.451124    0.079615
      2          6           0        6.355227    0.639229   -0.151239
      3          6           0        7.787657    0.112471   -0.059242
      4          1           0        5.471412   -0.903810    1.067265
      5          1           0        5.453855   -1.251588   -0.658964
      6          1           0        6.206980    1.438050    0.586679
      7          1           0        6.189597    1.089502   -1.138375
      8          1           0        7.959195   -0.669656   -0.805869
      9          1           0        7.976677   -0.319128    0.928986
     10          1           0        8.519715    0.908496   -0.227455
     11          6           0        3.871546    0.060011   -0.009181
     12          6           0        2.824731   -1.030343    0.221673
     13          6           0        1.392301   -0.503585    0.129675
     14          1           0        3.726103    0.860475    0.729397
     15          1           0        3.708546    0.512696   -0.996831
     16          1           0        2.990361   -1.480616    1.208809
     17          1           0        2.972978   -1.829164   -0.516246
     18          1           0        1.203282   -0.071986   -0.858553
     19          1           0        1.220763    0.278542    0.876303
     20          1           0        0.660243   -1.299610    0.297889
     21          6           0       -2.775521    2.541959    0.004061
     22          6           0       -4.144501    2.266032    0.083319
     23          6           0       -4.604869    0.946058    0.066696
     24          6           0       -3.664268   -0.078198   -0.030565
     25          6           0       -2.293907    0.164539   -0.111084
     26          6           0       -1.856216    1.492182   -0.092716
     27          1           0       -2.426704    3.570325    0.017652
     28          1           0       -4.860728    3.079299    0.158556
     29          1           0       -5.659029    0.704054    0.126686
     30          1           0       -1.603982   -0.667277   -0.185264
     31          1           0       -0.792454    1.703494   -0.154412
     32          7           0       -4.139636   -1.479656   -0.049087
     33          8           0       -3.290664   -2.364202   -0.135466
     34          8           0       -5.352200   -1.667034    0.023126
 ---------------------------------------------------------------------

 SCF Done:  E(RHF) =  -669.535235104     A.U. after   15 cycles
 E2 =    -0.2091774207D+01 EUMP2 =    -0.67162700931086D+03

 The electronic state is 1-A.
 Alpha  occ. eigenvalues --  -20.60681 -20.60676 -15.85730 -11.31042 -11.27631
 Alpha  occ. eigenvalues --  -11.27548 -11.27362 -11.26645 -11.26561 -11.22225
 Alpha  occ. eigenvalues --  -11.22069 -11.21949 -11.21929 -11.21764 -11.21339
 Alpha  occ. eigenvalues --   -1.59756  -1.39311  -1.19218  -1.08928  -1.08628
 Alpha  occ. eigenvalues --   -1.04621  -1.04063  -0.96565  -0.95467  -0.87606
 Alpha  occ. eigenvalues --   -0.86018  -0.82303  -0.80161  -0.78716  -0.77333
 Alpha  occ. eigenvalues --   -0.71952  -0.71077  -0.70343  -0.65549  -0.64870
 Alpha  occ. eigenvalues --   -0.64645  -0.62003  -0.61459  -0.59902  -0.58144
 Alpha  occ. eigenvalues --   -0.55850  -0.55147  -0.53312  -0.53097  -0.52945
 Alpha  occ. eigenvalues --   -0.52498  -0.50493  -0.48708  -0.48708  -0.48437
 Alpha  occ. eigenvalues --   -0.47147  -0.46265  -0.46162  -0.44727  -0.44303
 Alpha  occ. eigenvalues --   -0.37213  -0.36209
 Alpha virt. eigenvalues --    0.05167   0.11420   0.16639   0.20552   0.22501
 Alpha virt. eigenvalues --    0.23849   0.25649   0.26165   0.26685   0.27931
 Alpha virt. eigenvalues --    0.28892   0.29907   0.30769   0.31591   0.32157

 Mulliken charges:
               1
     1  C   -0.298906
     2  C   -0.299916
     3  C   -0.476013
     4  H    0.151234
     5  H    0.151445
     6  H    0.151553
     7  H    0.151882
     8  H    0.156178
     9  H    0.155981
    10  H    0.160925
    11  C   -0.299473
    12  C   -0.299400
    13  C   -0.488902
    14  H    0.148235
    15  H    0.149068
    16  H    0.156440
    17  H    0.157108
    18  H    0.153188
    19  H    0.153743
    20  H    0.168385
    21  C   -0.170980
    22  C   -0.218966
    23  C   -0.170738
    24  C    0.159332
    25  C   -0.176867
    26  C   -0.224935
    27  H    0.224932
    28  H    0.222746
    29  H    0.275004
    30  H    0.283219
    31  H    0.228706
    32  N    0.487921
    33  O   -0.461319
    34  O   -0.460808
 Sum of Mulliken charges =  -0.00000

 Dipole moment (field-independent basis, Debye):
    X=              1.9303    Y=              4.8487    Z=              0.0831  Tot=              5.2194
 Quadrupole moment (field-independent basis, Debye-Ang):
   XX=           -103.3413   YY=            -95.5694   ZZ=            -94.6338
   XY=            -20.0874   XZ=             -0.6868   YZ=              0.1704

 Normal termination of Gaussian 16 at Wed May  5 18:30:23 2021.
