 Gaussian 16, Revision A.03,
 Gaussian 16:  EM64L-G16RevA.03 25-Dec-2016

 -------------
 #p 6-31g* mp2
 -------------

 ------------------------------------------------------
 Input file generated by CHIRIPA (05-May-2021 14:51:12)
 ------------------------------------------------------
 Symbolic Z-matrix:
 Charge =  0 Multiplicity = 1

                         Standard orientation:
 ---------------------------------------------------------------------
 Center     Atomic      Atomic             Coordinates (Angstroms)
 Number     Number       Type             X           Y           Z
 ---------------------------------------------------------------------
      1          6           0        2.493985   -1.117065   -0.395005
      2          6           0        1.117699   -1.158776    0.269887
      3          6           0        0.108537   -1.999931   -0.512317
      4          1           0        2.390586   -0.715900   -1.412512
      5          1           0        2.873753   -2.142756   -0.500505
      6          1           0        0.741245   -0.133216    0.375358
      7          1           0        1.224413   -1.559709    1.285998
      8          1           0        0.458547   -3.033048   -0.605931
      9          1           0       -0.027367   -1.598450   -1.521745
     10          1           0       -0.868440   -2.016082   -0.019251
     11          6           0        3.513743   -0.280007    0.375161
     12          6           0        4.890029   -0.238296   -0.289732
     13          6           0        5.899191    0.602859    0.492473
     14          1           0        3.133975    0.745684    0.480661
     15          1           0        3.617141   -0.681172    1.392668
     16          1           0        4.783314    0.162638   -1.305842
     17          1           0        5.266483   -1.263856   -0.395203
     18          1           0        6.035095    0.201378    1.501901
     19          1           0        5.549181    1.635976    0.586087
     20          1           0        6.876168    0.619010   -0.000593
     21          6           0       -3.504765    0.319842    0.444803
     22          6           0       -4.470416   -0.550434   -0.360259
     23          6           0       -5.466352   -1.301738    0.523737
     24          1           0       -2.959269   -0.312593    1.158529
     25          1           0       -4.081662    1.039375    1.042177
     26          1           0       -3.891815   -1.267195   -0.956990
     27          1           0       -5.013538    0.084116   -1.072284
     28          1           0       -6.068603   -0.599099    1.108710
     29          1           0       -4.940505   -1.958088    1.224658
     30          1           0       -6.147054   -1.917637   -0.072227
     31          6           0       -2.502963    1.077230   -0.424958
     32          6           0       -1.537311    1.947505    0.380102
     33          6           0       -0.541376    2.698810   -0.503893
     34          1           0       -1.926065    0.357696   -1.022333
     35          1           0       -3.048459    1.709665   -1.138685
     36          1           0       -0.994189    1.312955    1.092128
     37          1           0       -2.115913    2.664267    0.976834
     38          1           0       -1.067223    3.355160   -1.204814
     39          1           0        0.060875    1.996171   -1.088866
     40          1           0        0.139327    3.314708    0.092072
 ---------------------------------------------------------------------

 SCF Done:  E(RHF) =  -470.732652092     A.U. after   11 cycles
 E2 =    -0.1584712501D+01 EUMP2 =    -0.47231736459315D+03

 The electronic state is 1-A.
 Alpha  occ. eigenvalues --  -11.21628 -11.21612 -11.21594 -11.21588 -11.21436
 Alpha  occ. eigenvalues --  -11.21385 -11.21372 -11.21311 -11.21167 -11.21133
 Alpha  occ. eigenvalues --  -11.21076 -11.21063  -1.08501  -1.08393  -1.03618
 Alpha  occ. eigenvalues --   -1.03499  -0.96043  -0.95976  -0.87050  -0.86999
 Alpha  occ. eigenvalues --   -0.79693  -0.79553  -0.78308  -0.78203  -0.65409
 Alpha  occ. eigenvalues --   -0.64851  -0.61298  -0.60611  -0.59389  -0.59334
 Alpha  occ. eigenvalues --   -0.57625  -0.57596  -0.55395  -0.55227  -0.52721
 Alpha  occ. eigenvalues --   -0.52683  -0.52455  -0.52402  -0.50037  -0.49870
 Alpha  occ. eigenvalues --   -0.48081  -0.47812  -0.46848  -0.46486  -0.45913
 Alpha  occ. eigenvalues --   -0.45798  -0.45677  -0.45501  -0.43822  -0.43775
 Alpha virt. eigenvalues --    0.19382   0.22175   0.23839   0.24774   0.26054
 Alpha virt. eigenvalues --    0.26322   0.26614   0.27897   0.29012   0.29591
 Alpha virt. eigenvalues --    0.30493   0.31310   0.31681   0.32036   0.32594

 Mulliken charges:
               1
     1  C   -0.297700
     2  C   -0.310138
     3  C   -0.479149
     4  H    0.149375
     5  H    0.149674
     6  H    0.163009
     7  H    0.151901
     8  H    0.156087
     9  H    0.154981
    10  H    0.162375
    11  C   -0.298771
    12  C   -0.299670
    13  C   -0.475762
    14  H    0.150201
    15  H    0.149618
    16  H    0.152090
    17  H    0.151908
    18  H    0.155137
    19  H    0.155364
    20  H    0.160311
    21  C   -0.299203
    22  C   -0.300841
    23  C   -0.475584
    24  H    0.149845
    25  H    0.149647
    26  H    0.153036
    27  H    0.151990
    28  H    0.155149
    29  H    0.154927
    30  H    0.160330
    31  C   -0.303098
    32  C   -0.303913
    33  C   -0.477837
    34  H    0.156252
    35  H    0.149392
    36  H    0.154707
    37  H    0.152910
    38  H    0.156018
    39  H    0.155222
    40  H    0.160212
 Sum of Mulliken charges =  -0.00000

 Dipole moment (field-independent basis, Debye):
    X=              0.0085    Y=              0.0005    Z=             -0.0031  Tot=              0.0090
 Quadrupole moment (field-independent basis, Debye-Ang):
   XX=            -85.6269   YY=            -84.2011   ZZ=            -84.9645
   XY=             -1.6928   XZ=              0.2467   YZ=             -0.4515

 Normal termination of Gaussian 16 at Thu May  6 03:53:57 2021.
