 Gaussian 16, Revision A.03,
 Gaussian 16:  EM64L-G16RevA.03 25-Dec-2016

 -------------
 #p 6-31g* mp2
 -------------

 ------------------------------------------------------
 Input file generated by CHIRIPA (05-May-2021 14:55:18)
 ------------------------------------------------------
 Symbolic Z-matrix:
 Charge =  0 Multiplicity = 1

                         Standard orientation:
 ---------------------------------------------------------------------
 Center     Atomic      Atomic             Coordinates (Angstroms)
 Number     Number       Type             X           Y           Z
 ---------------------------------------------------------------------
      1          6           0        0.455101   -1.655783    1.177168
      2          6           0        0.627696   -0.290289    1.426482
      3          6           0        1.708714    0.401586    0.872174
      4          6           0        2.601980   -0.306472    0.069665
      5          6           0        2.457109   -1.666998   -0.197304
      6          6           0        1.368748   -2.338576    0.367498
      7          1           0       -0.387511   -2.185364    1.611844
      8          1           0       -0.080279    0.242546    2.054895
      9          1           0        1.866235    1.458662    1.048798
     10          1           0        3.179444   -2.171086   -0.827816
     11          1           0        1.237214   -3.399041    0.172160
     12          7           0        3.750292    0.415241   -0.522711
     13          8           0        4.523253   -0.231412   -1.226279
     14          8           0        3.855634    1.613907   -0.272232
     15          6           0       -2.597138    1.018301    0.129012
     16          6           0       -2.677730    2.454667   -0.389005
     17          6           0       -1.689102    3.390497    0.307148
     18          1           0       -2.786223    1.014405    1.211221
     19          1           0       -1.574182    0.642300   -0.010916
     20          1           0       -3.700581    2.827370   -0.249408
     21          1           0       -2.488621    2.455122   -1.470140
     22          1           0       -0.660998    3.045383    0.157146
     23          1           0       -1.879844    3.419746    1.384814
     24          1           0       -1.763708    4.412072   -0.078440
     25          6           0       -3.579435    0.070772   -0.557289
     26          6           0       -3.498843   -1.365594   -0.039272
     27          6           0       -4.487472   -2.301424   -0.735425
     28          1           0       -4.602391    0.446773   -0.417361
     29          1           0       -3.390350    0.074668   -1.639498
     30          1           0       -3.687952   -1.366048    1.041864
     31          1           0       -2.475993   -1.738296   -0.178868
     32          1           0       -4.296729   -2.330673   -1.813091
     33          1           0       -5.515575   -1.956310   -0.585423
     34          1           0       -4.412865   -3.322999   -0.349837
 ---------------------------------------------------------------------

 SCF Done:  E(RHF) =  -669.534773538     A.U. after   15 cycles
 E2 =    -0.2093935390D+01 EUMP2 =    -0.67162870892848D+03

 The electronic state is 1-A.
 Alpha  occ. eigenvalues --  -20.60801 -20.60795 -15.85853 -11.31242 -11.27788
 Alpha  occ. eigenvalues --  -11.27774 -11.27497 -11.26827 -11.26761 -11.22398
 Alpha  occ. eigenvalues --  -11.22091 -11.22007 -11.21924 -11.21739 -11.21605
 Alpha  occ. eigenvalues --   -1.59876  -1.39428  -1.19410  -1.09079  -1.08784
 Alpha  occ. eigenvalues --   -1.04813  -1.04156  -0.96592  -0.95626  -0.87615
 Alpha  occ. eigenvalues --   -0.86201  -0.82460  -0.80237  -0.78943  -0.77485
 Alpha  occ. eigenvalues --   -0.72070  -0.71199  -0.70491  -0.65700  -0.65050
 Alpha  occ. eigenvalues --   -0.64793  -0.62160  -0.61540  -0.59970  -0.58225
 Alpha  occ. eigenvalues --   -0.55879  -0.55287  -0.53345  -0.53206  -0.53053
 Alpha  occ. eigenvalues --   -0.52778  -0.50532  -0.48839  -0.48825  -0.48542
 Alpha  occ. eigenvalues --   -0.47269  -0.46434  -0.46339  -0.44828  -0.44394
 Alpha  occ. eigenvalues --   -0.37325  -0.36336
 Alpha virt. eigenvalues --    0.04961   0.11177   0.16316   0.20320   0.22683
 Alpha virt. eigenvalues --    0.23121   0.25263   0.26209   0.26667   0.28216
 Alpha virt. eigenvalues --    0.29071   0.29721   0.31203   0.31444   0.31498

 Mulliken charges:
               1
     1  C   -0.171453
     2  C   -0.219497
     3  C   -0.174751
     4  C    0.159351
     5  C   -0.171176
     6  C   -0.219485
     7  H    0.228585
     8  H    0.229584
     9  H    0.276739
    10  H    0.275698
    11  H    0.223853
    12  N    0.488012
    13  O   -0.460268
    14  O   -0.460127
    15  C   -0.309956
    16  C   -0.298665
    17  C   -0.478555
    18  H    0.141454
    19  H    0.160474
    20  H    0.153103
    21  H    0.155748
    22  H    0.154117
    23  H    0.151780
    24  H    0.165709
    25  C   -0.296705
    26  C   -0.304687
    27  C   -0.475488
    28  H    0.151241
    29  H    0.153117
    30  H    0.147528
    31  H    0.150302
    32  H    0.157949
    33  H    0.157802
    34  H    0.158671
 Sum of Mulliken charges =  -0.00000

 Dipole moment (field-independent basis, Debye):
    X=             -4.0703    Y=             -2.5084    Z=              1.9954  Tot=              5.1808
 Quadrupole moment (field-independent basis, Debye-Ang):
   XX=           -115.9196   YY=            -90.1958   ZZ=            -93.7665
   XY=             -7.6827   XZ=              4.0114   YZ=              1.0015

 Normal termination of Gaussian 16 at Thu May  6 04:28:03 2021.
