 Gaussian 16, Revision A.03,
 Gaussian 16:  EM64L-G16RevA.03 25-Dec-2016

 -------------
 #p 6-31g* mp2
 -------------

 ------------------------------------------------------
 Input file generated by CHIRIPA (05-May-2021 14:51:12)
 ------------------------------------------------------
 Symbolic Z-matrix:
 Charge =  0 Multiplicity = 1

                         Standard orientation:
 ---------------------------------------------------------------------
 Center     Atomic      Atomic             Coordinates (Angstroms)
 Number     Number       Type             X           Y           Z
 ---------------------------------------------------------------------
      1          6           0       -3.559147   -0.726795   -0.347917
      2          6           0       -2.128792   -0.923806   -0.851161
      3          6           0       -1.768684   -2.396800   -1.047131
      4          1           0       -3.684688   -1.265826    0.601098
      5          1           0       -4.257923   -1.184188   -1.061989
      6          1           0       -1.433001   -0.464967   -0.137047
      7          1           0       -2.006585   -0.384085   -1.798992
      8          1           0       -2.439456   -2.863752   -1.775570
      9          1           0       -1.862612   -2.945094   -0.104183
     10          1           0       -0.741890   -2.514592   -1.407240
     11          6           0       -3.934020    0.740476   -0.147129
     12          6           0       -5.364376    0.937487    0.356116
     13          6           0       -5.724483    2.410481    0.552086
     14          1           0       -3.235245    1.197869    0.566943
     15          1           0       -3.808479    1.279507   -1.096144
     16          1           0       -5.486582    0.397766    1.303946
     17          1           0       -6.060167    0.478648   -0.357998
     18          1           0       -5.630555    2.958775   -0.390863
     19          1           0       -5.053712    2.877433    1.280524
     20          1           0       -6.751278    2.528273    0.912194
     21          6           0        4.101008    0.658119    0.372597
     22          6           0        5.091770    1.033905   -0.729746
     23          6           0        5.792855    2.366693   -0.465263
     24          1           0        3.351412    1.455288    0.470438
     25          1           0        4.632777    0.609523    1.332939
     26          1           0        4.558560    1.080424   -1.687942
     27          1           0        5.838984    0.235661   -0.825104
     28          1           0        6.349644    2.328841    0.476625
     29          1           0        5.061944    3.178404   -0.391115
     30          1           0        6.496583    2.615896   -1.265590
     31          6           0        3.392159   -0.671800    0.122448
     32          6           0        2.401398   -1.047586    1.224791
     33          6           0        1.700314   -2.380375    0.960309
     34          1           0        2.860390   -0.623203   -0.837894
     35          1           0        4.141755   -1.468968    0.024608
     36          1           0        1.654184   -0.249342    1.320149
     37          1           0        2.934607   -1.094105    2.182988
     38          1           0        2.431223   -3.192084    0.886160
     39          1           0        1.143524   -2.342521    0.018420
     40          1           0        0.996585   -2.629577    1.760636
 ---------------------------------------------------------------------

 SCF Done:  E(RHF) =  -470.733053230     A.U. after   11 cycles
 E2 =    -0.1582673026D+01 EUMP2 =    -0.47231572625651D+03

 The electronic state is 1-A.
 Alpha  occ. eigenvalues --  -11.21625 -11.21614 -11.21597 -11.21589 -11.21422
 Alpha  occ. eigenvalues --  -11.21399 -11.21363 -11.21340 -11.21083 -11.21067
 Alpha  occ. eigenvalues --  -11.21061 -11.20997  -1.08449  -1.08418  -1.03566
 Alpha  occ. eigenvalues --   -1.03494  -0.96038  -0.95918  -0.87069  -0.86921
 Alpha  occ. eigenvalues --   -0.79641  -0.79544  -0.78260  -0.78234  -0.65116
 Alpha  occ. eigenvalues --   -0.65018  -0.61077  -0.60816  -0.59385  -0.59324
 Alpha  occ. eigenvalues --   -0.57694  -0.57506  -0.55410  -0.55106  -0.52786
 Alpha  occ. eigenvalues --   -0.52637  -0.52466  -0.52266  -0.50010  -0.49783
 Alpha  occ. eigenvalues --   -0.47974  -0.47842  -0.46680  -0.46553  -0.45806
 Alpha  occ. eigenvalues --   -0.45775  -0.45730  -0.45685  -0.43787  -0.43764
 Alpha virt. eigenvalues --    0.20969   0.23143   0.23505   0.25159   0.26318
 Alpha virt. eigenvalues --    0.26480   0.26901   0.27590   0.27796   0.29254
 Alpha virt. eigenvalues --    0.29814   0.30963   0.31243   0.32113   0.32247

 Mulliken charges:
               1
     1  C   -0.298291
     2  C   -0.301588
     3  C   -0.477061
     4  H    0.149869
     5  H    0.149727
     6  H    0.152918
     7  H    0.151596
     8  H    0.155134
     9  H    0.156513
    10  H    0.161456
    11  C   -0.298289
    12  C   -0.299679
    13  C   -0.475721
    14  H    0.149396
    15  H    0.149582
    16  H    0.152016
    17  H    0.151986
    18  H    0.155159
    19  H    0.155176
    20  H    0.160321
    21  C   -0.298284
    22  C   -0.299665
    23  C   -0.475709
    24  H    0.149658
    25  H    0.149506
    26  H    0.151954
    27  H    0.151924
    28  H    0.155159
    29  H    0.155196
    30  H    0.160239
    31  C   -0.298264
    32  C   -0.299930
    33  C   -0.480890
    34  H    0.149287
    35  H    0.149690
    36  H    0.151553
    37  H    0.151717
    38  H    0.154701
    39  H    0.162487
    40  H    0.159450
 Sum of Mulliken charges =  -0.00000

 Dipole moment (field-independent basis, Debye):
    X=             -0.0176    Y=             -0.0138    Z=             -0.0077  Tot=              0.0237
 Quadrupole moment (field-independent basis, Debye-Ang):
   XX=            -84.6538   YY=            -86.4543   ZZ=            -83.6617
   XY=             -0.5022   XZ=              0.7178   YZ=             -0.5259

 Normal termination of Gaussian 16 at Thu May  6 00:43:16 2021.
