 Gaussian 16, Revision A.03,
 Gaussian 16:  EM64L-G16RevA.03 25-Dec-2016

 -------------
 #p 6-31g* mp2
 -------------

 ------------------------------------------------------
 Input file generated by CHIRIPA (05-May-2021 14:51:10)
 ------------------------------------------------------
 Symbolic Z-matrix:
 Charge =  0 Multiplicity = 1

                         Standard orientation:
 ---------------------------------------------------------------------
 Center     Atomic      Atomic             Coordinates (Angstroms)
 Number     Number       Type             X           Y           Z
 ---------------------------------------------------------------------
      1          6           0        3.080152   -0.318936   -0.375404
      2          6           0        1.895539   -0.640971    0.536173
      3          6           0        0.593076   -0.847200   -0.237683
      4          1           0        2.851371    0.583814   -0.958196
      5          1           0        3.208466   -1.134740   -1.100244
      6          1           0        1.770359    0.174547    1.259966
      7          1           0        2.127245   -1.542950    1.117003
      8          1           0        0.693903   -1.674008   -0.948192
      9          1           0        0.334989    0.053247   -0.804417
     10          1           0       -0.240635   -1.076298    0.433361
     11          6           0        4.389371   -0.110064    0.383573
     12          6           0        5.573984    0.211971   -0.528003
     13          6           0        6.876447    0.418200    0.245852
     14          1           0        4.261057    0.705740    1.108414
     15          1           0        4.618152   -1.012814    0.966366
     16          1           0        5.342278    1.113949   -1.108833
     17          1           0        5.699164   -0.603547   -1.251796
     18          1           0        7.134534   -0.482247    0.812586
     19          1           0        6.775620    1.245008    0.956362
     20          1           0        7.710158    0.647298   -0.425192
     21          6           0       -3.325451    0.835023   -0.179721
     22          6           0       -3.989471    2.142236    0.254161
     23          6           0       -3.158554    3.374710   -0.104139
     24          1           0       -2.335170    0.760627    0.290127
     25          1           0       -3.155357    0.860871   -1.264984
     26          1           0       -4.159521    2.113359    1.338073
     27          1           0       -4.978365    2.213438   -0.216622
     28          1           0       -2.999927    3.431192   -1.185918
     29          1           0       -2.176430    3.330543    0.377611
     30          1           0       -3.651801    4.298106    0.215091
     31          6           0       -4.144073   -0.406022    0.171552
     32          6           0       -3.480051   -1.713236   -0.262330
     33          6           0       -4.310969   -2.945709    0.095969
     34          1           0       -4.314167   -0.431871    1.256815
     35          1           0       -5.134352   -0.331626   -0.298296
     36          1           0       -2.491159   -1.784437    0.208452
     37          1           0       -3.310002   -1.684359   -1.346244
     38          1           0       -5.293093   -2.901543   -0.385780
     39          1           0       -4.469596   -3.002191    1.177748
     40          1           0       -3.817721   -3.869105   -0.223261
 ---------------------------------------------------------------------

 SCF Done:  E(RHF) =  -470.732934721     A.U. after   11 cycles
 E2 =    -0.1582990579D+01 EUMP2 =    -0.47231592529933D+03

 The electronic state is 1-A.
 Alpha  occ. eigenvalues --  -11.21612 -11.21606 -11.21566 -11.21513 -11.21412
 Alpha  occ. eigenvalues --  -11.21353 -11.21343 -11.21279 -11.21075 -11.21059
 Alpha  occ. eigenvalues --  -11.21054 -11.21024  -1.08441  -1.08376  -1.03541
 Alpha  occ. eigenvalues --   -1.03482  -0.95991  -0.95935  -0.87012  -0.86951
 Alpha  occ. eigenvalues --   -0.79638  -0.79524  -0.78270  -0.78159  -0.65076
 Alpha  occ. eigenvalues --   -0.65020  -0.60950  -0.60890  -0.59435  -0.59236
 Alpha  occ. eigenvalues --   -0.57602  -0.57546  -0.55305  -0.55193  -0.52800
 Alpha  occ. eigenvalues --   -0.52566  -0.52426  -0.52346  -0.49962  -0.49848
 Alpha  occ. eigenvalues --   -0.47966  -0.47824  -0.46660  -0.46556  -0.45824
 Alpha  occ. eigenvalues --   -0.45738  -0.45679  -0.45647  -0.43764  -0.43657
 Alpha virt. eigenvalues --    0.21627   0.23082   0.24010   0.24258   0.26065
 Alpha virt. eigenvalues --    0.26632   0.26869   0.27536   0.27967   0.29258
 Alpha virt. eigenvalues --    0.30350   0.31382   0.31701   0.31938   0.32038

 Mulliken charges:
               1
     1  C   -0.298779
     2  C   -0.299610
     3  C   -0.480742
     4  H    0.149821
     5  H    0.149595
     6  H    0.151425
     7  H    0.151787
     8  H    0.155394
     9  H    0.157166
    10  H    0.164455
    11  C   -0.298214
    12  C   -0.299635
    13  C   -0.475702
    14  H    0.149478
    15  H    0.149622
    16  H    0.152001
    17  H    0.151941
    18  H    0.155165
    19  H    0.155183
    20  H    0.160283
    21  C   -0.301729
    22  C   -0.299521
    23  C   -0.475616
    24  H    0.154204
    25  H    0.149294
    26  H    0.151629
    27  H    0.151822
    28  H    0.155032
    29  H    0.154745
    30  H    0.160156
    31  C   -0.298158
    32  C   -0.305168
    33  C   -0.475275
    34  H    0.148752
    35  H    0.149372
    36  H    0.158091
    37  H    0.152072
    38  H    0.154953
    39  H    0.154670
    40  H    0.160040
 Sum of Mulliken charges =  -0.00000

 Dipole moment (field-independent basis, Debye):
    X=              0.0271    Y=             -0.0069    Z=             -0.0138  Tot=              0.0312
 Quadrupole moment (field-independent basis, Debye-Ang):
   XX=            -85.9991   YY=            -84.8410   ZZ=            -84.1719
   XY=             -0.9054   XZ=              0.0975   YZ=              0.1531

 Normal termination of Gaussian 16 at Thu May  6 05:23:59 2021.
