 Gaussian 16, Revision A.03,
 Gaussian 16:  EM64L-G16RevA.03 25-Dec-2016

 -------------
 #p 6-31g* mp2
 -------------

 ------------------------------------------------------
 Input file generated by CHIRIPA (05-May-2021 14:53:17)
 ------------------------------------------------------
 Symbolic Z-matrix:
 Charge =  0 Multiplicity = 1

                         Standard orientation:
 ---------------------------------------------------------------------
 Center     Atomic      Atomic             Coordinates (Angstroms)
 Number     Number       Type             X           Y           Z
 ---------------------------------------------------------------------
      1          6           0       -5.321959    0.061534    0.078839
      2          6           0       -6.033994   -0.431469   -1.181296
      3          6           0       -7.451276    0.126184   -1.315939
      4          1           0       -5.913657   -0.220140    0.960598
      5          1           0       -5.285128    1.159643    0.064901
      6          1           0       -6.068247   -1.528373   -1.165657
      7          1           0       -5.440436   -0.148756   -2.060147
      8          1           0       -7.432570    1.220060   -1.356998
      9          1           0       -8.063948   -0.167395   -0.457426
     10          1           0       -7.941861   -0.239043   -2.223571
     11          6           0       -3.904074   -0.487314    0.227486
     12          6           0       -3.192039    0.005688    1.487620
     13          6           0       -1.774757   -0.551964    1.622264
     14          1           0       -3.940906   -1.585424    0.241423
     15          1           0       -3.312377   -0.205640   -0.654273
     16          1           0       -3.785597   -0.277024    2.366471
     17          1           0       -3.157787    1.102592    1.471981
     18          1           0       -1.162085   -0.258385    0.763750
     19          1           0       -1.793463   -1.645841    1.663322
     20          1           0       -1.284172   -0.186738    2.529896
     21          6           0        5.324527   -1.618477   -0.588627
     22          6           0        4.120412   -1.954591    0.038793
     23          6           0        3.159847   -0.973898    0.303570
     24          6           0        3.437577    0.338868   -0.074319
     25          6           0        4.627753    0.705148   -0.700906
     26          6           0        5.573914   -0.292019   -0.955827
     27          1           0        6.065122   -2.386702   -0.790484
     28          1           0        3.924028   -2.983920    0.325080
     29          1           0        2.219268   -1.206398    0.787999
     30          1           0        4.795004    1.739827   -0.974557
     31          1           0        6.508165   -0.028084   -1.443226
     32          7           0        2.428295    1.385803    0.200770
     33          8           0        2.697049    2.535098   -0.142057
     34          8           0        1.387576    1.037274    0.754005
 ---------------------------------------------------------------------

 SCF Done:  E(RHF) =  -669.535880959     A.U. after   15 cycles
 E2 =    -0.2090745200D+01 EUMP2 =    -0.67162662615855D+03

 The electronic state is 1-A.
 Alpha  occ. eigenvalues --  -20.60860 -20.60847 -15.85896 -11.31233 -11.27803
 Alpha  occ. eigenvalues --  -11.27789 -11.27545 -11.26814 -11.26802 -11.21168
 Alpha  occ. eigenvalues --  -11.20839 -11.20756 -11.20701 -11.20692 -11.19962
 Alpha  occ. eigenvalues --   -1.59927  -1.39481  -1.19406  -1.08809  -1.07803
 Alpha  occ. eigenvalues --   -1.04804  -1.02853  -0.95652  -0.95291  -0.86316
 Alpha  occ. eigenvalues --   -0.86203  -0.82480  -0.78942  -0.77629  -0.77507
 Alpha  occ. eigenvalues --   -0.72123  -0.71245  -0.70514  -0.65063  -0.64807
 Alpha  occ. eigenvalues --   -0.64431  -0.62149  -0.60237  -0.58691  -0.56907
 Alpha  occ. eigenvalues --   -0.55310  -0.54569  -0.53137  -0.52895  -0.51974
 Alpha  occ. eigenvalues --   -0.51733  -0.49268  -0.48876  -0.48840  -0.47252
 Alpha  occ. eigenvalues --   -0.45976  -0.45163  -0.45083  -0.44833  -0.43115
 Alpha  occ. eigenvalues --   -0.37389  -0.36407
 Alpha virt. eigenvalues --    0.04979   0.11247   0.16458   0.21284   0.23480
 Alpha virt. eigenvalues --    0.24961   0.26885   0.27290   0.27715   0.28141
 Alpha virt. eigenvalues --    0.29073   0.30778   0.31839   0.32200   0.32780

 Mulliken charges:
               1
     1  C   -0.297959
     2  C   -0.299178
     3  C   -0.475401
     4  H    0.148160
     5  H    0.150643
     6  H    0.150150
     7  H    0.151825
     8  H    0.155501
     9  H    0.154379
    10  H    0.158662
    11  C   -0.298096
    12  C   -0.299568
    13  C   -0.478960
    14  H    0.145669
    15  H    0.150748
    16  H    0.147303
    17  H    0.156187
    18  H    0.171953
    19  H    0.142626
    20  H    0.163086
    21  C   -0.170655
    22  C   -0.218697
    23  C   -0.171471
    24  C    0.157713
    25  C   -0.170934
    26  C   -0.218628
    27  H    0.225765
    28  H    0.223839
    29  H    0.277526
    30  H    0.275617
    31  H    0.223562
    32  N    0.491799
    33  O   -0.459874
    34  O   -0.463292
 Sum of Mulliken charges =  -0.00000

 Dipole moment (field-independent basis, Debye):
    X=              3.7734    Y=             -3.5798    Z=             -0.9863  Tot=              5.2940
 Quadrupole moment (field-independent basis, Debye-Ang):
   XX=            -70.6929   YY=            -94.8297   ZZ=            -94.4717
   XY=             -9.0719   XZ=             -5.5351   YZ=             -1.8881

 Normal termination of Gaussian 16 at Thu May  6 07:34:21 2021.
