 Gaussian 16, Revision A.03,
 Gaussian 16:  EM64L-G16RevA.03 25-Dec-2016

 -------------
 #p 6-31g* mp2
 -------------

 ------------------------------------------------------
 Input file generated by CHIRIPA (05-May-2021 14:57:24)
 ------------------------------------------------------
 Symbolic Z-matrix:
 Charge =  0 Multiplicity = 1

                         Standard orientation:
 ---------------------------------------------------------------------
 Center     Atomic      Atomic             Coordinates (Angstroms)
 Number     Number       Type             X           Y           Z
 ---------------------------------------------------------------------
      1          6           0       -5.107198    0.541795   -1.447223
      2          6           0       -5.339315   -0.547120   -0.600519
      3          6           0       -4.367617   -0.950356    0.320215
      4          6           0       -3.169794   -0.238829    0.367545
      5          6           0       -2.908815    0.850174   -0.462668
      6          6           0       -3.894827    1.235743   -1.375721
      7          1           0       -5.867596    0.848176   -2.159489
      8          1           0       -6.279925   -1.087911   -0.653837
      9          1           0       -4.521094   -1.789749    0.987510
     10          1           0       -1.961332    1.369643   -0.386217
     11          1           0       -3.711813    2.081787   -2.032045
     12          7           0       -2.133525   -0.656365    1.338219
     13          8           0       -1.086546   -0.012947    1.360244
     14          8           0       -2.387898   -1.619142    2.058630
     15          6           0        2.268548    2.335277    0.519274
     16          6           0        1.583584    1.468442   -0.338598
     17          6           0        2.167849    0.266066   -0.747831
     18          6           0        3.444224   -0.039316   -0.277834
     19          6           0        4.152094    0.803552    0.577610
     20          6           0        3.548360    2.000654    0.973839
     21          1           0        1.807114    3.267264    0.832126
     22          1           0        0.589548    1.725723   -0.693200
     23          1           0        1.660007   -0.423344   -1.411328
     24          1           0        5.141765    0.519782    0.914427
     25          1           0        4.082663    2.671928    1.640141
     26          7           0        4.073066   -1.309427   -0.704188
     27          8           0        5.198596   -1.555422   -0.276047
     28          8           0        3.428513   -2.034896   -1.458431
 ---------------------------------------------------------------------

 SCF Done:  E(RHF) =  -868.336939100     A.U. after   16 cycles
 E2 =    -0.2600506604D+01 EUMP2 =    -0.87093744570486D+03

 The electronic state is 1-A.
 Alpha  occ. eigenvalues --  -20.61325 -20.61289 -20.60141 -20.60136 -15.86354
 Alpha  occ. eigenvalues --  -15.85193 -11.31780 -11.30460 -11.28454 -11.28273
 Alpha  occ. eigenvalues --  -11.28033 -11.27391 -11.27296 -11.27033 -11.27030
 Alpha  occ. eigenvalues --  -11.26792 -11.26113 -11.26058  -1.60378  -1.59215
 Alpha  occ. eigenvalues --   -1.39936  -1.38773  -1.19937  -1.18628  -1.09309
 Alpha  occ. eigenvalues --   -1.08055  -1.05356  -1.04037  -0.96147  -0.94906
 Alpha  occ. eigenvalues --   -0.86749  -0.85462  -0.82983  -0.81755  -0.78052
 Alpha  occ. eigenvalues --   -0.76804  -0.72573  -0.71699  -0.71422  -0.71048
 Alpha  occ. eigenvalues --   -0.70528  -0.69781  -0.65590  -0.65370  -0.64309
 Alpha  occ. eigenvalues --   -0.64111  -0.62723  -0.61409  -0.55823  -0.54586
 Alpha  occ. eigenvalues --   -0.53663  -0.53461  -0.52320  -0.52171  -0.49342
 Alpha  occ. eigenvalues --   -0.49317  -0.48176  -0.48171  -0.45329  -0.44201
 Alpha  occ. eigenvalues --   -0.37889  -0.36955  -0.36589  -0.35563
 Alpha virt. eigenvalues --    0.04489   0.05769   0.10684   0.12033   0.15998
 Alpha virt. eigenvalues --    0.17260   0.19341   0.22085   0.25105   0.27240
 Alpha virt. eigenvalues --    0.28862   0.29020   0.30341   0.31146   0.32737

 Mulliken charges:
               1
     1  C   -0.170266
     2  C   -0.217886
     3  C   -0.169375
     4  C    0.158341
     5  C   -0.174787
     6  C   -0.219456
     7  H    0.227778
     8  H    0.226162
     9  H    0.278173
    10  H    0.270869
    11  H    0.223250
    12  N    0.489213
    13  O   -0.466274
    14  O   -0.455261
    15  C   -0.170258
    16  C   -0.199891
    17  C   -0.166804
    18  C    0.158639
    19  C   -0.170863
    20  C   -0.217974
    21  H    0.221912
    22  H    0.213372
    23  H    0.272431
    24  H    0.273620
    25  H    0.221016
    26  N    0.488501
    27  O   -0.462218
    28  O   -0.461963
 Sum of Mulliken charges =  -0.00000

 Dipole moment (field-independent basis, Debye):
    X=             -6.1588    Y=              5.8003    Z=             -1.8133  Tot=              8.6523
 Quadrupole moment (field-independent basis, Debye-Ang):
   XX=            -91.8892   YY=           -104.1464   ZZ=           -107.4346
   XY=             15.5930   XZ=             17.1683   YZ=             -0.6864

 Normal termination of Gaussian 16 at Thu May  6 09:50:17 2021.
