 Gaussian 16, Revision A.03,
 Gaussian 16:  EM64L-G16RevA.03 25-Dec-2016

 -------------
 #p 6-31g* mp2
 -------------

 ------------------------------------------------------
 Input file generated by CHIRIPA (05-May-2021 14:51:08)
 ------------------------------------------------------
 Symbolic Z-matrix:
 Charge =  0 Multiplicity = 1

                         Standard orientation:
 ---------------------------------------------------------------------
 Center     Atomic      Atomic             Coordinates (Angstroms)
 Number     Number       Type             X           Y           Z
 ---------------------------------------------------------------------
      1          6           0        3.219486   -0.064515    0.628485
      2          6           0        2.108706   -1.056533    0.974973
      3          6           0        0.973543   -0.417141    1.775208
      4          1           0        3.620317    0.366122    1.556295
      5          1           0        2.790946    0.769909    0.056221
      6          1           0        2.539461   -1.889528    1.545224
      7          1           0        1.710603   -1.485001    0.046240
      8          1           0        0.516931    0.401440    1.209495
      9          1           0        1.350498   -0.005386    2.716996
     10          1           0        0.190365   -1.144034    2.012099
     11          6           0        4.361453   -0.688821   -0.171441
     12          6           0        5.472232    0.303198   -0.517929
     13          6           0        6.607395   -0.336195   -1.318165
     14          1           0        4.789992   -1.523244    0.400823
     15          1           0        3.960621   -1.119457   -1.099251
     16          1           0        5.870336    0.731665    0.410804
     17          1           0        5.041478    1.136193   -1.088180
     18          1           0        6.230440   -0.747950   -2.259952
     19          1           0        7.064008   -1.154776   -0.752452
     20          1           0        7.390574    0.390698   -1.555056
     21          6           0       -3.359685    0.930942   -0.529581
     22          6           0       -2.444441    1.609210    0.490353
     23          6           0       -1.588913    2.715856   -0.127060
     24          1           0       -2.748021    0.513802   -1.341251
     25          1           0       -4.011858    1.687821   -0.986964
     26          1           0       -1.795139    0.851057    0.946676
     27          1           0       -3.058339    2.024617    1.299786
     28          1           0       -2.222697    3.493052   -0.566248
     29          1           0       -0.952321    2.312824   -0.921364
     30          1           0       -0.942275    3.187217    0.619625
     31          6           0       -4.221254   -0.177606    0.072538
     32          6           0       -5.136498   -0.855873   -0.947397
     33          6           0       -5.992025   -1.962521   -0.329983
     34          1           0       -3.569080   -0.934485    0.529921
     35          1           0       -4.832917    0.239534    0.884207
     36          1           0       -4.522600   -1.271281   -1.756829
     37          1           0       -5.785798   -0.097722   -1.403719
     38          1           0       -6.628616   -1.559489    0.464320
     39          1           0       -5.358241   -2.739716    0.109203
     40          1           0       -6.638663   -2.433882   -1.076668
 ---------------------------------------------------------------------

 SCF Done:  E(RHF) =  -470.733136413     A.U. after   11 cycles
 E2 =    -0.1582725025D+01 EUMP2 =    -0.47231586143870D+03

 The electronic state is 1-A.
 Alpha  occ. eigenvalues --  -11.21636 -11.21613 -11.21586 -11.21511 -11.21425
 Alpha  occ. eigenvalues --  -11.21377 -11.21365 -11.21317 -11.21095 -11.21080
 Alpha  occ. eigenvalues --  -11.21079 -11.21060  -1.08454  -1.08401  -1.03570
 Alpha  occ. eigenvalues --   -1.03495  -0.96023  -0.95951  -0.87030  -0.86978
 Alpha  occ. eigenvalues --   -0.79666  -0.79527  -0.78274  -0.78201  -0.65141
 Alpha  occ. eigenvalues --   -0.64993  -0.61126  -0.60765  -0.59375  -0.59333
 Alpha  occ. eigenvalues --   -0.57656  -0.57536  -0.55409  -0.55139  -0.52716
 Alpha  occ. eigenvalues --   -0.52654  -0.52425  -0.52384  -0.50014  -0.49860
 Alpha  occ. eigenvalues --   -0.47980  -0.47846  -0.46784  -0.46463  -0.45841
 Alpha  occ. eigenvalues --   -0.45764  -0.45732  -0.45556  -0.43805  -0.43755
 Alpha virt. eigenvalues --    0.21380   0.23118   0.23634   0.24921   0.26269
 Alpha virt. eigenvalues --    0.26569   0.27129   0.27262   0.27990   0.29030
 Alpha virt. eigenvalues --    0.31076   0.31603   0.31678   0.31894   0.32122

 Mulliken charges:
               1
     1  C   -0.298722
     2  C   -0.299454
     3  C   -0.481985
     4  H    0.149777
     5  H    0.150005
     6  H    0.152047
     7  H    0.151549
     8  H    0.162378
     9  H    0.155680
    10  H    0.159681
    11  C   -0.298311
    12  C   -0.299697
    13  C   -0.475719
    14  H    0.149570
    15  H    0.149557
    16  H    0.151998
    17  H    0.152063
    18  H    0.155166
    19  H    0.155184
    20  H    0.160334
    21  C   -0.297615
    22  C   -0.307311
    23  C   -0.476317
    24  H    0.149006
    25  H    0.149239
    26  H    0.160230
    27  H    0.151837
    28  H    0.155487
    29  H    0.153944
    30  H    0.160582
    31  C   -0.298303
    32  C   -0.299615
    33  C   -0.475684
    34  H    0.149557
    35  H    0.149691
    36  H    0.151791
    37  H    0.151897
    38  H    0.155190
    39  H    0.155117
    40  H    0.160177
 Sum of Mulliken charges =  -0.00000

 Dipole moment (field-independent basis, Debye):
    X=              0.0220    Y=              0.0019    Z=              0.0198  Tot=              0.0296
 Quadrupole moment (field-independent basis, Debye-Ang):
   XX=            -85.3282   YY=            -85.0957   ZZ=            -84.4029
   XY=             -0.8835   XZ=              0.9763   YZ=              0.0230

 Normal termination of Gaussian 16 at Wed May  5 15:03:31 2021.
