 Gaussian 16, Revision A.03,
 Gaussian 16:  EM64L-G16RevA.03 25-Dec-2016

 -------------
 #p 6-31g* mp2
 -------------

 ------------------------------------------------------
 Input file generated by CHIRIPA (05-May-2021 14:57:24)
 ------------------------------------------------------
 Symbolic Z-matrix:
 Charge =  0 Multiplicity = 1

                         Standard orientation:
 ---------------------------------------------------------------------
 Center     Atomic      Atomic             Coordinates (Angstroms)
 Number     Number       Type             X           Y           Z
 ---------------------------------------------------------------------
      1          6           0        2.288117   -2.167135    1.252473
      2          6           0        3.363473   -1.346424    1.608231
      3          6           0        3.706020   -0.243584    0.820225
      4          6           0        2.948289    0.010376   -0.321983
      5          6           0        1.871328   -0.788613   -0.702853
      6          6           0        1.546783   -1.886105    0.100098
      7          1           0        2.029011   -3.021770    1.870419
      8          1           0        3.940971   -1.562267    2.502632
      9          1           0        4.533621    0.408288    1.072329
     10          1           0        1.314285   -0.548076   -1.600217
     11          1           0        0.711134   -2.521750   -0.178632
     12          7           0        3.301399    1.175072   -1.164121
     13          8           0        2.618104    1.377388   -2.165526
     14          8           0        4.254775    1.863591   -0.806837
     15          6           0       -2.005786    1.874567    1.831741
     16          6           0       -3.126395    2.176830    1.051103
     17          6           0       -3.625048    1.246421    0.134462
     18          6           0       -2.975584    0.017908    0.023813
     19          6           0       -1.857167   -0.312805    0.787399
     20          6           0       -1.375860    0.632903    1.697634
     21          1           0       -1.625158    2.603274    2.541322
     22          1           0       -3.617625    3.140328    1.153128
     23          1           0       -4.490886    1.454339   -0.482397
     24          1           0       -1.388782   -1.281637    0.663314
     25          1           0       -0.505403    0.395427    2.302575
     26          7           0       -3.494304   -0.975172   -0.943204
     27          8           0       -2.904144   -2.050426   -1.021789
     28          8           0       -4.481216   -0.659490   -1.604254
 ---------------------------------------------------------------------

 SCF Done:  E(RHF) =  -868.338278190     A.U. after   16 cycles
 E2 =    -0.2600835391D+01 EUMP2 =    -0.87093911358082D+03

 The electronic state is 1-A.
 Alpha  occ. eigenvalues --  -20.61200 -20.61153 -20.61105 -20.61090 -15.86224
 Alpha  occ. eigenvalues --  -15.86157 -11.31618 -11.31465 -11.28229 -11.28171
 Alpha  occ. eigenvalues --  -11.28054 -11.27990 -11.27974 -11.27694 -11.27252
 Alpha  occ. eigenvalues --  -11.27187 -11.26996 -11.26963  -1.60247  -1.60176
 Alpha  occ. eigenvalues --   -1.39810  -1.39725  -1.19824  -1.19614  -1.09199
 Alpha  occ. eigenvalues --   -1.09026  -1.05242  -1.04985  -0.96005  -0.95889
 Alpha  occ. eigenvalues --   -0.86623  -0.86401  -0.82830  -0.82720  -0.77908
 Alpha  occ. eigenvalues --   -0.77750  -0.72447  -0.72369  -0.71564  -0.71505
 Alpha  occ. eigenvalues --   -0.70902  -0.70735  -0.65459  -0.65284  -0.65261
 Alpha  occ. eigenvalues --   -0.64939  -0.62638  -0.62264  -0.55720  -0.55496
 Alpha  occ. eigenvalues --   -0.53634  -0.53352  -0.53260  -0.53012  -0.49219
 Alpha  occ. eigenvalues --   -0.49177  -0.49139  -0.49118  -0.45241  -0.45107
 Alpha  occ. eigenvalues --   -0.37839  -0.37574  -0.37073  -0.36345
 Alpha virt. eigenvalues --    0.04496   0.04891   0.10667   0.11046   0.16008
 Alpha virt. eigenvalues --    0.16334   0.20187   0.21741   0.25564   0.27398
 Alpha virt. eigenvalues --    0.27957   0.28694   0.29951   0.31310   0.31859

 Mulliken charges:
               1
     1  C   -0.175429
     2  C   -0.220531
     3  C   -0.171772
     4  C    0.157446
     5  C   -0.169043
     6  C   -0.232767
     7  H    0.227897
     8  H    0.224417
     9  H    0.276459
    10  H    0.281745
    11  H    0.235372
    12  N    0.487850
    13  O   -0.457315
    14  O   -0.460732
    15  C   -0.169690
    16  C   -0.217505
    17  C   -0.169730
    18  C    0.159109
    19  C   -0.172815
    20  C   -0.218672
    21  H    0.227431
    22  H    0.225496
    23  H    0.276732
    24  H    0.267507
    25  H    0.224489
    26  N    0.488754
    27  O   -0.468340
    28  O   -0.456367
 Sum of Mulliken charges =  -0.00000

 Dipole moment (field-independent basis, Debye):
    X=              0.5921    Y=             -0.4503    Z=              6.3016  Tot=              6.3453
 Quadrupole moment (field-independent basis, Debye-Ang):
   XX=           -117.9081   YY=           -103.3504   ZZ=           -105.2698
   XY=            -24.8011   XZ=              2.7845   YZ=              1.4743

 Normal termination of Gaussian 16 at Wed May  5 16:22:10 2021.
