 Gaussian 16, Revision A.03,
 Gaussian 16:  EM64L-G16RevA.03 25-Dec-2016

 -------------
 #p 6-31g* mp2
 -------------

 ------------------------------------------------------
 Input file generated by CHIRIPA (05-May-2021 14:55:23)
 ------------------------------------------------------
 Symbolic Z-matrix:
 Charge =  0 Multiplicity = 1

                         Standard orientation:
 ---------------------------------------------------------------------
 Center     Atomic      Atomic             Coordinates (Angstroms)
 Number     Number       Type             X           Y           Z
 ---------------------------------------------------------------------
      1          6           0        4.732774   -0.057637   -1.343891
      2          6           0        4.568871   -1.138833   -0.471727
      3          6           0        3.464237   -1.200460    0.382985
      4          6           0        2.538747   -0.158909    0.339047
      5          6           0        2.674193    0.931613   -0.518686
      6          6           0        3.786579    0.972320   -1.364551
      7          1           0        5.593892   -0.017889   -2.004415
      8          1           0        5.302105   -1.940134   -0.453522
      9          1           0        3.312771   -2.025752    1.068091
     10          1           0        1.926480    1.715400   -0.514073
     11          1           0        3.911292    1.813221   -2.040847
     12          7           0        1.365216   -0.213077    1.239209
     13          8           0        0.564033    0.717185    1.181284
     14          8           0        1.268807   -1.184771    1.985636
     15          6           0       -3.039933    0.691355    0.109462
     16          6           0       -3.249315    2.134997   -0.348839
     17          6           0       -2.327379    3.122250    0.367514
     18          1           0       -3.206042    0.629820    1.193697
     19          1           0       -1.992483    0.407556   -0.062884
     20          1           0       -4.296393    2.415533   -0.176958
     21          1           0       -3.082875    2.193065   -1.432141
     22          1           0       -1.277554    2.870028    0.186258
     23          1           0       -2.497967    3.093759    1.448573
     24          1           0       -2.493868    4.148225    0.024707
     25          6           0       -3.954394   -0.307401   -0.597627
     26          6           0       -3.745012   -1.751044   -0.139326
     27          6           0       -4.666948   -2.738297   -0.855678
     28          1           0       -5.001844   -0.023604   -0.425281
     29          1           0       -3.788286   -0.245867   -1.681862
     30          1           0       -3.911453   -1.809112    0.943976
     31          1           0       -2.697935   -2.031579   -0.311207
     32          1           0       -4.496360   -2.709806   -1.936738
     33          1           0       -5.716773   -2.486074   -0.674423
     34          1           0       -4.500458   -3.764273   -0.512873
 ---------------------------------------------------------------------

 SCF Done:  E(RHF) =  -669.535902843     A.U. after   15 cycles
 E2 =    -0.2091760481D+01 EUMP2 =    -0.67162766332394D+03

 The electronic state is 1-A.
 Alpha  occ. eigenvalues --  -20.60994 -20.60988 -15.86014 -11.31332 -11.27898
 Alpha  occ. eigenvalues --  -11.27889 -11.27627 -11.26898 -11.26889 -11.20701
 Alpha  occ. eigenvalues --  -11.20583 -11.20417 -11.20387 -11.20009 -11.19943
 Alpha  occ. eigenvalues --   -1.60049  -1.39607  -1.19499  -1.08904  -1.07378
 Alpha  occ. eigenvalues --   -1.04894  -1.02561  -0.95747  -0.95000  -0.86295
 Alpha  occ. eigenvalues --   -0.86017  -0.82585  -0.78632  -0.77648  -0.77120
 Alpha  occ. eigenvalues --   -0.72236  -0.71361  -0.70608  -0.65157  -0.64896
 Alpha  occ. eigenvalues --   -0.64021  -0.62243  -0.59975  -0.58374  -0.56599
 Alpha  occ. eigenvalues --   -0.55397  -0.54295  -0.53227  -0.52986  -0.51752
 Alpha  occ. eigenvalues --   -0.51406  -0.49075  -0.49001  -0.48864  -0.46933
 Alpha  occ. eigenvalues --   -0.45691  -0.45225  -0.44681  -0.44317  -0.42788
 Alpha  occ. eigenvalues --   -0.37476  -0.36495
 Alpha virt. eigenvalues --    0.04859   0.11159   0.16333   0.21032   0.23758
 Alpha virt. eigenvalues --    0.24821   0.26640   0.27487   0.27953   0.28789
 Alpha virt. eigenvalues --    0.29134   0.30582   0.31630   0.32550   0.32700

 Mulliken charges:
               1
     1  C   -0.170528
     2  C   -0.218540
     3  C   -0.170771
     4  C    0.157731
     5  C   -0.170964
     6  C   -0.218639
     7  H    0.226172
     8  H    0.223984
     9  H    0.275968
    10  H    0.275820
    11  H    0.224116
    12  N    0.491637
    13  O   -0.462528
    14  O   -0.458263
    15  C   -0.300498
    16  C   -0.299433
    17  C   -0.475909
    18  H    0.152962
    19  H    0.164035
    20  H    0.147309
    21  H    0.144552
    22  H    0.163675
    23  H    0.157906
    24  H    0.150851
    25  C   -0.298275
    26  C   -0.297999
    27  C   -0.475136
    28  H    0.145676
    29  H    0.144018
    30  H    0.154537
    31  H    0.152639
    32  H    0.151975
    33  H    0.153470
    34  H    0.158450
 Sum of Mulliken charges =  -0.00000

 Dipole moment (field-independent basis, Debye):
    X=              4.4672    Y=              0.1205    Z=             -2.9967  Tot=              5.3806
 Quadrupole moment (field-independent basis, Debye-Ang):
   XX=            -74.6948   YY=            -92.6134   ZZ=            -96.6099
   XY=             -2.2754   XZ=             -7.5771   YZ=             -1.5683

 Normal termination of Gaussian 16 at Thu May  6 07:53:17 2021.
