 Gaussian 16, Revision A.03,
 Gaussian 16:  EM64L-G16RevA.03 25-Dec-2016

 -------------
 #p 6-31g* mp2
 -------------

 ------------------------------------------------------
 Input file generated by CHIRIPA (05-May-2021 14:51:08)
 ------------------------------------------------------
 Symbolic Z-matrix:
 Charge =  0 Multiplicity = 1

                         Standard orientation:
 ---------------------------------------------------------------------
 Center     Atomic      Atomic             Coordinates (Angstroms)
 Number     Number       Type             X           Y           Z
 ---------------------------------------------------------------------
      1          6           0        2.777696    0.875098   -0.413376
      2          6           0        3.149286    1.483370    0.939366
      3          6           0        3.426763    2.984668    0.856272
      4          1           0        3.591865    1.059975   -1.127446
      5          1           0        1.891924    1.391296   -0.808778
      6          1           0        4.033269    0.965252    1.332741
      7          1           0        2.334222    1.296857    1.650350
      8          1           0        2.545480    3.519487    0.487611
      9          1           0        4.254182    3.185997    0.168197
     10          1           0        3.690459    3.398937    1.834385
     11          6           0        2.497386   -0.625131   -0.346555
     12          6           0        2.125796   -1.233403   -1.699297
     13          6           0        1.848319   -2.734701   -1.616202
     14          1           0        3.383159   -1.141328    0.048847
     15          1           0        1.683217   -0.810008    0.367515
     16          1           0        2.940860   -1.046890   -2.410281
     17          1           0        1.241813   -0.715285   -2.092672
     18          1           0        1.020901   -2.936030   -0.928128
     19          1           0        2.729602   -3.269519   -1.247542
     20          1           0        1.584623   -3.148969   -2.594316
     21          6           0       -2.707406    0.386473   -0.183029
     22          6           0       -4.126723    0.935810   -0.330518
     23          6           0       -4.250528    1.957869   -1.460945
     24          1           0       -2.015209    1.220332   -0.002786
     25          1           0       -2.400087   -0.075428   -1.131501
     26          1           0       -4.431790    1.395313    0.618379
     27          1           0       -4.815648    0.100527   -0.510241
     28          1           0       -3.972227    1.507824   -2.419386
     29          1           0       -3.586188    2.809965   -1.284352
     30          1           0       -5.273275    2.337542   -1.548668
     31          6           0       -2.567676   -0.636440    0.942960
     32          6           0       -1.148360   -1.185777    1.090450
     33          6           0       -1.024555   -2.207836    2.220876
     34          1           0       -2.874996   -0.174540    1.891432
     35          1           0       -3.259873   -1.470299    0.762717
     36          1           0       -0.459434   -0.350495    1.270172
     37          1           0       -0.843291   -1.645280    0.141551
     38          1           0       -1.688893   -3.059933    2.044284
     39          1           0       -1.302856   -1.757791    3.179316
     40          1           0       -0.001807   -2.587509    2.308599
 ---------------------------------------------------------------------

 SCF Done:  E(RHF) =  -470.732544102     A.U. after   11 cycles
 E2 =    -0.1584446308D+01 EUMP2 =    -0.47231699041000D+03

 The electronic state is 1-A.
 Alpha  occ. eigenvalues --  -11.21704 -11.21660 -11.21596 -11.21545 -11.21486
 Alpha  occ. eigenvalues --  -11.21427 -11.21334 -11.21216 -11.21161 -11.21117
 Alpha  occ. eigenvalues --  -11.21070 -11.21042  -1.08532  -1.08364  -1.03633
 Alpha  occ. eigenvalues --   -1.03486  -0.96058  -0.95945  -0.87072  -0.86963
 Alpha  occ. eigenvalues --   -0.79747  -0.79536  -0.78421  -0.78100  -0.65155
 Alpha  occ. eigenvalues --   -0.65030  -0.61125  -0.60838  -0.59449  -0.59272
 Alpha  occ. eigenvalues --   -0.57673  -0.57553  -0.55395  -0.55190  -0.52749
 Alpha  occ. eigenvalues --   -0.52647  -0.52480  -0.52376  -0.50038  -0.49863
 Alpha  occ. eigenvalues --   -0.48130  -0.47840  -0.46741  -0.46565  -0.46131
 Alpha  occ. eigenvalues --   -0.45785  -0.45678  -0.45269  -0.43855  -0.43737
 Alpha virt. eigenvalues --    0.20284   0.22795   0.23244   0.24254   0.25835
 Alpha virt. eigenvalues --    0.26346   0.26615   0.27924   0.28594   0.29475
 Alpha virt. eigenvalues --    0.30457   0.31152   0.31670   0.31853   0.32069

 Mulliken charges:
               1
     1  C   -0.298148
     2  C   -0.300263
     3  C   -0.475595
     4  H    0.149449
     5  H    0.149383
     6  H    0.152126
     7  H    0.151210
     8  H    0.154898
     9  H    0.155383
    10  H    0.160095
    11  C   -0.307652
    12  C   -0.299300
    13  C   -0.480253
    14  H    0.148347
    15  H    0.162265
    16  H    0.151829
    17  H    0.151746
    18  H    0.158530
    19  H    0.155269
    20  H    0.159860
    21  C   -0.298664
    22  C   -0.299698
    23  C   -0.475790
    24  H    0.149163
    25  H    0.149556
    26  H    0.152145
    27  H    0.152225
    28  H    0.155308
    29  H    0.155166
    30  H    0.160535
    31  C   -0.296914
    32  C   -0.308873
    33  C   -0.477879
    34  H    0.149821
    35  H    0.150043
    36  H    0.153573
    37  H    0.157354
    38  H    0.155897
    39  H    0.155855
    40  H    0.161997
 Sum of Mulliken charges =  -0.00000

 Dipole moment (field-independent basis, Debye):
    X=             -0.0524    Y=             -0.0137    Z=              0.0255  Tot=              0.0599
 Quadrupole moment (field-independent basis, Debye-Ang):
   XX=            -83.9121   YY=            -85.9470   ZZ=            -84.9587
   XY=             -0.0561   XZ=             -0.2258   YZ=              0.9456

 Normal termination of Gaussian 16 at Wed May  5 18:06:41 2021.
