 Gaussian 16, Revision A.03,
 Gaussian 16:  EM64L-G16RevA.03 25-Dec-2016

 -------------
 #p 6-31g* mp2
 -------------

 ------------------------------------------------------
 Input file generated by CHIRIPA (05-May-2021 14:51:12)
 ------------------------------------------------------
 Symbolic Z-matrix:
 Charge =  0 Multiplicity = 1

                         Standard orientation:
 ---------------------------------------------------------------------
 Center     Atomic      Atomic             Coordinates (Angstroms)
 Number     Number       Type             X           Y           Z
 ---------------------------------------------------------------------
      1          6           0        2.599728    1.603485    0.116789
      2          6           0        1.185582    2.167571   -0.024568
      3          6           0        1.116543    3.668239    0.260078
      4          1           0        2.967253    1.802722    1.132749
      5          1           0        3.270824    2.138963   -0.568988
      6          1           0        0.517080    1.630249    0.660273
      7          1           0        0.821307    1.966799   -1.040250
      8          1           0        1.760505    4.221486   -0.431177
      9          1           0        1.454549    3.883024    1.279009
     10          1           0        0.096619    4.050614    0.153286
     11          6           0        2.684929    0.104399   -0.164652
     12          6           0        4.099076   -0.459687   -0.023296
     13          6           0        4.168114   -1.960355   -0.307941
     14          1           0        2.013834   -0.431079    0.521125
     15          1           0        2.317404   -0.094838   -1.180612
     16          1           0        4.463350   -0.258915    0.992387
     17          1           0        4.767578    0.077634   -0.708137
     18          1           0        3.830109   -2.175140   -1.326872
     19          1           0        3.524153   -2.513602    0.383313
     20          1           0        5.188038   -2.342730   -0.201150
     21          6           0       -2.961787   -0.188053   -0.170929
     22          6           0       -4.468689   -0.140829    0.084028
     23          6           0       -5.093387    1.197691   -0.310827
     24          1           0       -2.476210    0.623818    0.387663
     25          1           0       -2.770744    0.007028   -1.235279
     26          1           0       -4.656919   -0.337310    1.147316
     27          1           0       -4.950713   -0.953024   -0.475085
     28          1           0       -4.934871    1.397658   -1.375481
     29          1           0       -4.639409    2.016871    0.256137
     30          1           0       -6.171057    1.209564   -0.120183
     31          6           0       -2.322870   -1.519831    0.218792
     32          6           0       -0.815969   -1.567055   -0.036164
     33          6           0       -0.191271   -2.905575    0.358691
     34          1           0       -2.513913   -1.714911    1.283143
     35          1           0       -2.808447   -2.331701   -0.339800
     36          1           0       -0.333944   -0.754860    0.522949
     37          1           0       -0.627738   -1.370574   -1.099451
     38          1           0       -0.645249   -3.724755   -0.208274
     39          1           0       -0.349786   -3.105542    1.423345
     40          1           0        0.886400   -2.917448    0.168047
 ---------------------------------------------------------------------

 SCF Done:  E(RHF) =  -470.732212499     A.U. after   11 cycles
 E2 =    -0.1584896973D+01 EUMP2 =    -0.47231710947206D+03

 The electronic state is 1-A.
 Alpha  occ. eigenvalues --  -11.21596 -11.21595 -11.21580 -11.21490 -11.21385
 Alpha  occ. eigenvalues --  -11.21363 -11.21306 -11.21300 -11.21097 -11.21073
 Alpha  occ. eigenvalues --  -11.21058 -11.21003  -1.08466  -1.08354  -1.03542
 Alpha  occ. eigenvalues --   -1.03486  -0.95993  -0.95938  -0.87005  -0.86957
 Alpha  occ. eigenvalues --   -0.79620  -0.79568  -0.78462  -0.77968  -0.65212
 Alpha  occ. eigenvalues --   -0.64901  -0.60946  -0.60896  -0.59438  -0.59244
 Alpha  occ. eigenvalues --   -0.57663  -0.57495  -0.55315  -0.55200  -0.52724
 Alpha  occ. eigenvalues --   -0.52638  -0.52381  -0.52369  -0.49944  -0.49880
 Alpha  occ. eigenvalues --   -0.48031  -0.47795  -0.46792  -0.46620  -0.46132
 Alpha  occ. eigenvalues --   -0.45837  -0.45568  -0.45000  -0.43777  -0.43730
 Alpha virt. eigenvalues --    0.21084   0.22331   0.23533   0.24218   0.25398
 Alpha virt. eigenvalues --    0.26154   0.26819   0.27317   0.27893   0.29821
 Alpha virt. eigenvalues --    0.30759   0.31360   0.31672   0.31794   0.32889

 Mulliken charges:
               1
     1  C   -0.298542
     2  C   -0.302516
     3  C   -0.475645
     4  H    0.149035
     5  H    0.149430
     6  H    0.154173
     7  H    0.152907
     8  H    0.155294
     9  H    0.154857
    10  H    0.160309
    11  C   -0.303413
    12  C   -0.299258
    13  C   -0.478817
    14  H    0.156686
    15  H    0.150034
    16  H    0.151629
    17  H    0.151790
    18  H    0.155264
    19  H    0.157597
    20  H    0.160617
    21  C   -0.299001
    22  C   -0.299584
    23  C   -0.475621
    24  H    0.150405
    25  H    0.149384
    26  H    0.151750
    27  H    0.151960
    28  H    0.155113
    29  H    0.155035
    30  H    0.160170
    31  C   -0.297965
    32  C   -0.303923
    33  C   -0.482523
    34  H    0.148746
    35  H    0.149271
    36  H    0.158158
    37  H    0.151879
    38  H    0.155289
    39  H    0.153957
    40  H    0.166066
 Sum of Mulliken charges =  -0.00000

 Dipole moment (field-independent basis, Debye):
    X=              0.0272    Y=              0.0114    Z=             -0.0130  Tot=              0.0322
 Quadrupole moment (field-independent basis, Debye-Ang):
   XX=            -85.2674   YY=            -86.7324   ZZ=            -82.9725
   XY=              0.8056   XZ=             -0.0972   YZ=              0.1862

 Normal termination of Gaussian 16 at Wed May  5 21:33:39 2021.
