 Gaussian 16, Revision A.03,
 Gaussian 16:  EM64L-G16RevA.03 25-Dec-2016

 -------------
 #p 6-31g* mp2
 -------------

 ------------------------------------------------------
 Input file generated by CHIRIPA (05-May-2021 14:51:13)
 ------------------------------------------------------
 Symbolic Z-matrix:
 Charge =  0 Multiplicity = 1

                         Standard orientation:
 ---------------------------------------------------------------------
 Center     Atomic      Atomic             Coordinates (Angstroms)
 Number     Number       Type             X           Y           Z
 ---------------------------------------------------------------------
      1          6           0       -2.088320   -0.753193    0.722819
      2          6           0       -1.962421   -2.275272    0.649279
      3          6           0       -1.252778   -2.869238    1.866409
      4          1           0       -1.086142   -0.312812    0.815812
      5          1           0       -2.635242   -0.481193    1.636212
      6          1           0       -1.417105   -2.544385   -0.264408
      7          1           0       -2.965003   -2.712071    0.556258
      8          1           0       -1.797920   -2.629652    2.785114
      9          1           0       -0.241227   -2.461013    1.959785
     10          1           0       -1.173656   -3.958378    1.793101
     11          6           0       -2.795569   -0.144663   -0.486817
     12          6           0       -2.921468    1.377416   -0.413277
     13          6           0       -3.631112    1.971382   -1.630407
     14          1           0       -2.248647   -0.416663   -1.400211
     15          1           0       -3.797747   -0.585044   -0.579810
     16          1           0       -1.918886    1.814214   -0.320256
     17          1           0       -3.466784    1.646529    0.500410
     18          1           0       -4.642662    1.563157   -1.723783
     19          1           0       -3.085969    1.731795   -2.549112
     20          1           0       -3.710233    3.060522   -1.557099
     21          6           0        2.899524   -0.146598   -0.257291
     22          6           0        2.296198   -1.160382   -1.230032
     23          6           0        3.223466   -2.346040   -1.498698
     24          1           0        3.854082    0.216917   -0.661791
     25          1           0        3.133649   -0.652139    0.689815
     26          1           0        2.062003   -0.652775   -2.174544
     27          1           0        1.342872   -1.521383   -0.823259
     28          1           0        3.447921   -2.878058   -0.568548
     29          1           0        4.171138   -2.004514   -1.927511
     30          1           0        2.772444   -3.058346   -2.196595
     31          6           0        1.984365    1.044455    0.021289
     32          6           0        2.587691    2.058238    0.994030
     33          6           0        1.660422    3.243896    1.262697
     34          1           0        1.750240    1.549995   -0.925817
     35          1           0        1.029807    0.680939    0.425790
     36          1           0        3.541017    2.419239    0.587257
     37          1           0        2.821887    1.550631    1.938542
     38          1           0        0.712752    2.902370    1.691510
     39          1           0        1.435968    3.775914    0.332547
     40          1           0        2.111445    3.956202    1.960593
 ---------------------------------------------------------------------

 SCF Done:  E(RHF) =  -470.733414489     A.U. after   11 cycles
 E2 =    -0.1584088180D+01 EUMP2 =    -0.47231750266937D+03

 The electronic state is 1-A.
 Alpha  occ. eigenvalues --  -11.21677 -11.21651 -11.21636 -11.21571 -11.21473
 Alpha  occ. eigenvalues --  -11.21414 -11.21407 -11.21343 -11.21124 -11.21119
 Alpha  occ. eigenvalues --  -11.21106 -11.21049  -1.08512  -1.08426  -1.03587
 Alpha  occ. eigenvalues --   -1.03535  -0.96037  -0.95985  -0.87050  -0.87004
 Alpha  occ. eigenvalues --   -0.79652  -0.79597  -0.78402  -0.78178  -0.65332
 Alpha  occ. eigenvalues --   -0.64885  -0.61041  -0.60876  -0.59401  -0.59355
 Alpha  occ. eigenvalues --   -0.57668  -0.57581  -0.55396  -0.55211  -0.52723
 Alpha  occ. eigenvalues --   -0.52683  -0.52481  -0.52392  -0.50018  -0.49900
 Alpha  occ. eigenvalues --   -0.48007  -0.47897  -0.46769  -0.46588  -0.46328
 Alpha  occ. eigenvalues --   -0.45804  -0.45733  -0.45167  -0.43842  -0.43789
 Alpha virt. eigenvalues --    0.19078   0.22414   0.23577   0.24523   0.25672
 Alpha virt. eigenvalues --    0.26685   0.27108   0.27589   0.27959   0.30212
 Alpha virt. eigenvalues --    0.31170   0.31584   0.31684   0.31934   0.32082

 Mulliken charges:
               1
     1  C   -0.307980
     2  C   -0.300878
     3  C   -0.476148
     4  H    0.157724
     5  H    0.149581
     6  H    0.153260
     7  H    0.152426
     8  H    0.155484
     9  H    0.154335
    10  H    0.160654
    11  C   -0.297648
    12  C   -0.301606
    13  C   -0.475697
    14  H    0.150076
    15  H    0.149591
    16  H    0.154070
    17  H    0.151596
    18  H    0.155034
    19  H    0.155191
    20  H    0.160300
    21  C   -0.297688
    22  C   -0.303466
    23  C   -0.475595
    24  H    0.150229
    25  H    0.149499
    26  H    0.151950
    27  H    0.154454
    28  H    0.155561
    29  H    0.155455
    30  H    0.160391
    31  C   -0.308944
    32  C   -0.298923
    33  C   -0.476784
    34  H    0.149534
    35  H    0.158658
    36  H    0.152244
    37  H    0.152089
    38  H    0.156122
    39  H    0.155204
    40  H    0.160647
 Sum of Mulliken charges =  -0.00000

 Dipole moment (field-independent basis, Debye):
    X=              0.0173    Y=              0.0060    Z=             -0.0015  Tot=              0.0184
 Quadrupole moment (field-independent basis, Debye-Ang):
   XX=            -84.3000   YY=            -85.6630   ZZ=            -84.6726
   XY=              1.1243   XZ=             -1.0071   YZ=             -0.2260

 Normal termination of Gaussian 16 at Thu May  6 03:58:49 2021.
