 Gaussian 16, Revision A.03,
 Gaussian 16:  EM64L-G16RevA.03 25-Dec-2016

 -------------
 #p 6-31g* mp2
 -------------

 ------------------------------------------------------
 Input file generated by CHIRIPA (05-May-2021 14:53:12)
 ------------------------------------------------------
 Symbolic Z-matrix:
 Charge =  0 Multiplicity = 1

                         Standard orientation:
 ---------------------------------------------------------------------
 Center     Atomic      Atomic             Coordinates (Angstroms)
 Number     Number       Type             X           Y           Z
 ---------------------------------------------------------------------
      1          6           0       -3.961956   -0.239683   -0.522199
      2          6           0       -4.045590   -1.559300    0.245657
      3          6           0       -4.728271   -2.667681   -0.556361
      4          1           0       -4.975331    0.079214   -0.802056
      5          1           0       -3.415452   -0.403902   -1.461220
      6          1           0       -4.590573   -1.392340    1.183598
      7          1           0       -3.031913   -1.874995    0.523885
      8          1           0       -4.182591   -2.863146   -1.485138
      9          1           0       -5.750107   -2.377748   -0.821677
     10          1           0       -4.777323   -3.602093    0.011378
     11          6           0       -3.282018    0.878090    0.266468
     12          6           0       -3.198384    2.197706   -0.501387
     13          6           0       -2.515703    3.306087    0.300631
     14          1           0       -3.828522    1.042308    1.205489
     15          1           0       -2.268642    0.559192    0.546325
     16          1           0       -4.212061    2.513402   -0.779615
     17          1           0       -2.653401    2.030746   -1.439329
     18          1           0       -1.493867    3.016154    0.565946
     19          1           0       -3.061383    3.501553    1.229408
     20          1           0       -2.466651    4.240499   -0.267108
     21          6           0        5.098950    0.102882   -0.945207
     22          6           0        4.975992    0.004769    0.444676
     23          6           0        3.723643   -0.190417    1.034651
     24          6           0        2.610292   -0.283432    0.200932
     25          6           0        2.700348   -0.189643   -1.187011
     26          6           0        3.962739    0.005535   -1.755186
     27          1           0        6.075705    0.254504   -1.395046
     28          1           0        5.856661    0.080004    1.076189
     29          1           0        3.599821   -0.269870    2.107859
     30          1           0        1.804244   -0.268514   -1.790496
     31          1           0        4.055228    0.081364   -2.834881
     32          7           0        1.279171   -0.490063    0.813972
     33          8           0        0.313682   -0.568740    0.057481
     34          8           0        1.226531   -0.569430    2.039357
 ---------------------------------------------------------------------

 SCF Done:  E(RHF) =  -669.536647124     A.U. after   15 cycles
 E2 =    -0.2091307671D+01 EUMP2 =    -0.67162795479502D+03

 The electronic state is 1-A.
 Alpha  occ. eigenvalues --  -20.61113 -20.61099 -15.86123 -11.31387 -11.27942
 Alpha  occ. eigenvalues --  -11.27937 -11.27668 -11.26935 -11.26925 -11.20508
 Alpha  occ. eigenvalues --  -11.20287 -11.20152 -11.20103 -11.20072 -11.19792
 Alpha  occ. eigenvalues --   -1.60158  -1.39715  -1.19548  -1.08964  -1.07132
 Alpha  occ. eigenvalues --   -1.04935  -1.02391  -0.95815  -0.94846  -0.86338
 Alpha  occ. eigenvalues --   -0.85876  -0.82651  -0.78441  -0.77711  -0.76920
 Alpha  occ. eigenvalues --   -0.72345  -0.71465  -0.70656  -0.65206  -0.64938
 Alpha  occ. eigenvalues --   -0.63735  -0.62282  -0.59789  -0.58227  -0.56462
 Alpha  occ. eigenvalues --   -0.55442  -0.54130  -0.53270  -0.53026  -0.51608
 Alpha  occ. eigenvalues --   -0.51290  -0.49157  -0.49096  -0.48766  -0.46776
 Alpha  occ. eigenvalues --   -0.45478  -0.45137  -0.44501  -0.44219  -0.42589
 Alpha  occ. eigenvalues --   -0.37523  -0.36533
 Alpha virt. eigenvalues --    0.04797   0.11123   0.16299   0.21253   0.24122
 Alpha virt. eigenvalues --    0.25357   0.27185   0.27792   0.28247   0.28795
 Alpha virt. eigenvalues --    0.29209   0.30868   0.32364   0.32462   0.32867

 Mulliken charges:
               1
     1  C   -0.294889
     2  C   -0.302749
     3  C   -0.474889
     4  H    0.142509
     5  H    0.147651
     6  H    0.148367
     7  H    0.166455
     8  H    0.152871
     9  H    0.151073
    10  H    0.157331
    11  C   -0.311068
    12  C   -0.297256
    13  C   -0.474928
    14  H    0.143676
    15  H    0.180492
    16  H    0.146491
    17  H    0.148493
    18  H    0.156839
    19  H    0.153833
    20  H    0.154032
    21  C   -0.170351
    22  C   -0.218584
    23  C   -0.170464
    24  C    0.157717
    25  C   -0.170650
    26  C   -0.218519
    27  H    0.226387
    28  H    0.224186
    29  H    0.276114
    30  H    0.275719
    31  H    0.224198
    32  N    0.489282
    33  O   -0.461641
    34  O   -0.457726
 Sum of Mulliken charges =  -0.00000

 Dipole moment (field-independent basis, Debye):
    X=              5.1339    Y=              0.6120    Z=             -2.0515  Tot=              5.5624
 Quadrupole moment (field-independent basis, Debye-Ang):
   XX=            -70.6956   YY=            -97.6366   ZZ=            -91.6825
   XY=              0.1291   XZ=             -3.5290   YZ=              0.4280

 Normal termination of Gaussian 16 at Thu May  6 11:58:30 2021.
