 Gaussian 16, Revision A.03,
 Gaussian 16:  EM64L-G16RevA.03 25-Dec-2016

 -------------
 #p 6-31g* mp2
 -------------

 ------------------------------------------------------
 Input file generated by CHIRIPA (05-May-2021 14:55:22)
 ------------------------------------------------------
 Symbolic Z-matrix:
 Charge =  0 Multiplicity = 1

                         Standard orientation:
 ---------------------------------------------------------------------
 Center     Atomic      Atomic             Coordinates (Angstroms)
 Number     Number       Type             X           Y           Z
 ---------------------------------------------------------------------
      1          6           0       -1.100290   -2.011176    0.206224
      2          6           0       -2.426570   -2.444185    0.306258
      3          6           0       -3.481401   -1.534451    0.186832
      4          6           0       -3.172341   -0.193066   -0.033303
      5          6           0       -1.861328    0.269160   -0.137613
      6          6           0       -0.822392   -0.658271   -0.015003
      7          1           0       -0.287046   -2.724753    0.300234
      8          1           0       -2.645366   -3.494263    0.478040
      9          1           0       -4.517332   -1.842487    0.260179
     10          1           0       -1.674586    1.322312   -0.309125
     11          1           0        0.206653   -0.319141   -0.093120
     12          7           0       -4.280630    0.779395   -0.161419
     13          8           0       -3.981867    1.955769   -0.355129
     14          8           0       -5.427084    0.346824   -0.065702
     15          6           0        3.393846    0.962182    0.384361
     16          6           0        3.386704    2.341557   -0.275380
     17          6           0        2.516150    3.350738    0.473941
     18          1           0        2.363328    0.586209    0.444554
     19          1           0        3.751808    1.059955    1.418623
     20          1           0        3.030174    2.241007   -1.308526
     21          1           0        4.417379    2.714206   -0.334183
     22          1           0        2.873636    3.480504    1.500570
     23          1           0        1.478548    3.004617    0.520691
     24          1           0        2.525449    4.329946   -0.014859
     25          6           0        4.259740   -0.057632   -0.353160
     26          6           0        4.266880   -1.437007    0.306579
     27          6           0        5.137435   -2.446188   -0.442742
     28          1           0        3.901778   -0.155405   -1.387423
     29          1           0        5.290257    0.318341   -0.413354
     30          1           0        3.236205   -1.809656    0.365383
     31          1           0        4.623410   -1.336457    1.339726
     32          1           0        6.175036   -2.100067   -0.489490
     33          1           0        4.779949   -2.575954   -1.469370
     34          1           0        5.128137   -3.425396    0.046059
 ---------------------------------------------------------------------

 SCF Done:  E(RHF) =  -669.535444922     A.U. after   15 cycles
 E2 =    -0.2091422674D+01 EUMP2 =    -0.67162686759568D+03

 The electronic state is 1-A.
 Alpha  occ. eigenvalues --  -20.60752 -20.60747 -15.85806 -11.31177 -11.27749
 Alpha  occ. eigenvalues --  -11.27746 -11.27492 -11.26764 -11.26745 -11.22531
 Alpha  occ. eigenvalues --  -11.22377 -11.22310 -11.22231 -11.21836 -11.21692
 Alpha  occ. eigenvalues --   -1.59827  -1.39381  -1.19351  -1.09301  -1.08744
 Alpha  occ. eigenvalues --   -1.04757  -1.04320  -0.96758  -0.95578  -0.87767
 Alpha  occ. eigenvalues --   -0.86157  -0.82413  -0.80382  -0.79126  -0.77457
 Alpha  occ. eigenvalues --   -0.72024  -0.71150  -0.70460  -0.65999  -0.65004
 Alpha  occ. eigenvalues --   -0.64737  -0.62123  -0.61707  -0.60122  -0.58367
 Alpha  occ. eigenvalues --   -0.56060  -0.55255  -0.53418  -0.53200  -0.53083
 Alpha  occ. eigenvalues --   -0.52838  -0.50698  -0.48789  -0.48778  -0.48688
 Alpha  occ. eigenvalues --   -0.47433  -0.46653  -0.46568  -0.44785  -0.44594
 Alpha  occ. eigenvalues --   -0.37331  -0.36358
 Alpha virt. eigenvalues --    0.05078   0.11281   0.16553   0.18150   0.22936
 Alpha virt. eigenvalues --    0.22985   0.24852   0.26313   0.26549   0.27508
 Alpha virt. eigenvalues --    0.29550   0.30672   0.31056   0.31291   0.31861

 Mulliken charges:
               1
     1  C   -0.173597
     2  C   -0.218504
     3  C   -0.171035
     4  C    0.158936
     5  C   -0.174138
     6  C   -0.226661
     7  H    0.226240
     8  H    0.223443
     9  H    0.275596
    10  H    0.275997
    11  H    0.235740
    12  N    0.488076
    13  O   -0.460339
    14  O   -0.460539
    15  C   -0.304045
    16  C   -0.301020
    17  C   -0.474703
    18  H    0.142360
    19  H    0.154284
    20  H    0.152291
    21  H    0.155765
    22  H    0.157915
    23  H    0.150215
    24  H    0.165059
    25  C   -0.299150
    26  C   -0.297825
    27  C   -0.476344
    28  H    0.149765
    29  H    0.154171
    30  H    0.141351
    31  H    0.155218
    32  H    0.158532
    33  H    0.155802
    34  H    0.161145
 Sum of Mulliken charges =  -0.00000

 Dipole moment (field-independent basis, Debye):
    X=              4.1367    Y=             -3.3454    Z=              0.4572  Tot=              5.3397
 Quadrupole moment (field-independent basis, Debye-Ang):
   XX=           -116.2078   YY=            -91.1717   ZZ=            -95.4280
   XY=             14.0033   XZ=             -1.3454   YZ=             -0.7248

 Normal termination of Gaussian 16 at Thu May  6 09:22:49 2021.
