 Gaussian 16, Revision A.03,
 Gaussian 16:  EM64L-G16RevA.03 25-Dec-2016

 -------------
 #p 6-31g* mp2
 -------------

 ------------------------------------------------------
 Input file generated by CHIRIPA (05-May-2021 14:53:15)
 ------------------------------------------------------
 Symbolic Z-matrix:
 Charge =  0 Multiplicity = 1

                         Standard orientation:
 ---------------------------------------------------------------------
 Center     Atomic      Atomic             Coordinates (Angstroms)
 Number     Number       Type             X           Y           Z
 ---------------------------------------------------------------------
      1          6           0       -3.589406   -0.176243    0.537742
      2          6           0       -2.591560   -1.331862    0.455088
      3          6           0       -1.289266   -1.042989    1.202334
      4          1           0       -3.124244    0.731387    0.129358
      5          1           0       -3.810162    0.033592    1.593503
      6          1           0       -2.373811   -1.540365   -0.600246
      7          1           0       -3.059218   -2.236891    0.863540
      8          1           0       -1.486920   -0.856092    2.262807
      9          1           0       -0.797619   -0.155608    0.790704
     10          1           0       -0.590404   -1.882189    1.130246
     11          6           0       -4.896272   -0.450026   -0.204465
     12          6           0       -5.894119    0.705594   -0.121810
     13          6           0       -7.196413    0.416721   -0.869056
     14          1           0       -4.675516   -0.659860   -1.260226
     15          1           0       -5.361434   -1.357656    0.203919
     16          1           0       -5.426461    1.610623   -0.530262
     17          1           0       -6.111867    0.914097    0.933523
     18          1           0       -7.688059   -0.470660   -0.457427
     19          1           0       -6.998758    0.229824   -1.929529
     20          1           0       -7.895274    1.255921   -0.796969
     21          6           0        4.418943   -2.008662   -0.393357
     22          6           0        3.023861   -1.907621   -0.400973
     23          6           0        2.401238   -0.664296   -0.255954
     24          6           0        3.207966    0.462477   -0.104745
     25          6           0        4.600269    0.394315   -0.093095
     26          6           0        5.201315   -0.859398   -0.239713
     27          1           0        4.894231   -2.978542   -0.506632
     28          1           0        2.413741   -2.798465   -0.520121
     29          1           0        1.323285   -0.557390   -0.258267
     30          1           0        5.181927    1.300155    0.027500
     31          1           0        6.284971   -0.934861   -0.233423
     32          7           0        2.560244    1.784227    0.049627
     33          8           0        3.293377    2.761885    0.181304
     34          8           0        1.331691    1.817532    0.036024
 ---------------------------------------------------------------------

 SCF Done:  E(RHF) =  -669.535762752     A.U. after   15 cycles
 E2 =    -0.2091717793D+01 EUMP2 =    -0.67162748054466D+03

 The electronic state is 1-A.
 Alpha  occ. eigenvalues --  -20.60833 -20.60828 -15.85872 -11.31156 -11.27744
 Alpha  occ. eigenvalues --  -11.27668 -11.27484 -11.26746 -11.26726 -11.21595
 Alpha  occ. eigenvalues --  -11.21380 -11.21213 -11.21140 -11.21083 -11.20890
 Alpha  occ. eigenvalues --   -1.59897  -1.39454  -1.19337  -1.08750  -1.08274
 Alpha  occ. eigenvalues --   -1.04732  -1.03425  -0.95890  -0.95585  -0.86911
 Alpha  occ. eigenvalues --   -0.86129  -0.82430  -0.79496  -0.78070  -0.77476
 Alpha  occ. eigenvalues --   -0.72099  -0.71210  -0.70458  -0.64999  -0.64931
 Alpha  occ. eigenvalues --   -0.64721  -0.62133  -0.60785  -0.59263  -0.57481
 Alpha  occ. eigenvalues --   -0.55332  -0.55070  -0.53075  -0.52898  -0.52529
 Alpha  occ. eigenvalues --   -0.52276  -0.49788  -0.48847  -0.48839  -0.47783
 Alpha  occ. eigenvalues --   -0.46489  -0.45612  -0.45521  -0.44861  -0.43678
 Alpha  occ. eigenvalues --   -0.37325  -0.36327
 Alpha virt. eigenvalues --    0.05032   0.11311   0.16521   0.20782   0.23089
 Alpha virt. eigenvalues --    0.24187   0.26616   0.26906   0.27474   0.27982
 Alpha virt. eigenvalues --    0.29303   0.30169   0.31587   0.31956   0.32286

 Mulliken charges:
               1
     1  C   -0.300122
     2  C   -0.299037
     3  C   -0.492895
     4  H    0.157896
     5  H    0.150287
     6  H    0.148648
     7  H    0.150567
     8  H    0.160167
     9  H    0.177627
    10  H    0.147409
    11  C   -0.298296
    12  C   -0.300014
    13  C   -0.475667
    14  H    0.148787
    15  H    0.148014
    16  H    0.154507
    17  H    0.152152
    18  H    0.154157
    19  H    0.154806
    20  H    0.160473
    21  C   -0.170202
    22  C   -0.223004
    23  C   -0.172650
    24  C    0.155298
    25  C   -0.170075
    26  C   -0.219210
    27  H    0.225497
    28  H    0.223728
    29  H    0.287069
    30  H    0.275376
    31  H    0.223278
    32  N    0.489690
    33  O   -0.459590
    34  O   -0.464670
 Sum of Mulliken charges =  -0.00000

 Dipole moment (field-independent basis, Debye):
    X=              2.2661    Y=             -4.5091    Z=             -0.5221  Tot=              5.0734
 Quadrupole moment (field-independent basis, Debye-Ang):
   XX=            -76.9914   YY=            -98.7419   ZZ=            -95.0401
   XY=            -12.0360   XZ=             -2.5795   YZ=              0.1409

 Normal termination of Gaussian 16 at Thu May  6 10:36:00 2021.
