 Gaussian 16, Revision A.03,
 Gaussian 16:  EM64L-G16RevA.03 25-Dec-2016

 -------------
 #p 6-31g* mp2
 -------------

 ------------------------------------------------------
 Input file generated by CHIRIPA (05-May-2021 14:53:11)
 ------------------------------------------------------
 Symbolic Z-matrix:
 Charge =  0 Multiplicity = 1

                         Standard orientation:
 ---------------------------------------------------------------------
 Center     Atomic      Atomic             Coordinates (Angstroms)
 Number     Number       Type             X           Y           Z
 ---------------------------------------------------------------------
      1          6           0        5.314212   -0.077954   -0.383499
      2          6           0        6.647483    0.282839    0.272398
      3          6           0        7.807451    0.311742   -0.723309
      4          1           0        5.405855   -1.058487   -0.870429
      5          1           0        5.097121    0.647411   -1.179810
      6          1           0        6.861322   -0.442183    1.068157
      7          1           0        6.552598    1.262541    0.757988
      8          1           0        7.620281    1.048126   -1.511539
      9          1           0        7.930760   -0.666284   -1.199608
     10          1           0        8.750866    0.571769   -0.233192
     11          6           0        4.144973   -0.110920    0.599111
     12          6           0        2.811702   -0.471712   -0.056786
     13          6           0        1.651734   -0.500616    0.938921
     14          1           0        4.362064   -0.836285    1.395423
     15          1           0        4.053329    0.869613    1.086042
     16          1           0        2.906587   -1.451414   -0.542375
     17          1           0        2.597863    0.253310   -0.852544
     18          1           0        1.528425    0.477410    1.415220
     19          1           0        1.838903   -1.237000    1.727152
     20          1           0        0.708319   -0.760643    0.448805
     21          6           0       -3.602452    2.594145   -0.012696
     22          6           0       -2.418074    1.849993   -0.015858
     23          6           0       -2.457360    0.453051   -0.055324
     24          6           0       -3.703940   -0.169881   -0.091138
     25          6           0       -4.901446    0.543749   -0.089022
     26          6           0       -4.838179    1.939801   -0.049225
     27          1           0       -3.562619    3.678977    0.018090
     28          1           0       -1.456969    2.355482    0.012457
     29          1           0       -1.555879   -0.147564   -0.058682
     30          1           0       -5.844520    0.011583   -0.117811
     31          1           0       -5.759598    2.515148   -0.046865
     32          7           0       -3.758224   -1.648290   -0.133095
     33          8           0       -4.869131   -2.173227   -0.164171
     34          8           0       -2.688839   -2.254136   -0.134111
 ---------------------------------------------------------------------

 SCF Done:  E(RHF) =  -669.535550347     A.U. after   15 cycles
 E2 =    -0.2090871272D+01 EUMP2 =    -0.67162642161883D+03

 The electronic state is 1-A.
 Alpha  occ. eigenvalues --  -20.60743 -20.60738 -15.85794 -11.31147 -11.27724
 Alpha  occ. eigenvalues --  -11.27701 -11.27471 -11.26742 -11.26725 -11.21871
 Alpha  occ. eigenvalues --  -11.21738 -11.21607 -11.21525 -11.21481 -11.21179
 Alpha  occ. eigenvalues --   -1.59817  -1.39372  -1.19325  -1.08724  -1.08633
 Alpha  occ. eigenvalues --   -1.04727  -1.03752  -0.96212  -0.95559  -0.87232
 Alpha  occ. eigenvalues --   -0.86127  -0.82390  -0.79810  -0.78433  -0.77440
 Alpha  occ. eigenvalues --   -0.72015  -0.71139  -0.70447  -0.65261  -0.64978
 Alpha  occ. eigenvalues --   -0.64743  -0.62119  -0.61142  -0.59570  -0.57813
 Alpha  occ. eigenvalues --   -0.55494  -0.55237  -0.53086  -0.53049  -0.52724
 Alpha  occ. eigenvalues --   -0.52549  -0.50143  -0.48773  -0.48770  -0.48126
 Alpha  occ. eigenvalues --   -0.46835  -0.45979  -0.45897  -0.44779  -0.44003
 Alpha  occ. eigenvalues --   -0.37311  -0.36328
 Alpha virt. eigenvalues --    0.05095   0.11321   0.16588   0.20291   0.22780
 Alpha virt. eigenvalues --    0.23810   0.26062   0.26429   0.27216   0.27773
 Alpha virt. eigenvalues --    0.28904   0.29967   0.31349   0.31581   0.31816

 Mulliken charges:
               1
     1  C   -0.298432
     2  C   -0.299771
     3  C   -0.475819
     4  H    0.151454
     5  H    0.148694
     6  H    0.152827
     7  H    0.151184
     8  H    0.154827
     9  H    0.156084
    10  H    0.160604
    11  C   -0.298816
    12  C   -0.298906
    13  C   -0.483909
    14  H    0.151589
    15  H    0.147818
    16  H    0.157433
    17  H    0.148541
    18  H    0.149677
    19  H    0.162908
    20  H    0.163244
    21  C   -0.170528
    22  C   -0.223041
    23  C   -0.178900
    24  C    0.157820
    25  C   -0.169918
    26  C   -0.219106
    27  H    0.225411
    28  H    0.223954
    29  H    0.289154
    30  H    0.275534
    31  H    0.223290
    32  N    0.486605
    33  O   -0.460358
    34  O   -0.461149
 Sum of Mulliken charges =  -0.00000

 Dipole moment (field-independent basis, Debye):
    X=              0.3018    Y=              5.1388    Z=              0.1657  Tot=              5.1503
 Quadrupole moment (field-independent basis, Debye-Ang):
   XX=            -91.6722   YY=            -96.0936   ZZ=            -96.0278
   XY=            -20.2607   XZ=              0.1277   YZ=             -0.7119

 Normal termination of Gaussian 16 at Thu May  6 00:54:22 2021.
