 Gaussian 16, Revision A.03,
 Gaussian 16:  EM64L-G16RevA.03 25-Dec-2016

 -------------
 #p 6-31g* mp2
 -------------

 ------------------------------------------------------
 Input file generated by CHIRIPA (05-May-2021 14:55:19)
 ------------------------------------------------------
 Symbolic Z-matrix:
 Charge =  0 Multiplicity = 1

                         Standard orientation:
 ---------------------------------------------------------------------
 Center     Atomic      Atomic             Coordinates (Angstroms)
 Number     Number       Type             X           Y           Z
 ---------------------------------------------------------------------
      1          6           0        2.398050   -2.006003    1.529992
      2          6           0        1.234248   -1.705964    0.814408
      3          6           0        1.207697   -0.631617   -0.079808
      4          6           0        2.368177    0.125095   -0.234610
      5          6           0        3.543102   -0.148699    0.463872
      6          6           0        3.546738   -1.227784    1.352753
      7          1           0        2.409775   -2.842422    2.222568
      8          1           0        0.340681   -2.308614    0.950039
      9          1           0        0.320308   -0.377152   -0.646559
     10          1           0        4.418248    0.470225    0.307436
     11          1           0        4.451987   -1.458473    1.907146
     12          7           0        2.352198    1.264967   -1.178452
     13          8           0        3.387758    1.916289   -1.296908
     14          8           0        1.304416    1.485492   -1.781907
     15          6           0       -3.334361   -0.383384   -0.426592
     16          6           0       -2.745248   -1.794121   -0.399174
     17          6           0       -3.354908   -2.710074   -1.460841
     18          1           0       -4.421482   -0.443965   -0.280162
     19          1           0       -3.176977    0.052868   -1.422740
     20          1           0       -2.902471   -2.227062    0.597049
     21          1           0       -1.659377   -1.730162   -0.545496
     22          1           0       -3.185666   -2.303846   -2.463307
     23          1           0       -4.435822   -2.803570   -1.314272
     24          1           0       -2.919422   -3.713474   -1.423417
     25          6           0       -2.734913    0.544074    0.628969
     26          6           0       -3.324026    1.954812    0.601550
     27          6           0       -2.714365    2.870764    1.663219
     28          1           0       -2.892297    0.107821    1.625116
     29          1           0       -1.647791    0.604655    0.482538
     30          1           0       -4.409897    1.890851    0.747873
     31          1           0       -3.166803    2.387752   -0.394672
     32          1           0       -1.633451    2.964260    1.516648
     33          1           0       -2.883607    2.464536    2.665684
     34          1           0       -3.149852    3.874163    1.625793
 ---------------------------------------------------------------------

 SCF Done:  E(RHF) =  -669.534924569     A.U. after   15 cycles
 E2 =    -0.2093150452D+01 EUMP2 =    -0.67162807502113D+03

 The electronic state is 1-A.
 Alpha  occ. eigenvalues --  -20.60796 -20.60788 -15.85844 -11.31178 -11.27741
 Alpha  occ. eigenvalues --  -11.27705 -11.27468 -11.26759 -11.26706 -11.22394
 Alpha  occ. eigenvalues --  -11.21768 -11.21665 -11.21595 -11.21588 -11.20981
 Alpha  occ. eigenvalues --   -1.59868  -1.39423  -1.19345  -1.08797  -1.08743
 Alpha  occ. eigenvalues --   -1.04747  -1.03840  -0.96254  -0.95588  -0.87279
 Alpha  occ. eigenvalues --   -0.86143  -0.82433  -0.79979  -0.78619  -0.77445
 Alpha  occ. eigenvalues --   -0.72065  -0.71190  -0.70478  -0.65500  -0.64985
 Alpha  occ. eigenvalues --   -0.64717  -0.62119  -0.61199  -0.59654  -0.57878
 Alpha  occ. eigenvalues --   -0.55529  -0.55243  -0.53082  -0.52969  -0.52863
 Alpha  occ. eigenvalues --   -0.52635  -0.50208  -0.48824  -0.48819  -0.48252
 Alpha  occ. eigenvalues --   -0.47008  -0.46097  -0.45976  -0.44831  -0.44094
 Alpha  occ. eigenvalues --   -0.37323  -0.36326
 Alpha virt. eigenvalues --    0.05016   0.11251   0.16530   0.19830   0.22889
 Alpha virt. eigenvalues --    0.23986   0.25302   0.26112   0.27400   0.28235
 Alpha virt. eigenvalues --    0.29693   0.30780   0.31237   0.31594   0.32841

 Mulliken charges:
               1
     1  C   -0.170880
     2  C   -0.221736
     3  C   -0.178218
     4  C    0.159966
     5  C   -0.171008
     6  C   -0.218355
     7  H    0.225658
     8  H    0.228015
     9  H    0.280868
    10  H    0.275444
    11  H    0.223460
    12  N    0.488586
    13  O   -0.460046
    14  O   -0.461915
    15  C   -0.299845
    16  C   -0.306578
    17  C   -0.475197
    18  H    0.152351
    19  H    0.156583
    20  H    0.150599
    21  H    0.143373
    22  H    0.160195
    23  H    0.158393
    24  H    0.158940
    25  C   -0.302789
    26  C   -0.299992
    27  C   -0.476649
    28  H    0.147298
    29  H    0.149540
    30  H    0.151170
    31  H    0.158902
    32  H    0.159453
    33  H    0.152449
    34  H    0.161965
 Sum of Mulliken charges =  -0.00000

 Dipole moment (field-independent basis, Debye):
    X=             -0.0677    Y=             -3.9281    Z=              3.2630  Tot=              5.1071
 Quadrupole moment (field-independent basis, Debye-Ang):
   XX=            -88.9682   YY=            -96.5793   ZZ=            -96.8327
   XY=             -8.7071   XZ=              8.8644   YZ=              0.7928

 Normal termination of Gaussian 16 at Thu May  6 20:36:09 2021.
