 Gaussian 16, Revision A.03,
 Gaussian 16:  EM64L-G16RevA.03 25-Dec-2016

 -------------
 #p 6-31g* mp2
 -------------

 ------------------------------------------------------
 Input file generated by CHIRIPA (05-May-2021 14:53:15)
 ------------------------------------------------------
 Symbolic Z-matrix:
 Charge =  0 Multiplicity = 1

                         Standard orientation:
 ---------------------------------------------------------------------
 Center     Atomic      Atomic             Coordinates (Angstroms)
 Number     Number       Type             X           Y           Z
 ---------------------------------------------------------------------
      1          6           0       -3.686257   -0.537970    0.703565
      2          6           0       -2.196682   -0.434457    0.374271
      3          6           0       -1.318144   -1.203056    1.361803
      4          1           0       -3.857619   -0.159409    1.720557
      5          1           0       -3.980426   -1.596655    0.710426
      6          1           0       -1.905718    0.623795    0.366672
      7          1           0       -2.028875   -0.813131   -0.642126
      8          1           0       -1.580053   -2.266070    1.363915
      9          1           0       -1.456196   -0.820980    2.378445
     10          1           0       -0.257199   -1.115553    1.107642
     11          6           0       -4.577428    0.225229   -0.274734
     12          6           0       -6.067004    0.121716    0.054561
     13          6           0       -6.945542    0.890314   -0.932972
     14          1           0       -4.283260    1.283913   -0.281594
     15          1           0       -4.406067   -0.153333   -1.291725
     16          1           0       -6.234811    0.500390    1.070958
     17          1           0       -6.357968   -0.936537    0.062159
     18          1           0       -6.807490    0.508238   -1.949614
     19          1           0       -6.683633    1.953329   -0.935083
     20          1           0       -8.006487    0.802811   -0.678811
     21          6           0        3.055979   -2.367355   -0.539830
     22          6           0        4.299910   -1.782673   -0.280401
     23          6           0        4.407078   -0.404317   -0.072557
     24          6           0        3.244633    0.362842   -0.131518
     25          6           0        1.990962   -0.190203   -0.387920
     26          6           0        1.907500   -1.570659   -0.592669
     27          1           0        2.981935   -3.438911   -0.700086
     28          1           0        5.193516   -2.398937   -0.238782
     29          1           0        5.357460    0.074345    0.130114
     30          1           0        1.117897    0.450053   -0.423253
     31          1           0        0.940124   -2.022003   -0.793954
     32          7           0        3.345540    1.823158    0.086878
     33          8           0        2.306458    2.477132    0.029738
     34          8           0        4.461800    2.286127    0.311063
 ---------------------------------------------------------------------

 SCF Done:  E(RHF) =  -669.534409806     A.U. after   15 cycles
 E2 =    -0.2092768497D+01 EUMP2 =    -0.67162717830313D+03

 The electronic state is 1-A.
 Alpha  occ. eigenvalues --  -20.60773 -20.60768 -15.85827 -11.31200 -11.27770
 Alpha  occ. eigenvalues --  -11.27748 -11.27504 -11.26790 -11.26748 -11.22187
 Alpha  occ. eigenvalues --  -11.21791 -11.21772 -11.21618 -11.21591 -11.21197
 Alpha  occ. eigenvalues --   -1.59848  -1.39401  -1.19382  -1.08790  -1.08761
 Alpha  occ. eigenvalues --   -1.04806  -1.03899  -0.96348  -0.95600  -0.87363
 Alpha  occ. eigenvalues --   -0.86174  -0.82444  -0.79980  -0.78574  -0.77491
 Alpha  occ. eigenvalues --   -0.72046  -0.71172  -0.70485  -0.65418  -0.65044
 Alpha  occ. eigenvalues --   -0.64781  -0.62267  -0.61287  -0.59670  -0.57941
 Alpha  occ. eigenvalues --   -0.55611  -0.55268  -0.53422  -0.52926  -0.52842
 Alpha  occ. eigenvalues --   -0.52566  -0.50262  -0.48804  -0.48799  -0.48288
 Alpha  occ. eigenvalues --   -0.47009  -0.46117  -0.46019  -0.44805  -0.44153
 Alpha  occ. eigenvalues --   -0.37357  -0.36315
 Alpha virt. eigenvalues --    0.05013   0.11248   0.16376   0.20051   0.22798
 Alpha virt. eigenvalues --    0.23932   0.25950   0.26292   0.27330   0.27866
 Alpha virt. eigenvalues --    0.29359   0.29922   0.31177   0.31554   0.32080

 Mulliken charges:
               1
     1  C   -0.297919
     2  C   -0.305063
     3  C   -0.485767
     4  H    0.152911
     5  H    0.149065
     6  H    0.158420
     7  H    0.145225
     8  H    0.152848
     9  H    0.161954
    10  H    0.161282
    11  C   -0.299122
    12  C   -0.300041
    13  C   -0.476009
    14  H    0.152715
    15  H    0.148744
    16  H    0.153100
    17  H    0.151341
    18  H    0.154957
    19  H    0.156754
    20  H    0.160889
    21  C   -0.172135
    22  C   -0.218559
    23  C   -0.170995
    24  C    0.157648
    25  C   -0.173109
    26  C   -0.220307
    27  H    0.225910
    28  H    0.223576
    29  H    0.275702
    30  H    0.279927
    31  H    0.228761
    32  N    0.488057
    33  O   -0.460382
    34  O   -0.460376
 Sum of Mulliken charges =  -0.00000

 Dipole moment (field-independent basis, Debye):
    X=             -0.4170    Y=             -5.0926    Z=             -0.7331  Tot=              5.1620
 Quadrupole moment (field-independent basis, Debye-Ang):
   XX=            -92.1548   YY=            -98.6751   ZZ=            -95.3232
   XY=            -17.3360   XZ=             -2.3269   YZ=              1.2263

 Normal termination of Gaussian 16 at Thu May  6 01:04:39 2021.
