 Gaussian 16, Revision A.03,
 Gaussian 16:  EM64L-G16RevA.03 25-Dec-2016

 -------------
 #p 6-31g* mp2
 -------------

 ------------------------------------------------------
 Input file generated by CHIRIPA (05-May-2021 14:55:18)
 ------------------------------------------------------
 Symbolic Z-matrix:
 Charge =  0 Multiplicity = 1

                         Standard orientation:
 ---------------------------------------------------------------------
 Center     Atomic      Atomic             Coordinates (Angstroms)
 Number     Number       Type             X           Y           Z
 ---------------------------------------------------------------------
      1          6           0       -3.400991   -1.946638    0.680186
      2          6           0       -2.805081   -1.717994   -0.564456
      3          6           0       -2.406715   -0.430168   -0.935074
      4          6           0       -2.620335    0.610501   -0.032487
      5          6           0       -3.211446    0.414650    1.214718
      6          6           0       -3.601917   -0.881464    1.564242
      7          1           0       -3.707385   -2.950271    0.959898
      8          1           0       -2.647797   -2.543317   -1.253040
      9          1           0       -1.943080   -0.224965   -1.892337
     10          1           0       -3.355144    1.257439    1.879906
     11          1           0       -4.064467   -1.056078    2.531508
     12          7           0       -2.202781    1.978252   -0.413679
     13          8           0       -2.402033    2.878142    0.399422
     14          8           0       -1.684157    2.124506   -1.518340
     15          6           0        3.838373    0.160072   -0.032712
     16          6           0        5.227657    0.020449    0.590489
     17          6           0        6.008177    1.335195    0.595467
     18          1           0        3.940651    0.531320   -1.061624
     19          1           0        3.271285    0.922132    0.519620
     20          1           0        5.791470   -0.742108    0.038005
     21          1           0        5.122070   -0.350691    1.617973
     22          1           0        5.469761    2.100695    1.163551
     23          1           0        6.142965    1.707054   -0.425392
     24          1           0        6.998336    1.212552    1.045361
     25          6           0        3.045858   -1.145875   -0.044953
     26          6           0        1.656574   -1.006253   -0.668154
     27          6           0        0.876053   -2.320999   -0.673132
     28          1           0        3.612947   -1.907934   -0.597286
     29          1           0        2.943580   -1.517122    0.983959
     30          1           0        1.762161   -0.635113   -1.695637
     31          1           0        1.092761   -0.243696   -0.115670
     32          1           0        0.741266   -2.692856    0.347727
     33          1           0        1.414470   -3.086497   -1.241217
     34          1           0       -0.114106   -2.198355   -1.123026
 ---------------------------------------------------------------------

 SCF Done:  E(RHF) =  -669.534225047     A.U. after   15 cycles
 E2 =    -0.2093086877D+01 EUMP2 =    -0.67162731192448D+03

 The electronic state is 1-A.
 Alpha  occ. eigenvalues --  -20.60799 -20.60793 -15.85852 -11.31233 -11.27790
 Alpha  occ. eigenvalues --  -11.27781 -11.27520 -11.26810 -11.26796 -11.21605
 Alpha  occ. eigenvalues --  -11.21455 -11.21350 -11.21267 -11.21191 -11.20875
 Alpha  occ. eigenvalues --   -1.59873  -1.39425  -1.19405  -1.08792  -1.08352
 Alpha  occ. eigenvalues --   -1.04827  -1.03488  -0.95964  -0.95622  -0.86987
 Alpha  occ. eigenvalues --   -0.86201  -0.82468  -0.79552  -0.78140  -0.77513
 Alpha  occ. eigenvalues --   -0.72068  -0.71198  -0.70503  -0.65063  -0.64980
 Alpha  occ. eigenvalues --   -0.64819  -0.62206  -0.60887  -0.59368  -0.57588
 Alpha  occ. eigenvalues --   -0.55297  -0.55249  -0.53334  -0.52920  -0.52509
 Alpha  occ. eigenvalues --   -0.52280  -0.49884  -0.48829  -0.48822  -0.47872
 Alpha  occ. eigenvalues --   -0.46575  -0.45691  -0.45603  -0.44822  -0.43762
 Alpha  occ. eigenvalues --   -0.37370  -0.36306
 Alpha virt. eigenvalues --    0.05009   0.11189   0.16399   0.20934   0.22979
 Alpha virt. eigenvalues --    0.24324   0.26440   0.26731   0.27495   0.28122
 Alpha virt. eigenvalues --    0.28735   0.30469   0.31400   0.31795   0.32583

 Mulliken charges:
               1
     1  C   -0.171903
     2  C   -0.216133
     3  C   -0.168237
     4  C    0.157465
     5  C   -0.171735
     6  C   -0.218559
     7  H    0.225961
     8  H    0.224335
     9  H    0.276387
    10  H    0.275605
    11  H    0.223566
    12  N    0.487878
    13  O   -0.460502
    14  O   -0.459859
    15  C   -0.298910
    16  C   -0.299675
    17  C   -0.475820
    18  H    0.151687
    19  H    0.152773
    20  H    0.150828
    21  H    0.150835
    22  H    0.156740
    23  H    0.156049
    24  H    0.159348
    25  C   -0.298542
    26  C   -0.300086
    27  C   -0.475663
    28  H    0.148462
    29  H    0.148327
    30  H    0.154485
    31  H    0.154408
    32  H    0.153992
    33  H    0.153284
    34  H    0.153206
 Sum of Mulliken charges =  -0.00000

 Dipole moment (field-independent basis, Debye):
    X=             -1.4995    Y=             -4.7397    Z=              1.3591  Tot=              5.1537
 Quadrupole moment (field-independent basis, Debye-Ang):
   XX=            -87.4785   YY=           -101.5771   ZZ=            -90.3356
   XY=             10.8672   XZ=             -5.7013   YZ=              2.7593

 Normal termination of Gaussian 16 at Thu May  6 06:04:03 2021.
