 Gaussian 16, Revision A.03,
 Gaussian 16:  EM64L-G16RevA.03 25-Dec-2016

 -------------
 #p 6-31g* mp2
 -------------

 ------------------------------------------------------
 Input file generated by CHIRIPA (05-May-2021 14:51:10)
 ------------------------------------------------------
 Symbolic Z-matrix:
 Charge =  0 Multiplicity = 1

                         Standard orientation:
 ---------------------------------------------------------------------
 Center     Atomic      Atomic             Coordinates (Angstroms)
 Number     Number       Type             X           Y           Z
 ---------------------------------------------------------------------
      1          6           0       -3.608480   -0.319043   -0.128588
      2          6           0       -3.899534    1.090254   -0.645457
      3          6           0       -5.206264    1.172157   -1.435104
      4          1           0       -3.568920   -1.013649   -0.978824
      5          1           0       -4.442714   -0.648900    0.505953
      6          1           0       -3.064359    1.417896   -1.277714
      7          1           0       -3.938216    1.781619    0.206092
      8          1           0       -6.053393    0.870909   -0.810426
      9          1           0       -5.174571    0.505120   -2.302663
     10          1           0       -5.394719    2.188366   -1.795193
     11          6           0       -2.305468   -0.416982    0.662801
     12          6           0       -2.014413   -1.826279    1.179670
     13          6           0       -0.707684   -1.908182    1.969317
     14          1           0       -1.471233   -0.087125    0.028260
     15          1           0       -2.345028    0.277624    1.513038
     16          1           0       -1.975732   -2.517644    0.328121
     17          1           0       -2.849588   -2.153921    1.811928
     18          1           0       -0.739376   -1.241145    2.836876
     19          1           0        0.139446   -1.606934    1.344639
     20          1           0       -0.519228   -2.924391    2.329406
     21          6           0        3.256066    1.044799   -0.077539
     22          6           0        2.215392    2.051254    0.414427
     23          6           0        2.829092    3.400409    0.789855
     24          1           0        4.014432    0.899524    0.703947
     25          1           0        3.779946    1.465083   -0.947198
     26          1           0        1.692679    1.628625    1.282052
     27          1           0        1.459310    2.194005   -0.368247
     28          1           0        3.334628    3.846993   -0.072466
     29          1           0        3.569322    3.278400    1.587209
     30          1           0        2.067494    4.104708    1.138840
     31          6           0        2.657881   -0.308774   -0.456674
     32          6           0        3.698556   -1.315229   -0.948640
     33          6           0        3.084855   -2.664384   -1.324067
     34          1           0        2.134002   -0.729058    0.412984
     35          1           0        1.899515   -0.163499   -1.238161
     36          1           0        4.454637   -1.457980   -0.165966
     37          1           0        4.221268   -0.892600   -1.816264
     38          1           0        2.344624   -2.542375   -2.121422
     39          1           0        2.579319   -3.110968   -0.461747
     40          1           0        3.846453   -3.368683   -1.673054
 ---------------------------------------------------------------------

 SCF Done:  E(RHF) =  -470.733420834     A.U. after   11 cycles
 E2 =    -0.1583064745D+01 EUMP2 =    -0.47231648557884D+03

 The electronic state is 1-A.
 Alpha  occ. eigenvalues --  -11.21630 -11.21600 -11.21589 -11.21576 -11.21434
 Alpha  occ. eigenvalues --  -11.21376 -11.21372 -11.21314 -11.21096 -11.21069
 Alpha  occ. eigenvalues --  -11.21063 -11.21040  -1.08459  -1.08402  -1.03546
 Alpha  occ. eigenvalues --   -1.03509  -0.96002  -0.95958  -0.87022  -0.86973
 Alpha  occ. eigenvalues --   -0.79621  -0.79566  -0.78323  -0.78168  -0.65117
 Alpha  occ. eigenvalues --   -0.65012  -0.60978  -0.60875  -0.59365  -0.59329
 Alpha  occ. eigenvalues --   -0.57648  -0.57537  -0.55354  -0.55193  -0.52689
 Alpha  occ. eigenvalues --   -0.52658  -0.52486  -0.52334  -0.50018  -0.49852
 Alpha  occ. eigenvalues --   -0.47973  -0.47875  -0.46741  -0.46577  -0.45969
 Alpha  occ. eigenvalues --   -0.45758  -0.45702  -0.45379  -0.43803  -0.43765
 Alpha virt. eigenvalues --    0.21101   0.23204   0.23706   0.24464   0.25640
 Alpha virt. eigenvalues --    0.25721   0.27087   0.27838   0.28460   0.29486
 Alpha virt. eigenvalues --    0.30892   0.31667   0.31790   0.31828   0.31985

 Mulliken charges:
               1
     1  C   -0.298349
     2  C   -0.299514
     3  C   -0.475692
     4  H    0.149565
     5  H    0.149444
     6  H    0.151703
     7  H    0.151961
     8  H    0.155187
     9  H    0.155114
    10  H    0.160161
    11  C   -0.299200
    12  C   -0.298840
    13  C   -0.484378
    14  H    0.151020
    15  H    0.149409
    16  H    0.152101
    17  H    0.151731
    18  H    0.154643
    19  H    0.162969
    20  H    0.159910
    21  C   -0.297558
    22  C   -0.300362
    23  C   -0.475752
    24  H    0.149820
    25  H    0.149582
    26  H    0.153130
    27  H    0.151724
    28  H    0.155099
    29  H    0.155222
    30  H    0.160424
    31  C   -0.307288
    32  C   -0.298972
    33  C   -0.476598
    34  H    0.158216
    35  H    0.148776
    36  H    0.152184
    37  H    0.152065
    38  H    0.154783
    39  H    0.156021
    40  H    0.160539
 Sum of Mulliken charges =  -0.00000

 Dipole moment (field-independent basis, Debye):
    X=              0.0269    Y=              0.0057    Z=              0.0011  Tot=              0.0275
 Quadrupole moment (field-independent basis, Debye-Ang):
   XX=            -85.4235   YY=            -85.7634   ZZ=            -83.5936
   XY=             -0.2830   XZ=             -0.9100   YZ=             -0.2821

 Normal termination of Gaussian 16 at Wed May  5 19:49:08 2021.
