 Gaussian 16, Revision A.03,
 Gaussian 16:  EM64L-G16RevA.03 25-Dec-2016

 -------------
 #p 6-31g* mp2
 -------------

 ------------------------------------------------------
 Input file generated by CHIRIPA (05-May-2021 14:51:08)
 ------------------------------------------------------
 Symbolic Z-matrix:
 Charge =  0 Multiplicity = 1

                         Standard orientation:
 ---------------------------------------------------------------------
 Center     Atomic      Atomic             Coordinates (Angstroms)
 Number     Number       Type             X           Y           Z
 ---------------------------------------------------------------------
      1          6           0        2.842009    0.281207    0.680217
      2          6           0        1.538730   -0.516513    0.735818
      3          6           0        0.456131    0.176778    1.563539
      4          1           0        3.208552    0.444319    1.702952
      5          1           0        2.637580    1.275353    0.259174
      6          1           0        1.745805   -1.509352    1.155348
      7          1           0        1.175348   -0.677909   -0.287178
      8          1           0        0.220677    1.160053    1.143618
      9          1           0        0.794375    0.323885    2.594340
     10          1           0       -0.466913   -0.410719    1.589941
     11          6           0        3.933950   -0.398975   -0.143642
     12          6           0        5.237229    0.398745   -0.199243
     13          6           0        6.319828   -0.294546   -1.026964
     14          1           0        4.138379   -1.393121    0.277401
     15          1           0        3.567407   -0.562086   -1.166377
     16          1           0        5.600611    0.560141    0.823753
     17          1           0        5.030154    1.391585   -0.618773
     18          1           0        5.981584   -0.441653   -2.057765
     19          1           0        6.555282   -1.277820   -0.607043
     20          1           0        7.242872    0.292951   -1.053366
     21          6           0       -3.798902   -0.570440   -0.132178
     22          6           0       -3.039687   -1.865229   -0.423898
     23          6           0       -3.874963   -3.115550   -0.146756
     24          1           0       -4.122923   -0.571423    0.917562
     25          1           0       -4.712979   -0.544351   -0.741420
     26          1           0       -2.126611   -1.888226    0.184691
     27          1           0       -2.717269   -1.861078   -1.473015
     28          1           0       -4.778941   -3.119634   -0.764339
     29          1           0       -4.184927   -3.146936    0.902786
     30          1           0       -3.312911   -4.029678   -0.361992
     31          6           0       -2.977057    0.688208   -0.404397
     32          6           0       -3.736272    1.982997   -0.112677
     33          6           0       -2.900996    3.233317   -0.389819
     34          1           0       -2.062980    0.662119    0.204845
     35          1           0       -2.653036    0.689191   -1.454137
     36          1           0       -4.058690    1.978846    0.936440
     37          1           0       -4.649348    2.005993   -0.721265
     38          1           0       -2.591031    3.264703   -1.439360
     39          1           0       -1.997018    3.237401    0.227763
     40          1           0       -3.463049    4.147446   -0.174583
 ---------------------------------------------------------------------

 SCF Done:  E(RHF) =  -470.732431279     A.U. after   11 cycles
 E2 =    -0.1583746623D+01 EUMP2 =    -0.47231617790231D+03

 The electronic state is 1-A.
 Alpha  occ. eigenvalues --  -11.21651 -11.21616 -11.21592 -11.21535 -11.21433
 Alpha  occ. eigenvalues --  -11.21372 -11.21334 -11.21195 -11.21154 -11.21081
 Alpha  occ. eigenvalues --  -11.21061 -11.21051  -1.08469  -1.08369  -1.03575
 Alpha  occ. eigenvalues --   -1.03494  -0.96050  -0.95925  -0.87069  -0.86948
 Alpha  occ. eigenvalues --   -0.79663  -0.79545  -0.78276  -0.78178  -0.65156
 Alpha  occ. eigenvalues --   -0.64985  -0.61016  -0.60861  -0.59430  -0.59295
 Alpha  occ. eigenvalues --   -0.57668  -0.57524  -0.55398  -0.55168  -0.52797
 Alpha  occ. eigenvalues --   -0.52622  -0.52450  -0.52352  -0.50054  -0.49832
 Alpha  occ. eigenvalues --   -0.47984  -0.47853  -0.46759  -0.46528  -0.45832
 Alpha  occ. eigenvalues --   -0.45758  -0.45705  -0.45507  -0.43773  -0.43704
 Alpha virt. eigenvalues --    0.20895   0.23039   0.23317   0.24205   0.26239
 Alpha virt. eigenvalues --    0.26605   0.26766   0.27339   0.27901   0.29418
 Alpha virt. eigenvalues --    0.30279   0.31499   0.31791   0.31948   0.32306

 Mulliken charges:
               1
     1  C   -0.298750
     2  C   -0.300395
     3  C   -0.483560
     4  H    0.149732
     5  H    0.150037
     6  H    0.152112
     7  H    0.153844
     8  H    0.157062
     9  H    0.156116
    10  H    0.164512
    11  C   -0.298371
    12  C   -0.299713
    13  C   -0.475730
    14  H    0.149571
    15  H    0.149875
    16  H    0.151944
    17  H    0.152048
    18  H    0.155239
    19  H    0.155192
    20  H    0.160317
    21  C   -0.297669
    22  C   -0.303870
    23  C   -0.475474
    24  H    0.148991
    25  H    0.149311
    26  H    0.154822
    27  H    0.151963
    28  H    0.155334
    29  H    0.155065
    30  H    0.160171
    31  C   -0.309564
    32  C   -0.298672
    33  C   -0.476689
    34  H    0.163741
    35  H    0.148008
    36  H    0.151665
    37  H    0.151419
    38  H    0.154840
    39  H    0.155279
    40  H    0.160248
 Sum of Mulliken charges =  -0.00000

 Dipole moment (field-independent basis, Debye):
    X=              0.0548    Y=             -0.0077    Z=              0.0177  Tot=              0.0581
 Quadrupole moment (field-independent basis, Debye-Ang):
   XX=            -85.7495   YY=            -85.7609   ZZ=            -83.4899
   XY=             -0.2825   XZ=              1.1237   YZ=             -0.4672

 Normal termination of Gaussian 16 at Wed May  5 21:17:02 2021.
