 Gaussian 16, Revision A.03,
 Gaussian 16:  EM64L-G16RevA.03 25-Dec-2016

 -------------
 #p 6-31g* mp2
 -------------

 ------------------------------------------------------
 Input file generated by CHIRIPA (05-May-2021 14:51:08)
 ------------------------------------------------------
 Symbolic Z-matrix:
 Charge =  0 Multiplicity = 1

                         Standard orientation:
 ---------------------------------------------------------------------
 Center     Atomic      Atomic             Coordinates (Angstroms)
 Number     Number       Type             X           Y           Z
 ---------------------------------------------------------------------
      1          6           0        2.356626   -0.991266    0.710506
      2          6           0        1.296864   -0.551358    1.721136
      3          6           0        0.680710   -1.726465    2.480920
      4          1           0        1.904686   -1.694280   -0.002562
      5          1           0        3.147352   -1.544299    1.236151
      6          1           0        0.509068    0.001875    1.193949
      7          1           0        1.751332    0.150838    2.431766
      8          1           0        1.451144   -2.275300    3.032111
      9          1           0        0.201822   -2.425110    1.787262
     10          1           0       -0.074250   -1.389322    3.198019
     11          6           0        2.981817    0.172291   -0.056957
     12          6           0        4.041578   -0.267617   -1.067586
     13          6           0        4.657733    0.907489   -1.827371
     14          1           0        2.191091    0.725324   -0.582601
     15          1           0        3.433757    0.875305    0.656111
     16          1           0        3.587111   -0.969814   -1.778216
     17          1           0        4.829375   -0.820851   -0.540399
     18          1           0        5.136621    1.606134   -1.133712
     19          1           0        3.887299    1.456325   -2.378562
     20          1           0        5.412693    0.570346   -2.544470
     21          6           0       -2.549167   -0.344437   -0.351610
     22          6           0       -3.570132   -1.093101   -1.208999
     23          6           0       -3.316700   -2.600409   -1.248860
     24          1           0       -1.540384   -0.537902   -0.741320
     25          1           0       -2.572318   -0.748224    0.670062
     26          1           0       -3.546040   -0.687084   -2.228404
     27          1           0       -4.576618   -0.897677   -0.817320
     28          1           0       -3.361067   -3.025302   -0.240842
     29          1           0       -2.324634   -2.813513   -1.659945
     30          1           0       -4.058087   -3.115947   -1.867267
     31          6           0       -2.789276    1.163412   -0.301939
     32          6           0       -1.768311    1.912076    0.555449
     33          6           0       -2.021742    3.419385    0.595310
     34          1           0       -2.766125    1.567200   -1.323612
     35          1           0       -3.798059    1.356877    0.087770
     36          1           0       -0.761825    1.716652    0.163770
     37          1           0       -1.792403    1.506060    1.574854
     38          1           0       -3.013809    3.632488    1.006395
     39          1           0       -1.977376    3.844277   -0.412707
     40          1           0       -1.280356    3.934922    1.213717
 ---------------------------------------------------------------------

 SCF Done:  E(RHF) =  -470.732917050     A.U. after   11 cycles
 E2 =    -0.1584014069D+01 EUMP2 =    -0.47231693111954D+03

 The electronic state is 1-A.
 Alpha  occ. eigenvalues --  -11.21655 -11.21646 -11.21603 -11.21468 -11.21429
 Alpha  occ. eigenvalues --  -11.21408 -11.21388 -11.21306 -11.21118 -11.21102
 Alpha  occ. eigenvalues --  -11.21077 -11.20991  -1.08506  -1.08381  -1.03588
 Alpha  occ. eigenvalues --   -1.03474  -0.96029  -0.95940  -0.87050  -0.86953
 Alpha  occ. eigenvalues --   -0.79732  -0.79494  -0.78414  -0.78097  -0.65179
 Alpha  occ. eigenvalues --   -0.64975  -0.60995  -0.60872  -0.59444  -0.59268
 Alpha  occ. eigenvalues --   -0.57640  -0.57549  -0.55316  -0.55231  -0.52730
 Alpha  occ. eigenvalues --   -0.52628  -0.52460  -0.52361  -0.49973  -0.49891
 Alpha  occ. eigenvalues --   -0.48162  -0.47777  -0.46770  -0.46608  -0.46115
 Alpha  occ. eigenvalues --   -0.45774  -0.45715  -0.45133  -0.43834  -0.43737
 Alpha virt. eigenvalues --    0.20544   0.23228   0.23635   0.23992   0.24941
 Alpha virt. eigenvalues --    0.26344   0.27189   0.27817   0.28569   0.29861
 Alpha virt. eigenvalues --    0.30832   0.31304   0.31669   0.31853   0.31991

 Mulliken charges:
               1
     1  C   -0.297980
     2  C   -0.310158
     3  C   -0.475350
     4  H    0.148884
     5  H    0.149253
     6  H    0.165578
     7  H    0.150585
     8  H    0.154479
     9  H    0.155679
    10  H    0.158918
    11  C   -0.299140
    12  C   -0.299561
    13  C   -0.475659
    14  H    0.148697
    15  H    0.149874
    16  H    0.151705
    17  H    0.152231
    18  H    0.155264
    19  H    0.154889
    20  H    0.160267
    21  C   -0.300672
    22  C   -0.299679
    23  C   -0.475832
    24  H    0.149632
    25  H    0.151533
    26  H    0.151983
    27  H    0.152309
    28  H    0.155605
    29  H    0.154733
    30  H    0.160575
    31  C   -0.298105
    32  C   -0.304589
    33  C   -0.475013
    34  H    0.149372
    35  H    0.149951
    36  H    0.155240
    37  H    0.153376
    38  H    0.155213
    39  H    0.155085
    40  H    0.160827
 Sum of Mulliken charges =  -0.00000

 Dipole moment (field-independent basis, Debye):
    X=             -0.0551    Y=              0.0272    Z=             -0.0053  Tot=              0.0617
 Quadrupole moment (field-independent basis, Debye-Ang):
   XX=            -84.1514   YY=            -86.5491   ZZ=            -84.0814
   XY=             -0.1802   XZ=              0.3352   YZ=              0.3565

 Normal termination of Gaussian 16 at Thu May  6 14:51:14 2021.
