 Gaussian 16, Revision A.03,
 Gaussian 16:  EM64L-G16RevA.03 25-Dec-2016

 -------------
 #p 6-31g* mp2
 -------------

 ------------------------------------------------------
 Input file generated by CHIRIPA (05-May-2021 14:53:17)
 ------------------------------------------------------
 Symbolic Z-matrix:
 Charge =  0 Multiplicity = 1

                         Standard orientation:
 ---------------------------------------------------------------------
 Center     Atomic      Atomic             Coordinates (Angstroms)
 Number     Number       Type             X           Y           Z
 ---------------------------------------------------------------------
      1          6           0        4.139317   -0.519798    0.359793
      2          6           0        3.457572   -1.869937    0.135441
      3          6           0        4.279815   -3.043307    0.669214
      4          1           0        5.125223   -0.529021   -0.124819
      5          1           0        4.320717   -0.382642    1.434817
      6          1           0        3.276262   -2.003896   -0.938709
      7          1           0        2.473095   -1.857432    0.620480
      8          1           0        4.449405   -2.936823    1.745551
      9          1           0        5.257136   -3.084119    0.177503
     10          1           0        3.773916   -3.998678    0.498360
     11          6           0        3.329529    0.662966   -0.168448
     12          6           0        4.011273    2.013105    0.055905
     13          6           0        3.189030    3.186475   -0.477869
     14          1           0        3.148128    0.525810   -1.243472
     15          1           0        2.343622    0.672189    0.316164
     16          1           0        4.995751    2.000600   -0.429135
     17          1           0        4.192584    2.147064    1.130055
     18          1           0        2.211710    3.227287    0.013842
     19          1           0        3.019440    3.079991   -1.554206
     20          1           0        3.694930    4.141846   -0.307015
     21          6           0       -5.369141    0.033176    0.514774
     22          6           0       -4.479187    0.951787    1.081043
     23          6           0       -3.118700    0.911765    0.761630
     24          6           0       -2.680504   -0.064539   -0.131737
     25          6           0       -3.542414   -0.993592   -0.712480
     26          6           0       -4.898742   -0.934875   -0.378604
     27          1           0       -6.424383    0.071527    0.768519
     28          1           0       -4.841685    1.704679    1.775154
     29          1           0       -2.407870    1.610728    1.185407
     30          1           0       -3.151360   -1.732603   -1.401216
     31          1           0       -5.587600   -1.649558   -0.819907
     32          7           0       -1.242419   -0.116804   -0.477539
     33          8           0       -0.881439   -0.986647   -1.267290
     34          8           0       -0.503458    0.713062    0.047718
 ---------------------------------------------------------------------

 SCF Done:  E(RHF) =  -669.536199331     A.U. after   15 cycles
 E2 =    -0.2091362938D+01 EUMP2 =    -0.67162756226899D+03

 The electronic state is 1-A.
 Alpha  occ. eigenvalues --  -20.61011 -20.61004 -15.86038 -11.31341 -11.27902
 Alpha  occ. eigenvalues --  -11.27897 -11.27634 -11.26903 -11.26893 -11.20277
 Alpha  occ. eigenvalues --  -11.20219 -11.20033 -11.20005 -11.19824 -11.19545
 Alpha  occ. eigenvalues --   -1.60064  -1.39621  -1.19506  -1.08913  -1.06978
 Alpha  occ. eigenvalues --   -1.04899  -1.02227  -0.95758  -0.94679  -0.86301
 Alpha  occ. eigenvalues --   -0.85703  -0.82594  -0.78273  -0.77648  -0.76721
 Alpha  occ. eigenvalues --   -0.72254  -0.71377  -0.70614  -0.65162  -0.64902
 Alpha  occ. eigenvalues --   -0.63620  -0.62247  -0.59642  -0.58050  -0.56280
 Alpha  occ. eigenvalues --   -0.55404  -0.53978  -0.53232  -0.52991  -0.51443
 Alpha  occ. eigenvalues --   -0.51104  -0.49076  -0.49006  -0.48597  -0.46588
 Alpha  occ. eigenvalues --   -0.45304  -0.45043  -0.44285  -0.44088  -0.42428
 Alpha  occ. eigenvalues --   -0.37484  -0.36499
 Alpha virt. eigenvalues --    0.04874   0.11156   0.16375   0.21287   0.24238
 Alpha virt. eigenvalues --    0.25503   0.27212   0.27957   0.28266   0.28953
 Alpha virt. eigenvalues --    0.29341   0.30889   0.32340   0.32637   0.32952

 Mulliken charges:
               1
     1  C   -0.298013
     2  C   -0.297609
     3  C   -0.475165
     4  H    0.143480
     5  H    0.143754
     6  H    0.154907
     7  H    0.157064
     8  H    0.151327
     9  H    0.151861
    10  H    0.157075
    11  C   -0.306578
    12  C   -0.298563
    13  C   -0.474572
    14  H    0.149955
    15  H    0.176548
    16  H    0.145941
    17  H    0.146424
    18  H    0.160541
    19  H    0.154256
    20  H    0.152450
    21  C   -0.170515
    22  C   -0.218523
    23  C   -0.170758
    24  C    0.157654
    25  C   -0.170530
    26  C   -0.218583
    27  H    0.226168
    28  H    0.223975
    29  H    0.275542
    30  H    0.275995
    31  H    0.223992
    32  N    0.490080
    33  O   -0.458180
    34  O   -0.461401
 Sum of Mulliken charges =  -0.00000

 Dipole moment (field-independent basis, Debye):
    X=             -5.5338    Y=              0.1524    Z=              1.1576  Tot=              5.6556
 Quadrupole moment (field-independent basis, Debye-Ang):
   XX=            -69.8898   YY=            -93.8306   ZZ=            -93.1936
   XY=              0.9247   XZ=             -2.9218   YZ=              3.2801

 Normal termination of Gaussian 16 at Wed May  5 17:16:22 2021.
