 Gaussian 16, Revision A.03,
 Gaussian 16:  EM64L-G16RevA.03 25-Dec-2016

 -------------
 #p 6-31g* mp2
 -------------

 ------------------------------------------------------
 Input file generated by CHIRIPA (05-May-2021 14:55:20)
 ------------------------------------------------------
 Symbolic Z-matrix:
 Charge =  0 Multiplicity = 1

                         Standard orientation:
 ---------------------------------------------------------------------
 Center     Atomic      Atomic             Coordinates (Angstroms)
 Number     Number       Type             X           Y           Z
 ---------------------------------------------------------------------
      1          6           0        2.721638    2.303252    0.987183
      2          6           0        2.379813    1.131761    1.670767
      3          6           0        2.229547   -0.074801    0.980713
      4          6           0        2.429477   -0.073662   -0.398895
      5          6           0        2.770684    1.076849   -1.108256
      6          6           0        2.915641    2.272112   -0.397705
      7          1           0        2.836306    3.236150    1.531195
      8          1           0        2.228534    1.152970    2.746271
      9          1           0        1.965480   -0.996443    1.484958
     10          1           0        2.915014    1.024360   -2.180558
     11          1           0        3.181165    3.180365   -0.931201
     12          7           0        2.273207   -1.345014   -1.140274
     13          8           0        2.454810   -1.317545   -2.355553
     14          8           0        1.972079   -2.344896   -0.492050
     15          6           0       -3.579539   -0.176337   -0.272390
     16          6           0       -4.525866    1.021738   -0.356439
     17          6           0       -5.393209    1.002781   -1.615468
     18          1           0       -2.935894   -0.190262   -1.162600
     19          1           0       -4.169295   -1.103104   -0.298562
     20          1           0       -3.934595    1.945991   -0.328723
     21          1           0       -5.167203    1.032921    0.534167
     22          1           0       -6.007679    0.097203   -1.646362
     23          1           0       -4.768067    1.015461   -2.514154
     24          1           0       -6.062094    1.868154   -1.655249
     25          6           0       -2.705856   -0.171496    0.980760
     26          6           0       -1.759528   -1.369572    1.064808
     27          6           0       -0.892186   -1.350615    2.323836
     28          1           0       -2.116099    0.755271    1.006930
     29          1           0       -3.349501   -0.157572    1.870969
     30          1           0       -1.118192   -1.380755    0.174202
     31          1           0       -2.350800   -2.293825    1.037092
     32          1           0       -1.517328   -1.363295    3.222523
     33          1           0       -0.277716   -0.445037    2.354731
     34          1           0       -0.223301   -2.215988    2.363618
 ---------------------------------------------------------------------

 SCF Done:  E(RHF) =  -669.535066951     A.U. after   15 cycles
 E2 =    -0.2093088929D+01 EUMP2 =    -0.67162815587969D+03

 The electronic state is 1-A.
 Alpha  occ. eigenvalues --  -20.60867 -20.60855 -15.85898 -11.31216 -11.27815
 Alpha  occ. eigenvalues --  -11.27743 -11.27553 -11.26807 -11.26789 -11.21545
 Alpha  occ. eigenvalues --  -11.21430 -11.21312 -11.21236 -11.21172 -11.20992
 Alpha  occ. eigenvalues --   -1.59926  -1.39481  -1.19410  -1.08809  -1.08341
 Alpha  occ. eigenvalues --   -1.04815  -1.03469  -0.95977  -0.95632  -0.86999
 Alpha  occ. eigenvalues --   -0.86194  -0.82483  -0.79534  -0.78138  -0.77529
 Alpha  occ. eigenvalues --   -0.72119  -0.71247  -0.70524  -0.65069  -0.65007
 Alpha  occ. eigenvalues --   -0.64782  -0.62229  -0.60825  -0.59297  -0.57541
 Alpha  occ. eigenvalues --   -0.55441  -0.55166  -0.53131  -0.52948  -0.52574
 Alpha  occ. eigenvalues --   -0.52360  -0.49887  -0.48875  -0.48873  -0.47847
 Alpha  occ. eigenvalues --   -0.46554  -0.45697  -0.45618  -0.44846  -0.43722
 Alpha  occ. eigenvalues --   -0.37395  -0.36356
 Alpha virt. eigenvalues --    0.04971   0.11197   0.16351   0.21047   0.22999
 Alpha virt. eigenvalues --    0.24255   0.26463   0.26823   0.27286   0.27935
 Alpha virt. eigenvalues --    0.29391   0.29662   0.31503   0.31603   0.32184

 Mulliken charges:
               1
     1  C   -0.170478
     2  C   -0.221882
     3  C   -0.168908
     4  C    0.154709
     5  C   -0.170831
     6  C   -0.219123
     7  H    0.225923
     8  H    0.224607
     9  H    0.282865
    10  H    0.275611
    11  H    0.223544
    12  N    0.487971
    13  O   -0.459744
    14  O   -0.460367
    15  C   -0.298635
    16  C   -0.299321
    17  C   -0.475728
    18  H    0.152059
    19  H    0.150979
    20  H    0.149917
    21  H    0.151109
    22  H    0.156013
    23  H    0.156051
    24  H    0.159199
    25  C   -0.298860
    26  C   -0.299087
    27  C   -0.485016
    28  H    0.146869
    29  H    0.147957
    30  H    0.159105
    31  H    0.155354
    32  H    0.154770
    33  H    0.147270
    34  H    0.166099
 Sum of Mulliken charges =  -0.00000

 Dipole moment (field-independent basis, Debye):
    X=              0.5813    Y=              4.3930    Z=              2.5301  Tot=              5.1027
 Quadrupole moment (field-independent basis, Debye-Ang):
   XX=            -92.6044   YY=            -94.3855   ZZ=            -94.0985
   XY=             12.2969   XZ=              4.2884   YZ=             -4.4339

 Normal termination of Gaussian 16 at Thu May  6 04:32:25 2021.
