 Gaussian 16, Revision A.03,
 Gaussian 16:  EM64L-G16RevA.03 25-Dec-2016

 -------------
 #p 6-31g* mp2
 -------------

 ------------------------------------------------------
 Input file generated by CHIRIPA (05-May-2021 14:51:08)
 ------------------------------------------------------
 Symbolic Z-matrix:
 Charge =  0 Multiplicity = 1

                         Standard orientation:
 ---------------------------------------------------------------------
 Center     Atomic      Atomic             Coordinates (Angstroms)
 Number     Number       Type             X           Y           Z
 ---------------------------------------------------------------------
      1          6           0        3.457838    0.150508   -0.275813
      2          6           0        3.186908    1.641088   -0.482580
      3          6           0        1.713939    1.940970   -0.762270
      4          1           0        3.132677   -0.401980   -1.167986
      5          1           0        2.843478   -0.214371    0.558944
      6          1           0        3.802627    2.003357   -1.315807
      7          1           0        3.512928    2.190113    0.410112
      8          1           0        1.087738    1.606755    0.071261
      9          1           0        1.379083    1.418938   -1.664464
     10          1           0        1.542774    3.012249   -0.906919
     11          6           0        4.925948   -0.165172    0.004770
     12          6           0        5.196877   -1.655752    0.211537
     13          6           0        6.669847   -1.955634    0.491227
     14          1           0        5.540308    0.199707   -0.829987
     15          1           0        5.251109    0.387316    0.896943
     16          1           0        4.870857   -2.204777   -0.681155
     17          1           0        4.581159   -2.018021    1.044764
     18          1           0        7.004703   -1.433602    1.393421
     19          1           0        7.296048   -1.621419   -0.342304
     20          1           0        6.841011   -3.026913    0.635876
     21          6           0       -4.862505   -0.333382    0.268283
     22          6           0       -5.039618   -1.643505   -0.499957
     23          6           0       -6.386108   -2.313261   -0.223945
     24          1           0       -4.961830   -0.530491    1.344494
     25          1           0       -5.676779    0.353889   -0.000068
     26          1           0       -4.224477   -2.327591   -0.231283
     27          1           0       -4.939669   -1.443286   -1.574453
     28          1           0       -7.210856   -1.652187   -0.509208
     29          1           0       -6.491599   -2.541516    0.841593
     30          1           0       -6.491633   -3.248100   -0.783229
     31          6           0       -3.521281    0.348047    0.002760
     32          6           0       -3.344168    1.658169    0.771001
     33          6           0       -1.997677    2.327925    0.494988
     34          1           0       -2.707007   -0.339224    0.271110
     35          1           0       -3.421956    0.545156   -1.073450
     36          1           0       -3.444118    1.457950    1.845495
     37          1           0       -4.159310    2.342255    0.502326
     38          1           0       -1.892187    2.556181   -0.570551
     39          1           0       -1.172931    1.666851    0.780251
     40          1           0       -1.892152    3.262765    1.054271
 ---------------------------------------------------------------------

 SCF Done:  E(RHF) =  -470.732984549     A.U. after   11 cycles
 E2 =    -0.1582361329D+01 EUMP2 =    -0.47231534587709D+03

 The electronic state is 1-A.
 Alpha  occ. eigenvalues --  -11.21590 -11.21584 -11.21553 -11.21541 -11.21382
 Alpha  occ. eigenvalues --  -11.21377 -11.21322 -11.21317 -11.21063 -11.21058
 Alpha  occ. eigenvalues --  -11.20986 -11.20955  -1.08406  -1.08394  -1.03517
 Alpha  occ. eigenvalues --   -1.03470  -0.95996  -0.95889  -0.87051  -0.86868
 Alpha  occ. eigenvalues --   -0.79651  -0.79465  -0.78237  -0.78189  -0.65054
 Alpha  occ. eigenvalues --   -0.65013  -0.60976  -0.60822  -0.59324  -0.59296
 Alpha  occ. eigenvalues --   -0.57652  -0.57473  -0.55388  -0.55095  -0.52742
 Alpha  occ. eigenvalues --   -0.52601  -0.52511  -0.52159  -0.50059  -0.49711
 Alpha  occ. eigenvalues --   -0.48031  -0.47703  -0.46693  -0.46466  -0.45817
 Alpha  occ. eigenvalues --   -0.45711  -0.45699  -0.45591  -0.43773  -0.43722
 Alpha virt. eigenvalues --    0.22509   0.22995   0.23635   0.24717   0.25981
 Alpha virt. eigenvalues --    0.26744   0.26862   0.27609   0.27664   0.29143
 Alpha virt. eigenvalues --    0.29957   0.31425   0.31736   0.31963   0.32198

 Mulliken charges:
               1
     1  C   -0.298153
     2  C   -0.300067
     3  C   -0.477848
     4  H    0.149603
     5  H    0.148859
     6  H    0.151485
     7  H    0.151645
     8  H    0.159526
     9  H    0.154468
    10  H    0.160382
    11  C   -0.298207
    12  C   -0.299611
    13  C   -0.475685
    14  H    0.149548
    15  H    0.149591
    16  H    0.151910
    17  H    0.151755
    18  H    0.155153
    19  H    0.155192
    20  H    0.160177
    21  C   -0.298233
    22  C   -0.299620
    23  C   -0.475683
    24  H    0.149503
    25  H    0.149484
    26  H    0.151896
    27  H    0.151921
    28  H    0.155157
    29  H    0.155123
    30  H    0.160185
    31  C   -0.298106
    32  C   -0.300057
    33  C   -0.477277
    34  H    0.149329
    35  H    0.149740
    36  H    0.151417
    37  H    0.151617
    38  H    0.156514
    39  H    0.157734
    40  H    0.159633
 Sum of Mulliken charges =  -0.00000

 Dipole moment (field-independent basis, Debye):
    X=             -0.0076    Y=              0.0148    Z=             -0.0061  Tot=              0.0178
 Quadrupole moment (field-independent basis, Debye-Ang):
   XX=            -86.7152   YY=            -85.0262   ZZ=            -83.2103
   XY=             -0.4224   XZ=              0.0718   YZ=             -0.1732

 Normal termination of Gaussian 16 at Thu May  6 06:51:50 2021.
