 Gaussian 16, Revision A.03,
 Gaussian 16:  EM64L-G16RevA.03 25-Dec-2016

 -------------
 #p 6-31g* mp2
 -------------

 ------------------------------------------------------
 Input file generated by CHIRIPA (05-May-2021 14:55:22)
 ------------------------------------------------------
 Symbolic Z-matrix:
 Charge =  0 Multiplicity = 1

                         Standard orientation:
 ---------------------------------------------------------------------
 Center     Atomic      Atomic             Coordinates (Angstroms)
 Number     Number       Type             X           Y           Z
 ---------------------------------------------------------------------
      1          6           0        1.732542    1.046564   -0.291503
      2          6           0        1.967557   -0.324946   -0.149200
      3          6           0        3.269099   -0.809339    0.011735
      4          6           0        4.316840    0.110079    0.025813
      5          6           0        4.114929    1.482339   -0.113549
      6          6           0        2.805088    1.944247   -0.273255
      7          1           0        0.718250    1.414118   -0.416043
      8          1           0        1.136533   -1.024414   -0.162992
      9          1           0        3.479485   -1.866006    0.124033
     10          1           0        4.963665    2.155206   -0.095803
     11          1           0        2.625554    3.009915   -0.383545
     12          7           0        5.699118   -0.390824    0.195537
     13          8           0        6.605014    0.439782    0.204564
     14          8           0        5.850476   -1.604553    0.316326
     15          6           0       -4.709341   -0.700054   -0.317500
     16          6           0       -3.296020   -0.462949    0.215689
     17          6           0       -2.257670   -1.377674   -0.434620
     18          1           0       -4.986582   -1.749697   -0.149181
     19          1           0       -4.713885   -0.546168   -1.405477
     20          1           0       -3.294444   -0.615885    1.302531
     21          1           0       -3.022185    0.586299    0.046256
     22          1           0       -2.229901   -1.220104   -1.517671
     23          1           0       -2.503707   -2.429119   -0.254258
     24          1           0       -1.254437   -1.191286   -0.038838
     25          6           0       -5.758561    0.206912    0.323029
     26          6           0       -7.171882   -0.030192   -0.210159
     27          6           0       -8.210232    0.884532    0.440149
     28          1           0       -5.754017    0.053027    1.411006
     29          1           0       -5.481321    1.256556    0.154711
     30          1           0       -7.445717   -1.079440   -0.040726
     31          1           0       -7.173458    0.122743   -1.297002
     32          1           0       -7.964196    1.935977    0.259787
     33          1           0       -8.238002    0.726962    1.523201
     34          1           0       -9.213465    0.698145    0.044367
 ---------------------------------------------------------------------

 SCF Done:  E(RHF) =  -669.535505746     A.U. after   15 cycles
 E2 =    -0.2090778251D+01 EUMP2 =    -0.67162628399704D+03

 The electronic state is 1-A.
 Alpha  occ. eigenvalues --  -20.60728 -20.60723 -15.85781 -11.31141 -11.27713
 Alpha  occ. eigenvalues --  -11.27704 -11.27448 -11.26729 -11.26696 -11.22580
 Alpha  occ. eigenvalues --  -11.22279 -11.22141 -11.22111 -11.21989 -11.21504
 Alpha  occ. eigenvalues --   -1.59804  -1.39357  -1.19314  -1.09158  -1.08710
 Alpha  occ. eigenvalues --   -1.04717  -1.04292  -0.96753  -0.95545  -0.87776
 Alpha  occ. eigenvalues --   -0.86116  -0.82378  -0.80363  -0.78929  -0.77428
 Alpha  occ. eigenvalues --   -0.72000  -0.71127  -0.70422  -0.65781  -0.64967
 Alpha  occ. eigenvalues --   -0.64760  -0.62106  -0.61677  -0.60142  -0.58342
 Alpha  occ. eigenvalues --   -0.56019  -0.55218  -0.53554  -0.53197  -0.53045
 Alpha  occ. eigenvalues --   -0.52702  -0.50675  -0.48770  -0.48755  -0.48659
 Alpha  occ. eigenvalues --   -0.47379  -0.46481  -0.46377  -0.44764  -0.44539
 Alpha  occ. eigenvalues --   -0.37295  -0.36320
 Alpha virt. eigenvalues --    0.05110   0.11323   0.16604   0.19480   0.22422
 Alpha virt. eigenvalues --    0.23843   0.25613   0.25899   0.26689   0.27635
 Alpha virt. eigenvalues --    0.28756   0.29717   0.30725   0.31489   0.31828

 Mulliken charges:
               1
     1  C   -0.172925
     2  C   -0.224764
     3  C   -0.171731
     4  C    0.158918
     5  C   -0.171267
     6  C   -0.218590
     7  H    0.225861
     8  H    0.231915
     9  H    0.276046
    10  H    0.275436
    11  H    0.223182
    12  N    0.487926
    13  O   -0.460595
    14  O   -0.460441
    15  C   -0.299357
    16  C   -0.298793
    17  C   -0.481830
    18  H    0.152014
    19  H    0.150561
    20  H    0.155122
    21  H    0.148415
    22  H    0.158052
    23  H    0.161449
    24  H    0.151583
    25  C   -0.298697
    26  C   -0.300190
    27  C   -0.476060
    28  H    0.150764
    29  H    0.149345
    30  H    0.153077
    31  H    0.152494
    32  H    0.155313
    33  H    0.155928
    34  H    0.161838
 Sum of Mulliken charges =  -0.00000

 Dipole moment (field-independent basis, Debye):
    X=             -5.1266    Y=              1.7336    Z=             -0.6007  Tot=              5.4450
 Quadrupole moment (field-independent basis, Debye-Ang):
   XX=           -136.5468   YY=            -89.7896   ZZ=            -95.2759
   XY=              9.7739   XZ=             -2.6332   YZ=             -1.0494

 Normal termination of Gaussian 16 at Thu May  6 12:32:56 2021.
