 Gaussian 16, Revision A.03,
 Gaussian 16:  EM64L-G16RevA.03 25-Dec-2016

 -------------
 #p 6-31g* mp2
 -------------

 ------------------------------------------------------
 Input file generated by CHIRIPA (05-May-2021 14:55:21)
 ------------------------------------------------------
 Symbolic Z-matrix:
 Charge =  0 Multiplicity = 1

                         Standard orientation:
 ---------------------------------------------------------------------
 Center     Atomic      Atomic             Coordinates (Angstroms)
 Number     Number       Type             X           Y           Z
 ---------------------------------------------------------------------
      1          6           0       -0.875804   -1.477209    1.354517
      2          6           0       -0.599846   -0.177992    0.915879
      3          6           0       -1.579919    0.573314    0.260483
      4          6           0       -2.830732   -0.008376    0.059498
      5          6           0       -3.136227   -1.300329    0.484728
      6          6           0       -2.140883   -2.033251    1.137923
      7          1           0       -0.108528   -2.053701    1.862789
      8          1           0        0.381742    0.256398    1.082718
      9          1           0       -1.393240    1.581320   -0.089505
     10          1           0       -4.124095   -1.706363    0.303978
     11          1           0       -2.358021   -3.042010    1.477484
     12          7           0       -3.876375    0.777267   -0.633175
     13          8           0       -4.970429    0.242013   -0.798055
     14          8           0       -3.582096    1.913431   -0.998097
     15          6           0        3.662828    0.770859    0.180805
     16          6           0        2.907245    2.070399   -0.098974
     17          6           0        3.439141    3.250430    0.714911
     18          1           0        3.595966    0.538750    1.252532
     19          1           0        4.728717    0.919612   -0.040890
     20          1           0        1.842880    1.918828    0.121866
     21          1           0        2.975752    2.299340   -1.170192
     22          1           0        4.495017    3.430093    0.488092
     23          1           0        3.355709    3.047419    1.787491
     24          1           0        2.884749    4.169156    0.499386
     25          6           0        3.142668   -0.417939   -0.625372
     26          6           0        3.898251   -1.717478   -0.345594
     27          6           0        3.366356   -2.897510   -1.159479
     28          1           0        2.076780   -0.566691   -0.403678
     29          1           0        3.209531   -0.185831   -1.697099
     30          1           0        3.829744   -1.946420    0.725624
     31          1           0        4.962616   -1.565908   -0.566433
     32          1           0        3.449789   -2.694499   -2.232058
     33          1           0        2.310479   -3.077173   -0.932660
     34          1           0        3.920749   -3.816236   -0.943954
 ---------------------------------------------------------------------

 SCF Done:  E(RHF) =  -669.534797010     A.U. after   15 cycles
 E2 =    -0.2092873746D+01 EUMP2 =    -0.67162767075639D+03

 The electronic state is 1-A.
 Alpha  occ. eigenvalues --  -20.60775 -20.60770 -15.85829 -11.31215 -11.27786
 Alpha  occ. eigenvalues --  -11.27778 -11.27538 -11.26801 -11.26762 -11.22533
 Alpha  occ. eigenvalues --  -11.22370 -11.22267 -11.22161 -11.21761 -11.21737
 Alpha  occ. eigenvalues --   -1.59850  -1.39403  -1.19391  -1.09289  -1.08780
 Alpha  occ. eigenvalues --   -1.04797  -1.04318  -0.96740  -0.95613  -0.87751
 Alpha  occ. eigenvalues --   -0.86200  -0.82451  -0.80387  -0.79103  -0.77484
 Alpha  occ. eigenvalues --   -0.72048  -0.71173  -0.70497  -0.66123  -0.65043
 Alpha  occ. eigenvalues --   -0.64682  -0.62163  -0.61700  -0.60099  -0.58348
 Alpha  occ. eigenvalues --   -0.56048  -0.55290  -0.53424  -0.53191  -0.53082
 Alpha  occ. eigenvalues --   -0.52885  -0.50694  -0.48815  -0.48801  -0.48688
 Alpha  occ. eigenvalues --   -0.47456  -0.46588  -0.46527  -0.44804  -0.44574
 Alpha  occ. eigenvalues --   -0.37360  -0.36372
 Alpha virt. eigenvalues --    0.05041   0.11105   0.16480   0.18942   0.22821
 Alpha virt. eigenvalues --    0.23179   0.25441   0.26133   0.26982   0.27805
 Alpha virt. eigenvalues --    0.29732   0.30326   0.31064   0.31207   0.32354

 Mulliken charges:
               1
     1  C   -0.173189
     2  C   -0.221276
     3  C   -0.173714
     4  C    0.158647
     5  C   -0.170610
     6  C   -0.218301
     7  H    0.226220
     8  H    0.231592
     9  H    0.275967
    10  H    0.275830
    11  H    0.223649
    12  N    0.488132
    13  O   -0.460422
    14  O   -0.460110
    15  C   -0.300514
    16  C   -0.302261
    17  C   -0.476107
    18  H    0.145644
    19  H    0.154759
    20  H    0.141816
    21  H    0.158475
    22  H    0.158654
    23  H    0.154548
    24  H    0.164231
    25  C   -0.304948
    26  C   -0.299506
    27  C   -0.476016
    28  H    0.147421
    29  H    0.154810
    30  H    0.147569
    31  H    0.155258
    32  H    0.158812
    33  H    0.153193
    34  H    0.161748
 Sum of Mulliken charges =  -0.00000

 Dipole moment (field-independent basis, Debye):
    X=              3.8190    Y=             -2.7212    Z=              2.3429  Tot=              5.2420
 Quadrupole moment (field-independent basis, Debye-Ang):
   XX=           -112.8898   YY=            -92.5289   ZZ=            -94.8561
   XY=             10.8494   XZ=             -8.0563   YZ=             -1.2905

 Normal termination of Gaussian 16 at Wed May  5 22:13:04 2021.
