 Gaussian 16, Revision A.03,
 Gaussian 16:  EM64L-G16RevA.03 25-Dec-2016

 -------------
 #p 6-31g* mp2
 -------------

 ------------------------------------------------------
 Input file generated by CHIRIPA (05-May-2021 14:57:25)
 ------------------------------------------------------
 Symbolic Z-matrix:
 Charge =  0 Multiplicity = 1

                         Standard orientation:
 ---------------------------------------------------------------------
 Center     Atomic      Atomic             Coordinates (Angstroms)
 Number     Number       Type             X           Y           Z
 ---------------------------------------------------------------------
      1          6           0        2.432129    2.433122   -1.110456
      2          6           0        1.467575    1.456964   -1.381146
      3          6           0        1.601300    0.164422   -0.865395
      4          6           0        2.717136   -0.118667   -0.079228
      5          6           0        3.695156    0.832178    0.208283
      6          6           0        3.540886    2.118169   -0.318002
      7          1           0        2.320268    3.434656   -1.515195
      8          1           0        0.605468    1.698721   -1.996264
      9          1           0        0.869584   -0.610457   -1.059234
     10          1           0        4.543676    0.561256    0.824751
     11          1           0        4.291544    2.874256   -0.106133
     12          7           0        2.869580   -1.483556    0.472351
     13          8           0        3.861811   -1.707692    1.162190
     14          8           0        1.993948   -2.303376    0.204395
     15          6           0       -2.403186   -2.370152   -0.905690
     16          6           0       -1.733057   -2.070301    0.284913
     17          6           0       -1.885657   -0.819178    0.889852
     18          6           0       -2.719934    0.112579    0.274141
     19          6           0       -3.401046   -0.156205   -0.912085
     20          6           0       -3.233577   -1.413833   -1.499343
     21          1           0       -2.278867   -3.344582   -1.368754
     22          1           0       -1.087522   -2.811044    0.748193
     23          1           0       -1.378731   -0.560602    1.811580
     24          1           0       -4.037787    0.602718   -1.350282
     25          1           0       -3.755252   -1.643930   -2.423982
     26          7           0       -2.889356    1.440531    0.905204
     27          8           0       -3.630064    2.244092    0.342817
     28          8           0       -2.278232    1.652674    1.950269
 ---------------------------------------------------------------------

 SCF Done:  E(RHF) =  -868.340201278     A.U. after   16 cycles
 E2 =    -0.2600366092D+01 EUMP2 =    -0.87094056736954D+03

 The electronic state is 1-A.
 Alpha  occ. eigenvalues --  -20.61218 -20.61150 -20.60960 -20.60940 -15.86225
 Alpha  occ. eigenvalues --  -15.85999 -11.31293 -11.31284 -11.27851 -11.27828
 Alpha  occ. eigenvalues --  -11.27796 -11.27730 -11.27500 -11.27463 -11.26855
 Alpha  occ. eigenvalues --  -11.26768 -11.26755 -11.26608  -1.60257  -1.60034
 Alpha  occ. eigenvalues --   -1.39822  -1.39586  -1.19447  -1.19421  -1.08880
 Alpha  occ. eigenvalues --   -1.08825  -1.04817  -1.04759  -0.95766  -0.95677
 Alpha  occ. eigenvalues --   -0.86205  -0.86162  -0.82626  -0.82474  -0.77721
 Alpha  occ. eigenvalues --   -0.77536  -0.72464  -0.72209  -0.71570  -0.71367
 Alpha  occ. eigenvalues --   -0.70533  -0.70480  -0.65096  -0.65043  -0.64795
 Alpha  occ. eigenvalues --   -0.64693  -0.62162  -0.62080  -0.55300  -0.55240
 Alpha  occ. eigenvalues --   -0.53303  -0.53094  -0.52798  -0.52779  -0.49219
 Alpha  occ. eigenvalues --   -0.49175  -0.48976  -0.48959  -0.45295  -0.45006
 Alpha  occ. eigenvalues --   -0.37437  -0.37384  -0.36564  -0.36183
 Alpha virt. eigenvalues --    0.04705   0.05009   0.11056   0.11431   0.16277
 Alpha virt. eigenvalues --    0.16534   0.21376   0.21676   0.27257   0.27543
 Alpha virt. eigenvalues --    0.28309   0.28429   0.30939   0.31310   0.32327

 Mulliken charges:
               1
     1  C   -0.167875
     2  C   -0.219026
     3  C   -0.173592
     4  C    0.155938
     5  C   -0.169972
     6  C   -0.218239
     7  H    0.228300
     8  H    0.225058
     9  H    0.276410
    10  H    0.275301
    11  H    0.224628
    12  N    0.489307
    13  O   -0.457285
    14  O   -0.471787
    15  C   -0.175575
    16  C   -0.219318
    17  C   -0.176867
    18  C    0.155815
    19  C   -0.176067
    20  C   -0.220069
    21  H    0.229802
    22  H    0.243824
    23  H    0.278310
    24  H    0.273829
    25  H    0.223151
    26  N    0.487679
    27  O   -0.462894
    28  O   -0.458785
 Sum of Mulliken charges =  -0.00000

 Dipole moment (field-independent basis, Debye):
    X=              0.1787    Y=              0.0832    Z=             -4.0779  Tot=              4.0827
 Quadrupole moment (field-independent basis, Debye-Ang):
   XX=           -106.3045   YY=           -106.7774   ZZ=           -102.9981
   XY=             27.2622   XZ=              5.6587   YZ=             -2.3954

 Normal termination of Gaussian 16 at Thu May  6 03:31:12 2021.
