 Gaussian 16, Revision A.03,
 Gaussian 16:  EM64L-G16RevA.03 25-Dec-2016

 -------------
 #p 6-31g* mp2
 -------------

 ------------------------------------------------------
 Input file generated by CHIRIPA (05-May-2021 14:53:13)
 ------------------------------------------------------
 Symbolic Z-matrix:
 Charge =  0 Multiplicity = 1

                         Standard orientation:
 ---------------------------------------------------------------------
 Center     Atomic      Atomic             Coordinates (Angstroms)
 Number     Number       Type             X           Y           Z
 ---------------------------------------------------------------------
      1          6           0       -3.241228    0.894428    0.103047
      2          6           0       -3.527149    2.203035   -0.634369
      3          6           0       -2.414350    3.236569   -0.457512
      4          1           0       -3.102051    1.106195    1.172032
      5          1           0       -2.291338    0.477489   -0.259260
      6          1           0       -4.476907    2.616673   -0.271768
      7          1           0       -3.665852    1.988103   -1.701694
      8          1           0       -1.463726    2.847837   -0.836724
      9          1           0       -2.279389    3.479979    0.601326
     10          1           0       -2.639274    4.164274   -0.992892
     11          6           0       -4.344619   -0.148778   -0.064223
     12          6           0       -4.058697   -1.457384    0.673193
     13          6           0       -5.171497   -2.490918    0.496336
     14          1           0       -5.294509    0.268161    0.298084
     15          1           0       -4.483796   -0.360545   -1.133208
     16          1           0       -3.919995   -1.242452    1.740518
     17          1           0       -3.108940   -1.871023    0.310592
     18          1           0       -5.306457   -2.734329   -0.562502
     19          1           0       -6.122121   -2.102186    0.875548
     20          1           0       -4.946573   -3.418624    1.031716
     21          6           0        5.327230    0.465078    0.437961
     22          6           0        5.089113   -0.606175   -0.429355
     23          6           0        3.783391   -1.033792   -0.687775
     24          6           0        2.734678   -0.364390   -0.058973
     25          6           0        2.939609    0.706106    0.810125
     26          6           0        4.253611    1.116651    1.053847
     27          1           0        6.344763    0.790631    0.632998
     28          1           0        5.920962   -1.114065   -0.909065
     29          1           0        3.570539   -1.860314   -1.354838
     30          1           0        2.089955    1.192686    1.273530
     31          1           0        4.435547    1.948895    1.727876
     32          7           0        1.347986   -0.808054   -0.324770
     33          8           0        0.441314   -0.201670    0.241696
     34          8           0        1.194025   -1.753778   -1.094534
 ---------------------------------------------------------------------

 SCF Done:  E(RHF) =  -669.536370751     A.U. after   15 cycles
 E2 =    -0.2091128280D+01 EUMP2 =    -0.67162749903053D+03

 The electronic state is 1-A.
 Alpha  occ. eigenvalues --  -20.61028 -20.61012 -15.86044 -11.31331 -11.27891
 Alpha  occ. eigenvalues --  -11.27884 -11.27623 -11.26890 -11.26880 -11.20520
 Alpha  occ. eigenvalues --  -11.20313 -11.20180 -11.20133 -11.20055 -11.19809
 Alpha  occ. eigenvalues --   -1.60080  -1.39636  -1.19497  -1.08909  -1.07160
 Alpha  occ. eigenvalues --   -1.04887  -1.02407  -0.95756  -0.94862  -0.86289
 Alpha  occ. eigenvalues --   -0.85892  -0.82590  -0.78455  -0.77648  -0.76923
 Alpha  occ. eigenvalues --   -0.72262  -0.71390  -0.70605  -0.65153  -0.64890
 Alpha  occ. eigenvalues --   -0.63786  -0.62233  -0.59812  -0.58235  -0.56468
 Alpha  occ. eigenvalues --   -0.55394  -0.54154  -0.53221  -0.52978  -0.51620
 Alpha  occ. eigenvalues --   -0.51298  -0.49090  -0.49024  -0.48773  -0.46782
 Alpha  occ. eigenvalues --   -0.45484  -0.45064  -0.44519  -0.44244  -0.42608
 Alpha  occ. eigenvalues --   -0.37475  -0.36486
 Alpha virt. eigenvalues --    0.04869   0.11169   0.16365   0.21296   0.24109
 Alpha virt. eigenvalues --    0.25331   0.27224   0.27854   0.28146   0.28840
 Alpha virt. eigenvalues --    0.29193   0.30904   0.32266   0.32540   0.32898

 Mulliken charges:
               1
     1  C   -0.309277
     2  C   -0.298264
     3  C   -0.474761
     4  H    0.144245
     5  H    0.180280
     6  H    0.146573
     7  H    0.149626
     8  H    0.158483
     9  H    0.151201
    10  H    0.154392
    11  C   -0.297168
    12  C   -0.301054
    13  C   -0.475001
    14  H    0.143024
    15  H    0.147355
    16  H    0.148505
    17  H    0.164850
    18  H    0.153872
    19  H    0.151042
    20  H    0.157548
    21  C   -0.170467
    22  C   -0.218631
    23  C   -0.170484
    24  C    0.157484
    25  C   -0.170891
    26  C   -0.218564
    27  H    0.226158
    28  H    0.223917
    29  H    0.275839
    30  H    0.276435
    31  H    0.224113
    32  N    0.490589
    33  O   -0.461591
    34  O   -0.459383
 Sum of Mulliken charges =  -0.00000

 Dipole moment (field-independent basis, Debye):
    X=              5.2952    Y=              1.4264    Z=              0.9085  Tot=              5.5587
 Quadrupole moment (field-independent basis, Debye-Ang):
   XX=            -69.8363   YY=            -95.1287   ZZ=            -92.9748
   XY=              0.7023   XZ=              0.8541   YZ=              2.6047

 Normal termination of Gaussian 16 at Wed May  5 17:01:27 2021.
