 Gaussian 16, Revision A.03,
 Gaussian 16:  EM64L-G16RevA.03 25-Dec-2016

 -------------
 #p 6-31g* mp2
 -------------

 ------------------------------------------------------
 Input file generated by CHIRIPA (05-May-2021 14:57:22)
 ------------------------------------------------------
 Symbolic Z-matrix:
 Charge =  0 Multiplicity = 1

                         Standard orientation:
 ---------------------------------------------------------------------
 Center     Atomic      Atomic             Coordinates (Angstroms)
 Number     Number       Type             X           Y           Z
 ---------------------------------------------------------------------
      1          6           0       -2.416065   -1.955176    1.625782
      2          6           0       -1.521934   -0.913601    1.357137
      3          6           0       -1.915190    0.175365    0.573523
      4          6           0       -3.215924    0.190383    0.072370
      5          6           0       -4.129882   -0.832097    0.322380
      6          6           0       -3.714896   -1.911178    1.108459
      7          1           0       -2.102134   -2.797271    2.235470
      8          1           0       -0.512627   -0.945105    1.757577
      9          1           0       -1.243377    0.995189    0.349974
     10          1           0       -5.129502   -0.772606   -0.090706
     11          1           0       -4.411428   -2.718667    1.315460
     12          7           0       -3.643749    1.337990   -0.758511
     13          8           0       -4.795192    1.327509   -1.188286
     14          8           0       -2.819534    2.226235   -0.964249
     15          6           0        3.918673    1.914723    1.238815
     16          6           0        4.786365    0.853740    0.959628
     17          6           0        4.368638   -0.213115    0.158458
     18          6           0        3.070658   -0.186473   -0.349309
     19          6           0        2.182741    0.856216   -0.089130
     20          6           0        2.621916    1.912579    0.714470
     21          1           0        4.251504    2.739405    1.862126
     22          1           0        5.793998    0.852742    1.365486
     23          1           0        5.019716   -1.047194   -0.073545
     24          1           0        1.184119    0.829163   -0.507987
     25          1           0        1.945889    2.735221    0.929627
     26          7           0        2.617075   -1.310350   -1.198757
     27          8           0        1.468626   -1.263198   -1.634046
     28          8           0        3.418596   -2.217115   -1.413182
 ---------------------------------------------------------------------

 SCF Done:  E(RHF) =  -868.337650676     A.U. after   16 cycles
 E2 =    -0.2600201226D+01 EUMP2 =    -0.87093785190231D+03

 The electronic state is 1-A.
 Alpha  occ. eigenvalues --  -20.61190 -20.61180 -20.60741 -20.60719 -15.86237
 Alpha  occ. eigenvalues --  -15.85784 -11.31672 -11.31082 -11.28252 -11.28196
 Alpha  occ. eigenvalues --  -11.27919 -11.27729 -11.27596 -11.27315 -11.27233
 Alpha  occ. eigenvalues --  -11.27216 -11.26645 -11.26604  -1.60265  -1.59802
 Alpha  occ. eigenvalues --   -1.39814  -1.39363  -1.19829  -1.19226  -1.09200
 Alpha  occ. eigenvalues --   -1.08626  -1.05237  -1.04636  -0.96031  -0.95487
 Alpha  occ. eigenvalues --   -0.86621  -0.86039  -0.82855  -0.82334  -0.77920
 Alpha  occ. eigenvalues --   -0.77396  -0.72446  -0.72012  -0.71599  -0.71114
 Alpha  occ. eigenvalues --   -0.70931  -0.70346  -0.65468  -0.65225  -0.64890
 Alpha  occ. eigenvalues --   -0.64653  -0.62647  -0.61947  -0.55699  -0.55121
 Alpha  occ. eigenvalues --   -0.53562  -0.53322  -0.52916  -0.52736  -0.49214
 Alpha  occ. eigenvalues --   -0.49206  -0.48775  -0.48750  -0.45203  -0.44785
 Alpha  occ. eigenvalues --   -0.37793  -0.37163  -0.36850  -0.36200
 Alpha virt. eigenvalues --    0.04588   0.05145   0.10749   0.11420   0.16095
 Alpha virt. eigenvalues --    0.16665   0.19600   0.21999   0.24993   0.27520
 Alpha virt. eigenvalues --    0.27825   0.29478   0.30734   0.31188   0.31784

 Mulliken charges:
               1
     1  C   -0.169365
     2  C   -0.212073
     3  C   -0.168947
     4  C    0.160973
     5  C   -0.170325
     6  C   -0.217386
     7  H    0.226557
     8  H    0.221834
     9  H    0.263914
    10  H    0.275594
    11  H    0.223873
    12  N    0.488671
    13  O   -0.458977
    14  O   -0.464877
    15  C   -0.170997
    16  C   -0.218132
    17  C   -0.171092
    18  C    0.158676
    19  C   -0.182997
    20  C   -0.220190
    21  H    0.227990
    22  H    0.225251
    23  H    0.276673
    24  H    0.279217
    25  H    0.227414
    26  N    0.486889
    27  O   -0.458729
    28  O   -0.459439
 Sum of Mulliken charges =  -0.00000

 Dipole moment (field-independent basis, Debye):
    X=              3.1732    Y=             -0.1941    Z=              5.9238  Tot=              6.7230
 Quadrupole moment (field-independent basis, Debye-Ang):
   XX=            -95.8862   YY=           -106.9099   ZZ=           -107.8985
   XY=             25.8345   XZ=              0.5450   YZ=             -1.6942

 Normal termination of Gaussian 16 at Thu May  6 22:41:23 2021.
