 Gaussian 16, Revision A.03,
 Gaussian 16:  EM64L-G16RevA.03 25-Dec-2016

 -------------
 #p 6-31g* mp2
 -------------

 ------------------------------------------------------
 Input file generated by CHIRIPA (05-May-2021 14:57:25)
 ------------------------------------------------------
 Symbolic Z-matrix:
 Charge =  0 Multiplicity = 1

                         Standard orientation:
 ---------------------------------------------------------------------
 Center     Atomic      Atomic             Coordinates (Angstroms)
 Number     Number       Type             X           Y           Z
 ---------------------------------------------------------------------
      1          6           0        5.270981    0.808949   -1.205097
      2          6           0        5.425199   -0.316470   -0.388905
      3          6           0        4.331326   -0.849690    0.299330
      4          6           0        3.092091   -0.229508    0.147802
      5          6           0        2.906471    0.892826   -0.657928
      6          6           0        4.014324    1.408948   -1.336771
      7          1           0        6.126157    1.216526   -1.736086
      8          1           0        6.399950   -0.784508   -0.284764
      9          1           0        4.422509   -1.720025    0.937782
     10          1           0        1.922314    1.337570   -0.741921
     11          1           0        3.891600    2.283060   -1.969946
     12          7           0        1.926657   -0.784953    0.871435
     13          8           0        0.845423   -0.220152    0.721205
     14          8           0        2.116491   -1.774595    1.575145
     15          6           0       -2.601679    2.195804    1.261974
     16          6           0       -3.362425    2.321713    0.094954
     17          6           0       -3.746244    1.188399   -0.628115
     18          6           0       -3.350149   -0.060980   -0.153301
     19          6           0       -2.592126   -0.219077    1.005878
     20          6           0       -2.219631    0.928046    1.712916
     21          1           0       -2.307917    3.081554    1.817444
     22          1           0       -3.660558    3.305002   -0.257615
     23          1           0       -4.335125    1.257063   -1.534716
     24          1           0       -2.309992   -1.212639    1.332456
     25          1           0       -1.628818    0.827244    2.618909
     26          7           0       -3.750488   -1.268079   -0.910296
     27          8           0       -3.388813   -2.357496   -0.470978
     28          8           0       -4.418366   -1.101930   -1.928613
 ---------------------------------------------------------------------

 SCF Done:  E(RHF) =  -868.338725963     A.U. after   16 cycles
 E2 =    -0.2599748227D+01 EUMP2 =    -0.87093847418945D+03

 The electronic state is 1-A.
 Alpha  occ. eigenvalues --  -20.61278 -20.61251 -20.59812 -20.59783 -15.86290
 Alpha  occ. eigenvalues --  -15.84844 -11.31517 -11.30017 -11.28076 -11.28061
 Alpha  occ. eigenvalues --  -11.27789 -11.27059 -11.27043 -11.26674 -11.26436
 Alpha  occ. eigenvalues --  -11.26373 -11.25715 -11.25450  -1.60338  -1.58879
 Alpha  occ. eigenvalues --   -1.39895  -1.38436  -1.19679  -1.18194  -1.09103
 Alpha  occ. eigenvalues --   -1.07654  -1.05060  -1.03547  -0.95963  -0.94508
 Alpha  occ. eigenvalues --   -0.86465  -0.84987  -0.82801  -0.81328  -0.77861
 Alpha  occ. eigenvalues --   -0.76383  -0.72535  -0.71641  -0.71074  -0.70785
 Alpha  occ. eigenvalues --   -0.70195  -0.69356  -0.65336  -0.65064  -0.63855
 Alpha  occ. eigenvalues --   -0.63583  -0.62409  -0.60899  -0.55568  -0.54155
 Alpha  occ. eigenvalues --   -0.53396  -0.53152  -0.51917  -0.51659  -0.49296
 Alpha  occ. eigenvalues --   -0.49269  -0.47836  -0.47812  -0.45328  -0.43881
 Alpha  occ. eigenvalues --   -0.37651  -0.36657  -0.36232  -0.35057
 Alpha virt. eigenvalues --    0.04650   0.06136   0.11000   0.12516   0.16191
 Alpha virt. eigenvalues --    0.17642   0.21155   0.22500   0.27068   0.28033
 Alpha virt. eigenvalues --    0.28489   0.29366   0.30728   0.31989   0.32255

 Mulliken charges:
               1
     1  C   -0.170164
     2  C   -0.218539
     3  C   -0.170228
     4  C    0.157753
     5  C   -0.170972
     6  C   -0.218478
     7  H    0.226754
     8  H    0.224709
     9  H    0.276458
    10  H    0.275455
    11  H    0.223940
    12  N    0.491917
    13  O   -0.468182
    14  O   -0.458732
    15  C   -0.175261
    16  C   -0.220745
    17  C   -0.174233
    18  C    0.153837
    19  C   -0.155717
    20  C   -0.206551
    21  H    0.219528
    22  H    0.216756
    23  H    0.270447
    24  H    0.281191
    25  H    0.226388
    26  N    0.488042
    27  O   -0.459019
    28  O   -0.466352
 Sum of Mulliken charges =  -0.00000

 Dipole moment (field-independent basis, Debye):
    X=              5.9511    Y=              5.9917    Z=              0.2851  Tot=              8.4497
 Quadrupole moment (field-independent basis, Debye-Ang):
   XX=            -87.9371   YY=           -103.3605   ZZ=           -104.4695
   XY=            -12.5864   XZ=            -14.1429   YZ=             -3.9989

 Normal termination of Gaussian 16 at Fri May  7 05:03:02 2021.
