 Gaussian 16, Revision A.03,
 Gaussian 16:  EM64L-G16RevA.03 25-Dec-2016

 -------------
 #p 6-31g* mp2
 -------------

 ------------------------------------------------------
 Input file generated by CHIRIPA (05-May-2021 14:51:10)
 ------------------------------------------------------
 Symbolic Z-matrix:
 Charge =  0 Multiplicity = 1

                         Standard orientation:
 ---------------------------------------------------------------------
 Center     Atomic      Atomic             Coordinates (Angstroms)
 Number     Number       Type             X           Y           Z
 ---------------------------------------------------------------------
      1          6           0        3.718440   -0.450422    0.275346
      2          6           0        4.661154   -1.557395   -0.197821
      3          6           0        5.133648   -2.459173    0.942942
      4          1           0        4.227994    0.155748    1.036830
      5          1           0        2.848404   -0.905378    0.768750
      6          1           0        5.528483   -1.100531   -0.691412
      7          1           0        4.149365   -2.160883   -0.958406
      8          1           0        4.280736   -2.941718    1.431095
      9          1           0        5.667691   -1.875342    1.699606
     10          1           0        5.806479   -3.243478    0.582355
     11          6           0        3.237497    0.459388   -0.853666
     12          6           0        2.294783    1.566361   -0.380499
     13          6           0        1.822289    2.468139   -1.521262
     14          1           0        4.107533    0.914344   -1.347070
     15          1           0        2.727943   -0.146782   -1.615150
     16          1           0        2.806572    2.169849    0.380086
     17          1           0        1.427454    1.109497    0.113091
     18          1           0        1.288247    1.884308   -2.277926
     19          1           0        2.675201    2.950684   -2.009415
     20          1           0        1.149458    3.252444   -1.160676
     21          6           0       -4.043839   -0.217927   -0.177386
     22          6           0       -4.375451   -1.707800   -0.086301
     23          6           0       -5.509492   -2.119507   -1.025577
     24          1           0       -4.944620    0.366564    0.054795
     25          1           0       -3.770581    0.027115   -1.213088
     26          1           0       -4.646662   -1.950237    0.949211
     27          1           0       -3.473726   -2.288812   -0.318538
     28          1           0       -5.244575   -1.905908   -2.066152
     29          1           0       -6.424176   -1.565412   -0.791200
     30          1           0       -5.730100   -3.188418   -0.944214
     31          6           0       -2.912098    0.208961    0.755706
     32          6           0       -2.580486    1.698834    0.664621
     33          6           0       -1.446445    2.110541    1.603898
     34          1           0       -3.185357   -0.036081    1.791408
     35          1           0       -2.011317   -0.375530    0.523526
     36          1           0       -3.482211    2.279846    0.896858
     37          1           0       -2.309274    1.941272   -0.370890
     38          1           0       -0.531761    1.556446    1.369521
     39          1           0       -1.711362    1.896943    2.644473
     40          1           0       -1.225838    3.179453    1.522534
 ---------------------------------------------------------------------

 SCF Done:  E(RHF) =  -470.733275360     A.U. after   11 cycles
 E2 =    -0.1582680580D+01 EUMP2 =    -0.47231595593966D+03

 The electronic state is 1-A.
 Alpha  occ. eigenvalues --  -11.21618 -11.21615 -11.21611 -11.21599 -11.21422
 Alpha  occ. eigenvalues --  -11.21422 -11.21363 -11.21362 -11.21088 -11.21084
 Alpha  occ. eigenvalues --  -11.21079 -11.21039  -1.08455  -1.08435  -1.03567
 Alpha  occ. eigenvalues --   -1.03514  -0.96014  -0.95964  -0.87016  -0.86995
 Alpha  occ. eigenvalues --   -0.79664  -0.79547  -0.78287  -0.78230  -0.65147
 Alpha  occ. eigenvalues --   -0.65017  -0.61097  -0.60805  -0.59377  -0.59333
 Alpha  occ. eigenvalues --   -0.57623  -0.57583  -0.55360  -0.55189  -0.52705
 Alpha  occ. eigenvalues --   -0.52655  -0.52449  -0.52383  -0.50041  -0.49854
 Alpha  occ. eigenvalues --   -0.48037  -0.47821  -0.46807  -0.46478  -0.45878
 Alpha  occ. eigenvalues --   -0.45770  -0.45749  -0.45556  -0.43801  -0.43788
 Alpha virt. eigenvalues --    0.20924   0.23196   0.23511   0.25191   0.25758
 Alpha virt. eigenvalues --    0.26946   0.26966   0.27317   0.28091   0.28937
 Alpha virt. eigenvalues --    0.30223   0.31261   0.31601   0.31909   0.32498

 Mulliken charges:
               1
     1  C   -0.298305
     2  C   -0.299640
     3  C   -0.475735
     4  H    0.149923
     5  H    0.149152
     6  H    0.152011
     7  H    0.151839
     8  H    0.155229
     9  H    0.155273
    10  H    0.160283
    11  C   -0.297682
    12  C   -0.305161
    13  C   -0.476159
    14  H    0.149663
    15  H    0.149247
    16  H    0.152462
    17  H    0.156631
    18  H    0.154488
    19  H    0.155386
    20  H    0.161391
    21  C   -0.298315
    22  C   -0.299632
    23  C   -0.475713
    24  H    0.149815
    25  H    0.149560
    26  H    0.151982
    27  H    0.151707
    28  H    0.155186
    29  H    0.155261
    30  H    0.160271
    31  C   -0.298133
    32  C   -0.299870
    33  C   -0.481743
    34  H    0.149671
    35  H    0.148557
    36  H    0.151973
    37  H    0.152389
    38  H    0.161666
    39  H    0.155070
    40  H    0.159999
 Sum of Mulliken charges =  -0.00000

 Dipole moment (field-independent basis, Debye):
    X=              0.0107    Y=              0.0106    Z=              0.0044  Tot=              0.0157
 Quadrupole moment (field-independent basis, Debye-Ang):
   XX=            -84.4581   YY=            -85.1080   ZZ=            -85.1415
   XY=              0.3539   XZ=             -1.1699   YZ=              0.4867

 Normal termination of Gaussian 16 at Wed May  5 19:46:44 2021.
