 Gaussian 16, Revision A.03,
 Gaussian 16:  EM64L-G16RevA.03 25-Dec-2016

 -------------
 #p 6-31g* mp2
 -------------

 ------------------------------------------------------
 Input file generated by CHIRIPA (05-May-2021 14:53:13)
 ------------------------------------------------------
 Symbolic Z-matrix:
 Charge =  0 Multiplicity = 1

                         Standard orientation:
 ---------------------------------------------------------------------
 Center     Atomic      Atomic             Coordinates (Angstroms)
 Number     Number       Type             X           Y           Z
 ---------------------------------------------------------------------
      1          6           0        3.239881   -0.074341    0.194123
      2          6           0        3.238356   -1.340702   -0.662797
      3          6           0        3.804452   -2.554389    0.074967
      4          1           0        4.267159    0.139090    0.519841
      5          1           0        2.654306   -0.256294    1.105929
      6          1           0        3.822608   -1.155970   -1.573368
      7          1           0        2.210990   -1.551035   -0.986671
      8          1           0        3.217453   -2.766775    0.974370
      9          1           0        4.838228   -2.369465    0.384340
     10          1           0        3.793951   -3.448600   -0.556013
     11          6           0        2.676889    1.147542   -0.529598
     12          6           0        2.678413    2.413903    0.327322
     13          6           0        2.112318    3.627590   -0.410442
     14          1           0        3.262464    1.329495   -1.441403
     15          1           0        1.649611    0.934112   -0.855316
     16          1           0        3.705779    2.624236    0.651197
     17          1           0        2.094162    2.229171    1.237894
     18          1           0        1.078542    3.442666   -0.719814
     19          1           0        2.699316    3.839976   -1.309845
     20          1           0        2.122818    4.521801    0.220539
     21          6           0       -0.513325   -2.162791    0.436636
     22          6           0       -1.592730   -2.412536   -0.417197
     23          6           0       -2.594680   -1.453717   -0.594141
     24          6           0       -2.485054   -0.250657    0.101501
     25          6           0       -1.421985    0.027778    0.959201
     26          6           0       -0.431540   -0.945577    1.120904
     27          1           0        0.260546   -2.913271    0.568171
     28          1           0       -1.658847   -3.356946   -0.949892
     29          1           0       -3.441236   -1.620936   -1.248970
     30          1           0       -1.383504    0.978647    1.476681
     31          1           0        0.405596   -0.748883    1.784649
     32          7           0       -3.539683    0.772096   -0.077754
     33          8           0       -3.419946    1.824028    0.546536
     34          8           0       -4.466071    0.502432   -0.839151
 ---------------------------------------------------------------------

 SCF Done:  E(RHF) =  -669.535193629     A.U. after   15 cycles
 E2 =    -0.2093767415D+01 EUMP2 =    -0.67162896104390D+03

 The electronic state is 1-A.
 Alpha  occ. eigenvalues --  -20.60831 -20.60826 -15.85885 -11.31280 -11.27852
 Alpha  occ. eigenvalues --  -11.27842 -11.27579 -11.26865 -11.26855 -11.22379
 Alpha  occ. eigenvalues --  -11.22171 -11.22057 -11.22055 -11.21851 -11.21279
 Alpha  occ. eigenvalues --   -1.59906  -1.39459  -1.19458  -1.09097  -1.08828
 Alpha  occ. eigenvalues --   -1.04860  -1.04154  -0.96600  -0.95672  -0.87608
 Alpha  occ. eigenvalues --   -0.86257  -0.82504  -0.80224  -0.78866  -0.77548
 Alpha  occ. eigenvalues --   -0.72102  -0.71230  -0.70566  -0.65885  -0.65104
 Alpha  occ. eigenvalues --   -0.64750  -0.62194  -0.61555  -0.59985  -0.58192
 Alpha  occ. eigenvalues --   -0.56007  -0.55256  -0.53287  -0.53169  -0.53061
 Alpha  occ. eigenvalues --   -0.52893  -0.50539  -0.48867  -0.48856  -0.48527
 Alpha  occ. eigenvalues --   -0.47275  -0.46402  -0.46296  -0.44858  -0.44395
 Alpha  occ. eigenvalues --   -0.37400  -0.36443
 Alpha virt. eigenvalues --    0.04944   0.11104   0.16321   0.18691   0.22755
 Alpha virt. eigenvalues --    0.23573   0.24852   0.26354   0.26765   0.28324
 Alpha virt. eigenvalues --    0.29816   0.30686   0.31064   0.31288   0.31710

 Mulliken charges:
               1
     1  C   -0.297357
     2  C   -0.305740
     3  C   -0.476896
     4  H    0.152880
     5  H    0.138669
     6  H    0.156632
     7  H    0.153746
     8  H    0.145763
     9  H    0.160565
    10  H    0.161437
    11  C   -0.302095
    12  C   -0.298801
    13  C   -0.476815
    14  H    0.152100
    15  H    0.154854
    16  H    0.152990
    17  H    0.145025
    18  H    0.159498
    19  H    0.156265
    20  H    0.162499
    21  C   -0.173493
    22  C   -0.219723
    23  C   -0.170580
    24  C    0.158710
    25  C   -0.173313
    26  C   -0.218552
    27  H    0.229911
    28  H    0.224249
    29  H    0.276022
    30  H    0.276232
    31  H    0.227528
    32  N    0.488020
    33  O   -0.460171
    34  O   -0.460058
 Sum of Mulliken charges =  -0.00000

 Dipole moment (field-independent basis, Debye):
    X=              3.7330    Y=             -3.5273    Z=              0.5089  Tot=              5.1610
 Quadrupole moment (field-independent basis, Debye-Ang):
   XX=           -111.5909   YY=            -92.1584   ZZ=            -93.1998
   XY=             10.5081   XZ=             -0.2202   YZ=              1.9943

 Normal termination of Gaussian 16 at Thu May  6 20:18:13 2021.
