 Gaussian 16, Revision A.03,
 Gaussian 16:  EM64L-G16RevA.03 25-Dec-2016

 -------------
 #p 6-31g* mp2
 -------------

 ------------------------------------------------------
 Input file generated by CHIRIPA (05-May-2021 14:55:20)
 ------------------------------------------------------
 Symbolic Z-matrix:
 Charge =  0 Multiplicity = 1

                         Standard orientation:
 ---------------------------------------------------------------------
 Center     Atomic      Atomic             Coordinates (Angstroms)
 Number     Number       Type             X           Y           Z
 ---------------------------------------------------------------------
      1          6           0       -4.351691    2.485403   -0.069766
      2          6           0       -3.058723    2.242715   -0.545011
      3          6           0       -2.528171    0.949324   -0.530815
      4          6           0       -3.321840   -0.082530   -0.032160
      5          6           0       -4.613500    0.127356    0.448310
      6          6           0       -5.123592    1.428812    0.424507
      7          1           0       -4.755890    3.493273   -0.084525
      8          1           0       -2.456979    3.061349   -0.929442
      9          1           0       -1.530238    0.733286   -0.892582
     10          1           0       -5.189369   -0.709022    0.825489
     11          1           0       -6.128046    1.614336    0.794233
     12          7           0       -2.770998   -1.456054   -0.012046
     13          8           0       -3.490467   -2.347960    0.432369
     14          8           0       -1.630210   -1.614709   -0.441077
     15          6           0        5.056074    0.092318   -0.138413
     16          6           0        5.342735    1.462891    0.475867
     17          6           0        6.722730    2.002678    0.098986
     18          1           0        5.829885   -0.616885    0.185921
     19          1           0        5.136571    0.164262   -1.231911
     20          1           0        5.260361    1.388701    1.567804
     21          1           0        4.568044    2.168866    0.150186
     22          1           0        6.812771    2.105258   -0.987279
     23          1           0        7.509024    1.320660    0.438393
     24          1           0        6.906797    2.983324    0.548778
     25          6           0        3.680247   -0.460557    0.229229
     26          6           0        3.393586   -1.831130   -0.385049
     27          6           0        2.013591   -2.370916   -0.008169
     28          1           0        3.599749   -0.532501    1.322728
     29          1           0        2.906436    0.248646   -0.095104
     30          1           0        4.168278   -2.537105   -0.059370
     31          1           0        3.475960   -1.756940   -1.476987
     32          1           0        1.227299   -1.688899   -0.347577
     33          1           0        1.923550   -2.473497    1.078096
     34          1           0        1.829524   -3.351562   -0.457961
 ---------------------------------------------------------------------

 SCF Done:  E(RHF) =  -669.535721565     A.U. after   15 cycles
 E2 =    -0.2090770298D+01 EUMP2 =    -0.67162649186266D+03

 The electronic state is 1-A.
 Alpha  occ. eigenvalues --  -20.60855 -20.60850 -15.85899 -11.31253 -11.27827
 Alpha  occ. eigenvalues --  -11.27817 -11.27563 -11.26837 -11.26827 -11.21399
 Alpha  occ. eigenvalues --  -11.21042 -11.20921 -11.20897 -11.20799 -11.19781
 Alpha  occ. eigenvalues --   -1.59921  -1.39477  -1.19426  -1.08822  -1.07974
 Alpha  occ. eigenvalues --   -1.04828  -1.02970  -0.95664  -0.95381  -0.86392
 Alpha  occ. eigenvalues --   -0.86226  -0.82495  -0.79056  -0.77767  -0.77535
 Alpha  occ. eigenvalues --   -0.72124  -0.71239  -0.70536  -0.65083  -0.64832
 Alpha  occ. eigenvalues --   -0.64615  -0.62177  -0.60369  -0.58822  -0.56996
 Alpha  occ. eigenvalues --   -0.55330  -0.54668  -0.53157  -0.52922  -0.52049
 Alpha  occ. eigenvalues --   -0.51801  -0.49347  -0.48877  -0.48854  -0.47348
 Alpha  occ. eigenvalues --   -0.46115  -0.45302  -0.45226  -0.44840  -0.43231
 Alpha  occ. eigenvalues --   -0.37405  -0.36431
 Alpha virt. eigenvalues --    0.04984   0.11223   0.16469   0.21225   0.23238
 Alpha virt. eigenvalues --    0.24759   0.26680   0.27324   0.27697   0.28095
 Alpha virt. eigenvalues --    0.28950   0.30648   0.31736   0.32165   0.32554

 Mulliken charges:
               1
     1  C   -0.170729
     2  C   -0.218469
     3  C   -0.170339
     4  C    0.158002
     5  C   -0.170877
     6  C   -0.218512
     7  H    0.225848
     8  H    0.223635
     9  H    0.274816
    10  H    0.275832
    11  H    0.223694
    12  N    0.493575
    13  O   -0.459483
    14  O   -0.464618
    15  C   -0.297659
    16  C   -0.298771
    17  C   -0.475351
    18  H    0.149719
    19  H    0.148385
    20  H    0.151658
    21  H    0.148970
    22  H    0.154555
    23  H    0.155531
    24  H    0.158693
    25  C   -0.296223
    26  C   -0.300968
    27  C   -0.476844
    28  H    0.148942
    29  H    0.144816
    30  H    0.148861
    31  H    0.149055
    32  H    0.170679
    33  H    0.151690
    34  H    0.161887
 Sum of Mulliken charges =  -0.00000

 Dipole moment (field-independent basis, Debye):
    X=             -2.1771    Y=              4.7760    Z=             -0.0744  Tot=              5.2494
 Quadrupole moment (field-independent basis, Debye-Ang):
   XX=            -79.9222   YY=            -95.5779   ZZ=            -94.1459
   XY=            -15.2760   XZ=             -1.2154   YZ=             -1.2293

 Normal termination of Gaussian 16 at Wed May  5 20:32:56 2021.
