 Gaussian 16, Revision A.03,
 Gaussian 16:  EM64L-G16RevA.03 25-Dec-2016

 -------------
 #p 6-31g* mp2
 -------------

 ------------------------------------------------------
 Input file generated by CHIRIPA (05-May-2021 14:53:15)
 ------------------------------------------------------
 Symbolic Z-matrix:
 Charge =  0 Multiplicity = 1

                         Standard orientation:
 ---------------------------------------------------------------------
 Center     Atomic      Atomic             Coordinates (Angstroms)
 Number     Number       Type             X           Y           Z
 ---------------------------------------------------------------------
      1          6           0        3.492810   -0.602313   -0.416779
      2          6           0        2.916530   -1.831201    0.287295
      3          6           0        2.926582   -3.078272   -0.597299
      4          1           0        2.917418   -0.408751   -1.332423
      5          1           0        4.522069   -0.819384   -0.734428
      6          1           0        1.889141   -1.611398    0.604745
      7          1           0        3.493240   -2.021746    1.201469
      8          1           0        3.948300   -3.325215   -0.903422
      9          1           0        2.335087   -2.912535   -1.503536
     10          1           0        2.510318   -3.944872   -0.074242
     11          6           0        3.489552    0.652334    0.454759
     12          6           0        4.065832    1.881222   -0.249315
     13          6           0        4.055780    3.128293    0.635279
     14          1           0        2.460293    0.869405    0.772408
     15          1           0        4.064944    0.458772    1.370403
     16          1           0        3.489122    2.071767   -1.163489
     17          1           0        5.093221    1.661419   -0.566765
     18          1           0        4.647275    2.962556    1.541516
     19          1           0        3.034061    3.375236    0.941402
     20          1           0        4.472044    3.994893    0.112222
     21          6           0       -5.038770    0.990687   -0.072531
     22          6           0       -3.973076    1.644795   -0.699400
     23          6           0       -2.688223    1.094302   -0.673802
     24          6           0       -2.504039   -0.117205   -0.009259
     25          6           0       -3.545539   -0.792983    0.624690
     26          6           0       -4.821982   -0.223972    0.586351
     27          1           0       -6.033608    1.425516   -0.097366
     28          1           0       -4.138495    2.588236   -1.211845
     29          1           0       -1.845309    1.579446   -1.150823
     30          1           0       -3.349643   -1.732174    1.127642
     31          1           0       -5.647738   -0.734186    1.074053
     32          7           0       -1.148273   -0.709789    0.024586
     33          8           0       -1.012178   -1.778206    0.616700
     34          8           0       -0.247392   -0.094618   -0.541644
 ---------------------------------------------------------------------

 SCF Done:  E(RHF) =  -669.537235789     A.U. after   15 cycles
 E2 =    -0.2092773120D+01 EUMP2 =    -0.67163000890968D+03

 The electronic state is 1-A.
 Alpha  occ. eigenvalues --  -20.61306 -20.61291 -15.86272 -11.31488 -11.28029
 Alpha  occ. eigenvalues --  -11.28024 -11.27745 -11.27007 -11.26997 -11.20480
 Alpha  occ. eigenvalues --  -11.20238 -11.19848 -11.19579 -11.19393 -11.19297
 Alpha  occ. eigenvalues --   -1.60320  -1.39879  -1.19638  -1.09065  -1.06820
 Alpha  occ. eigenvalues --   -1.05014  -1.01990  -0.95922  -0.94505  -0.86420
 Alpha  occ. eigenvalues --   -0.85540  -0.82761  -0.78121  -0.77829  -0.76559
 Alpha  occ. eigenvalues --   -0.72478  -0.71611  -0.70745  -0.65294  -0.65023
 Alpha  occ. eigenvalues --   -0.63423  -0.62360  -0.59385  -0.57938  -0.56096
 Alpha  occ. eigenvalues --   -0.55519  -0.53793  -0.53352  -0.53102  -0.51273
 Alpha  occ. eigenvalues --   -0.50939  -0.49355  -0.49249  -0.48410  -0.46427
 Alpha  occ. eigenvalues --   -0.45363  -0.45051  -0.44137  -0.43813  -0.42227
 Alpha  occ. eigenvalues --   -0.37608  -0.36608
 Alpha virt. eigenvalues --    0.04673   0.11049   0.16188   0.21180   0.24369
 Alpha virt. eigenvalues --    0.25854   0.27127   0.27916   0.28397   0.29077
 Alpha virt. eigenvalues --    0.29450   0.30826   0.32318   0.32773   0.33115

 Mulliken charges:
               1
     1  C   -0.293743
     2  C   -0.309361
     3  C   -0.472739
     4  H    0.155258
     5  H    0.139039
     6  H    0.182836
     7  H    0.139608
     8  H    0.145169
     9  H    0.155371
    10  H    0.157036
    11  C   -0.299736
    12  C   -0.298389
    13  C   -0.474453
    14  H    0.158808
    15  H    0.143001
    16  H    0.150903
    17  H    0.148221
    18  H    0.153260
    19  H    0.152619
    20  H    0.155423
    21  C   -0.170119
    22  C   -0.218604
    23  C   -0.170617
    24  C    0.159881
    25  C   -0.170337
    26  C   -0.218630
    27  H    0.226762
    28  H    0.224576
    29  H    0.276007
    30  H    0.276351
    31  H    0.224555
    32  N    0.488942
    33  O   -0.456805
    34  O   -0.460090
 Sum of Mulliken charges =  -0.00000

 Dipole moment (field-independent basis, Debye):
    X=             -5.4306    Y=              2.0792    Z=             -0.1247  Tot=              5.8164
 Quadrupole moment (field-independent basis, Debye-Ang):
   XX=            -71.7229   YY=            -94.3947   ZZ=            -94.2982
   XY=             -3.3919   XZ=             -0.5221   YZ=             -3.2191

 Normal termination of Gaussian 16 at Thu May  6 02:42:49 2021.
