 Gaussian 16, Revision A.03,
 Gaussian 16:  EM64L-G16RevA.03 25-Dec-2016

 -------------
 #p 6-31g* mp2
 -------------

 ------------------------------------------------------
 Input file generated by CHIRIPA (05-May-2021 14:57:27)
 ------------------------------------------------------
 Symbolic Z-matrix:
 Charge =  0 Multiplicity = 1

                         Standard orientation:
 ---------------------------------------------------------------------
 Center     Atomic      Atomic             Coordinates (Angstroms)
 Number     Number       Type             X           Y           Z
 ---------------------------------------------------------------------
      1          6           0        3.534234   -2.324074   -0.309995
      2          6           0        2.541610   -1.359259   -0.109119
      3          6           0        2.883383   -0.015394    0.069111
      4          6           0        4.233628    0.330025    0.040567
      5          6           0        5.245676   -0.607962   -0.157493
      6          6           0        4.880725   -1.946013   -0.333500
      7          1           0        3.259734   -3.365763   -0.447584
      8          1           0        1.495103   -1.649976   -0.090390
      9          1           0        2.135286    0.752077    0.226456
     10          1           0        6.280406   -0.287703   -0.171167
     11          1           0        5.653743   -2.693148   -0.489311
     12          7           0        4.607716    1.749637    0.228074
     13          8           0        5.804444    2.028237    0.198710
     14          8           0        3.697116    2.556849    0.400856
     15          6           0       -1.992779   -1.358248    0.144951
     16          6           0       -2.301122   -0.632883   -1.010597
     17          6           0       -3.505646    0.070197   -1.107292
     18          6           0       -4.382650    0.025968   -0.024611
     19          6           0       -4.104017   -0.687607    1.140062
     20          6           0       -2.893623   -1.383251    1.214706
     21          1           0       -1.054796   -1.901529    0.211501
     22          1           0       -1.603414   -0.611678   -1.842942
     23          1           0       -3.769570    0.639802   -1.990079
     24          1           0       -4.819534   -0.689918    1.953357
     25          1           0       -2.656802   -1.945735    2.113356
     26          7           0       -5.660933    0.766351   -0.115306
     27          8           0       -6.416684    0.711491    0.852406
     28          8           0       -5.882895    1.387505   -1.152388
 ---------------------------------------------------------------------

 SCF Done:  E(RHF) =  -868.336356297     A.U. after   16 cycles
 E2 =    -0.2599609753D+01 EUMP2 =    -0.87093596605020D+03

 The electronic state is 1-A.
 Alpha  occ. eigenvalues --  -20.61282 -20.61276 -20.61103 -20.61098 -15.86344
 Alpha  occ. eigenvalues --  -15.86160 -11.31853 -11.31681 -11.28501 -11.28425
 Alpha  occ. eigenvalues --  -11.28265 -11.28248 -11.28241 -11.28184 -11.27643
 Alpha  occ. eigenvalues --  -11.27450 -11.27372 -11.27347  -1.60356  -1.60174
 Alpha  occ. eigenvalues --   -1.39905  -1.39723  -1.20062  -1.19877  -1.09433
 Alpha  occ. eigenvalues --   -1.09278  -1.05501  -1.05291  -0.96234  -0.96083
 Alpha  occ. eigenvalues --   -0.86898  -0.86701  -0.83080  -0.82894  -0.78095
 Alpha  occ. eigenvalues --   -0.77888  -0.72558  -0.72378  -0.71683  -0.71496
 Alpha  occ. eigenvalues --   -0.71170  -0.71087  -0.65721  -0.65577  -0.65528
 Alpha  occ. eigenvalues --   -0.65292  -0.62855  -0.62623  -0.56067  -0.55864
 Alpha  occ. eigenvalues --   -0.53806  -0.53639  -0.53576  -0.53395  -0.49331
 Alpha  occ. eigenvalues --   -0.49303  -0.49150  -0.49121  -0.45278  -0.45093
 Alpha  occ. eigenvalues --   -0.38050  -0.37917  -0.37106  -0.36877
 Alpha virt. eigenvalues --    0.04469   0.04620   0.10543   0.10755   0.15910
 Alpha virt. eigenvalues --    0.15985   0.17702   0.21904   0.24574   0.26803
 Alpha virt. eigenvalues --    0.27633   0.28685   0.29885   0.31518   0.32032

 Mulliken charges:
               1
     1  C   -0.171587
     2  C   -0.221868
     3  C   -0.172284
     4  C    0.159134
     5  C   -0.169553
     6  C   -0.218382
     7  H    0.226009
     8  H    0.216065
     9  H    0.277380
    10  H    0.278054
    11  H    0.225835
    12  N    0.488009
    13  O   -0.458443
    14  O   -0.458914
    15  C   -0.175860
    16  C   -0.219603
    17  C   -0.169583
    18  C    0.159724
    19  C   -0.169927
    20  C   -0.217903
    21  H    0.219423
    22  H    0.222826
    23  H    0.278196
    24  H    0.277722
    25  H    0.224806
    26  N    0.487903
    27  O   -0.458740
    28  O   -0.458437
 Sum of Mulliken charges =  -0.00000

 Dipole moment (field-independent basis, Debye):
    X=              3.1860    Y=             -7.4814    Z=             -0.3339  Tot=              8.1383
 Quadrupole moment (field-independent basis, Debye-Ang):
   XX=           -149.0137   YY=           -108.8545   ZZ=           -101.4950
   XY=            -11.2146   XZ=             -6.2670   YZ=             -1.9189

 Normal termination of Gaussian 16 at Thu May  6 05:13:23 2021.
