 Gaussian 16, Revision A.03,
 Gaussian 16:  EM64L-G16RevA.03 25-Dec-2016

 -------------
 #p 6-31g* mp2
 -------------

 ------------------------------------------------------
 Input file generated by CHIRIPA (05-May-2021 14:51:09)
 ------------------------------------------------------
 Symbolic Z-matrix:
 Charge =  0 Multiplicity = 1

                         Standard orientation:
 ---------------------------------------------------------------------
 Center     Atomic      Atomic             Coordinates (Angstroms)
 Number     Number       Type             X           Y           Z
 ---------------------------------------------------------------------
      1          6           0       -3.958009    0.101883   -0.336028
      2          6           0       -5.405072    0.285967    0.122346
      3          6           0       -6.337037    0.703578   -1.015563
      4          1           0       -3.598723    1.040100   -0.780558
      5          1           0       -3.926519   -0.653829   -1.133087
      6          1           0       -5.433646    1.040105    0.919262
      7          1           0       -5.760892   -0.652740    0.566011
      8          1           0       -6.338216   -0.050722   -1.809057
      9          1           0       -6.009110    1.651742   -1.453799
     10          1           0       -7.366399    0.829559   -0.665705
     11          6           0       -3.014200   -0.315605    0.790319
     12          6           0       -1.567137   -0.499689    0.331945
     13          6           0       -0.635173   -0.917300    1.469855
     14          1           0       -3.045690    0.440107    1.587378
     15          1           0       -3.373486   -1.253822    1.234849
     16          1           0       -1.211317    0.439018   -0.111719
     17          1           0       -1.538563   -1.253827   -0.464971
     18          1           0       -0.963099   -1.865464    1.908090
     19          1           0       -0.633993   -0.163001    2.263348
     20          1           0        0.394190   -1.043281    1.119996
     21          6           0        3.279886    0.814438   -0.427747
     22          6           0        4.016572    1.904568    0.351288
     23          6           0        3.593213    3.314659   -0.061274
     24          1           0        3.461881    0.953853   -1.502171
     25          1           0        2.198023    0.932586   -0.276067
     26          1           0        5.096791    1.783557    0.199298
     27          1           0        3.832958    1.762429    1.423994
     28          1           0        2.521131    3.459648    0.106711
     29          1           0        3.792144    3.480896   -1.124943
     30          1           0        4.132158    4.078363    0.508070
     31          6           0        3.692323   -0.600716   -0.026545
     32          6           0        2.955637   -1.690846   -0.805579
     33          6           0        3.378997   -3.100937   -0.393017
     34          1           0        4.774186   -0.718864   -0.178225
     35          1           0        3.510327   -0.740130    1.047878
     36          1           0        3.139251   -1.548707   -1.878285
     37          1           0        1.875418   -1.569835   -0.653588
     38          1           0        3.180065   -3.267174    0.670652
     39          1           0        4.451079   -3.245926   -0.561003
     40          1           0        2.840050   -3.864640   -0.962362
 ---------------------------------------------------------------------

 SCF Done:  E(RHF) =  -470.733291800     A.U. after   11 cycles
 E2 =    -0.1582990124D+01 EUMP2 =    -0.47231628192419D+03

 The electronic state is 1-A.
 Alpha  occ. eigenvalues --  -11.21664 -11.21621 -11.21597 -11.21589 -11.21440
 Alpha  occ. eigenvalues --  -11.21405 -11.21378 -11.21345 -11.21123 -11.21084
 Alpha  occ. eigenvalues --  -11.21073 -11.21065  -1.08473  -1.08427  -1.03581
 Alpha  occ. eigenvalues --   -1.03519  -0.96021  -0.95977  -0.87048  -0.86984
 Alpha  occ. eigenvalues --   -0.79637  -0.79586  -0.78285  -0.78237  -0.65111
 Alpha  occ. eigenvalues --   -0.65087  -0.61013  -0.60937  -0.59414  -0.59291
 Alpha  occ. eigenvalues --   -0.57627  -0.57583  -0.55331  -0.55235  -0.52753
 Alpha  occ. eigenvalues --   -0.52652  -0.52456  -0.52390  -0.49956  -0.49914
 Alpha  occ. eigenvalues --   -0.48000  -0.47861  -0.46669  -0.46609  -0.45824
 Alpha  occ. eigenvalues --   -0.45774  -0.45747  -0.45684  -0.43809  -0.43776
 Alpha virt. eigenvalues --    0.20051   0.23055   0.23955   0.24491   0.26242
 Alpha virt. eigenvalues --    0.26632   0.27003   0.27729   0.27879   0.29357
 Alpha virt. eigenvalues --    0.30421   0.31398   0.31567   0.31745   0.31906

 Mulliken charges:
               1
     1  C   -0.298359
     2  C   -0.299705
     3  C   -0.475739
     4  H    0.149771
     5  H    0.149684
     6  H    0.151954
     7  H    0.151987
     8  H    0.155243
     9  H    0.155250
    10  H    0.160323
    11  C   -0.298285
    12  C   -0.300345
    13  C   -0.483413
    14  H    0.149651
    15  H    0.149899
    16  H    0.152103
    17  H    0.152469
    18  H    0.155686
    19  H    0.155203
    20  H    0.166899
    21  C   -0.300087
    22  C   -0.299613
    23  C   -0.475666
    24  H    0.149728
    25  H    0.150991
    26  H    0.151937
    27  H    0.152209
    28  H    0.154970
    29  H    0.155165
    30  H    0.160256
    31  C   -0.299014
    32  C   -0.305434
    33  C   -0.475732
    34  H    0.149879
    35  H    0.150142
    36  H    0.152404
    37  H    0.156607
    38  H    0.155497
    39  H    0.155290
    40  H    0.160193
 Sum of Mulliken charges =  -0.00000

 Dipole moment (field-independent basis, Debye):
    X=             -0.0111    Y=             -0.0043    Z=             -0.0023  Tot=              0.0121
 Quadrupole moment (field-independent basis, Debye-Ang):
   XX=            -84.8364   YY=            -85.0620   ZZ=            -84.7942
   XY=              0.6672   XZ=             -1.0859   YZ=              0.6136

 Normal termination of Gaussian 16 at Wed May  5 19:44:45 2021.
