 Gaussian 16, Revision A.03,
 Gaussian 16:  EM64L-G16RevA.03 25-Dec-2016

 -------------
 #p 6-31g* mp2
 -------------

 ------------------------------------------------------
 Input file generated by CHIRIPA (05-May-2021 14:53:15)
 ------------------------------------------------------
 Symbolic Z-matrix:
 Charge =  0 Multiplicity = 1

                         Standard orientation:
 ---------------------------------------------------------------------
 Center     Atomic      Atomic             Coordinates (Angstroms)
 Number     Number       Type             X           Y           Z
 ---------------------------------------------------------------------
      1          6           0       -4.767128   -0.086266   -0.240731
      2          6           0       -5.485973    1.246695   -0.451590
      3          6           0       -6.719412    1.118155   -1.345961
      4          1           0       -4.472916   -0.495366   -1.216959
      5          1           0       -5.468508   -0.807156    0.201739
      6          1           0       -4.783059    1.965266   -0.892252
      7          1           0       -5.778339    1.652761    0.525266
      8          1           0       -7.442002    0.422007   -0.907962
      9          1           0       -6.441067    0.736286   -2.333535
     10          1           0       -7.217967    2.082740   -1.483360
     11          6           0       -3.532004    0.025984    0.651231
     12          6           0       -2.813159   -1.306977    0.862090
     13          6           0       -1.579720   -1.178437    1.756461
     14          1           0       -2.830624    0.746873    0.208761
     15          1           0       -3.826217    0.435083    1.627460
     16          1           0       -2.520793   -1.713044   -0.114766
     17          1           0       -3.516074   -2.025548    1.302753
     18          1           0       -1.858066   -0.796569    2.744035
     19          1           0       -0.857130   -0.482289    1.318462
     20          1           0       -1.081166   -2.143023    1.893860
     21          6           0        4.372787    2.227850    0.317090
     22          6           0        3.174071    1.902330    0.960237
     23          6           0        2.538666    0.683793    0.703378
     24          6           0        3.132513   -0.189556   -0.206509
     25          6           0        4.326103    0.106047   -0.863208
     26          6           0        4.943971    1.330252   -0.590978
     27          1           0        4.859574    3.176641    0.522594
     28          1           0        2.728192    2.597480    1.665931
     29          1           0        1.610024    0.406444    1.187237
     30          1           0        4.746444   -0.607330   -1.561653
     31          1           0        5.874843    1.580400   -1.091926
     32          7           0        2.469122   -1.482567   -0.486569
     33          8           0        3.012678   -2.234752   -1.292424
     34          8           0        1.418161   -1.719361    0.105078
 ---------------------------------------------------------------------

 SCF Done:  E(RHF) =  -669.535400935     A.U. after   15 cycles
 E2 =    -0.2091505606D+01 EUMP2 =    -0.67162690654072D+03

 The electronic state is 1-A.
 Alpha  occ. eigenvalues --  -20.60837 -20.60826 -15.85876 -11.31233 -11.27801
 Alpha  occ. eigenvalues --  -11.27792 -11.27543 -11.26816 -11.26805 -11.21329
 Alpha  occ. eigenvalues --  -11.20992 -11.20910 -11.20834 -11.20829 -11.20162
 Alpha  occ. eigenvalues --   -1.59910  -1.39464  -1.19406  -1.08805  -1.07961
 Alpha  occ. eigenvalues --   -1.04806  -1.03000  -0.95662  -0.95431  -0.86478
 Alpha  occ. eigenvalues --   -0.86205  -0.82474  -0.79096  -0.77786  -0.77503
 Alpha  occ. eigenvalues --   -0.72108  -0.71229  -0.70516  -0.65065  -0.64817
 Alpha  occ. eigenvalues --   -0.64585  -0.62165  -0.60383  -0.58827  -0.57051
 Alpha  occ. eigenvalues --   -0.55313  -0.54742  -0.53137  -0.52907  -0.52101
 Alpha  occ. eigenvalues --   -0.51891  -0.49480  -0.48861  -0.48787  -0.47396
 Alpha  occ. eigenvalues --   -0.46117  -0.45314  -0.45225  -0.44858  -0.43250
 Alpha  occ. eigenvalues --   -0.37388  -0.36409
 Alpha virt. eigenvalues --    0.04995   0.11234   0.16491   0.20941   0.23304
 Alpha virt. eigenvalues --    0.24453   0.25932   0.27273   0.27685   0.28011
 Alpha virt. eigenvalues --    0.29283   0.30392   0.31520   0.32197   0.32625

 Mulliken charges:
               1
     1  C   -0.298036
     2  C   -0.299065
     3  C   -0.475454
     4  H    0.150960
     5  H    0.149296
     6  H    0.150311
     7  H    0.150504
     8  H    0.155145
     9  H    0.155504
    10  H    0.158702
    11  C   -0.297704
    12  C   -0.300549
    13  C   -0.474565
    14  H    0.146019
    15  H    0.146346
    16  H    0.159400
    17  H    0.149403
    18  H    0.144106
    19  H    0.154930
    20  H    0.173009
    21  C   -0.170364
    22  C   -0.220892
    23  C   -0.173644
    24  C    0.155585
    25  C   -0.170230
    26  C   -0.218874
    27  H    0.225793
    28  H    0.224272
    29  H    0.283782
    30  H    0.275684
    31  H    0.223576
    32  N    0.491151
    33  O   -0.460123
    34  O   -0.463979
 Sum of Mulliken charges =  -0.00000

 Dipole moment (field-independent basis, Debye):
    X=              2.5008    Y=              4.4238    Z=              0.9274  Tot=              5.1657
 Quadrupole moment (field-independent basis, Debye-Ang):
   XX=            -78.8614   YY=            -96.6230   ZZ=            -93.6175
   XY=             13.5828   XZ=             -0.9494   YZ=             -0.3541

 Normal termination of Gaussian 16 at Thu May  6 15:27:58 2021.
