 Gaussian 16, Revision A.03,
 Gaussian 16:  EM64L-G16RevA.03 25-Dec-2016

 -------------
 #p 6-31g* mp2
 -------------

 ------------------------------------------------------
 Input file generated by CHIRIPA (05-May-2021 14:51:11)
 ------------------------------------------------------
 Symbolic Z-matrix:
 Charge =  0 Multiplicity = 1

                         Standard orientation:
 ---------------------------------------------------------------------
 Center     Atomic      Atomic             Coordinates (Angstroms)
 Number     Number       Type             X           Y           Z
 ---------------------------------------------------------------------
      1          6           0       -4.215009   -0.465597   -0.341380
      2          6           0       -5.516086   -1.047508    0.212303
      3          6           0       -5.775880   -2.476001   -0.266975
      4          1           0       -4.250151   -0.484837   -1.439260
      5          1           0       -3.377011   -1.111187   -0.044113
      6          1           0       -6.351219   -0.400262   -0.084753
      7          1           0       -5.477922   -1.026703    1.308992
      8          1           0       -4.962284   -3.140077    0.042325
      9          1           0       -5.840542   -2.510076   -1.359339
     10          1           0       -6.710995   -2.872445    0.140765
     11          6           0       -3.941415    0.961916    0.128810
     12          6           0       -2.640339    1.543827   -0.424873
     13          6           0       -2.380545    2.972321    0.054404
     14          1           0       -4.779414    1.607506   -0.168458
     15          1           0       -3.906274    0.981157    1.226689
     16          1           0       -2.678502    1.523023   -1.521562
     17          1           0       -1.805206    0.896581   -0.127818
     18          1           0       -2.315882    3.006395    1.146768
     19          1           0       -3.194141    3.636396   -0.254896
     20          1           0       -1.445429    3.368764   -0.353335
     21          6           0        3.405683    0.100039    0.006821
     22          6           0        2.249870   -0.596952    0.725351
     23          6           0        0.911031    0.111457    0.516881
     24          1           0        3.478468    1.136819    0.362817
     25          1           0        3.181447    0.153473   -1.067543
     26          1           0        2.476845   -0.650291    1.797849
     27          1           0        2.179949   -1.632251    0.367742
     28          1           0        0.658238    0.151922   -0.547571
     29          1           0        0.956822    1.139462    0.890661
     30          1           0        0.098719   -0.403561    1.039151
     31          6           0        4.750742   -0.596358    0.205750
     32          6           0        5.906554    0.100633   -0.512780
     33          6           0        7.245394   -0.607776   -0.304311
     34          1           0        4.974977   -0.649792    1.280114
     35          1           0        4.677957   -1.633139   -0.150247
     36          1           0        5.976475    1.135932   -0.155171
     37          1           0        5.679579    0.153972   -1.585278
     38          1           0        7.199603   -1.635781   -0.678091
     39          1           0        7.498186   -0.648241    0.760142
     40          1           0        8.057705   -0.092757   -0.826580
 ---------------------------------------------------------------------

 SCF Done:  E(RHF) =  -470.733095462     A.U. after   11 cycles
 E2 =    -0.1582728356D+01 EUMP2 =    -0.47231582381828D+03

 The electronic state is 1-A.
 Alpha  occ. eigenvalues --  -11.21640 -11.21619 -11.21563 -11.21433 -11.21406
 Alpha  occ. eigenvalues --  -11.21373 -11.21337 -11.21265 -11.21139 -11.21085
 Alpha  occ. eigenvalues --  -11.21045 -11.20968  -1.08462  -1.08349  -1.03576
 Alpha  occ. eigenvalues --   -1.03437  -0.96032  -0.95898  -0.87056  -0.86915
 Alpha  occ. eigenvalues --   -0.79703  -0.79453  -0.78285  -0.78142  -0.65090
 Alpha  occ. eigenvalues --   -0.64986  -0.60964  -0.60860  -0.59403  -0.59259
 Alpha  occ. eigenvalues --   -0.57650  -0.57493  -0.55307  -0.55201  -0.52766
 Alpha  occ. eigenvalues --   -0.52592  -0.52436  -0.52324  -0.49989  -0.49822
 Alpha  occ. eigenvalues --   -0.47985  -0.47793  -0.46690  -0.46511  -0.45858
 Alpha  occ. eigenvalues --   -0.45747  -0.45685  -0.45565  -0.43780  -0.43688
 Alpha virt. eigenvalues --    0.21926   0.22962   0.23775   0.24701   0.26077
 Alpha virt. eigenvalues --    0.26617   0.27070   0.27287   0.27893   0.29058
 Alpha virt. eigenvalues --    0.30894   0.31205   0.31521   0.31783   0.32351

 Mulliken charges:
               1
     1  C   -0.298233
     2  C   -0.299551
     3  C   -0.475644
     4  H    0.149474
     5  H    0.148994
     6  H    0.151922
     7  H    0.151770
     8  H    0.155002
     9  H    0.155091
    10  H    0.160111
    11  C   -0.297561
    12  C   -0.310740
    13  C   -0.475035
    14  H    0.148934
    15  H    0.148971
    16  H    0.150368
    17  H    0.167301
    18  H    0.154447
    19  H    0.154431
    20  H    0.159930
    21  C   -0.298616
    22  C   -0.300387
    23  C   -0.477746
    24  H    0.149741
    25  H    0.149720
    26  H    0.151948
    27  H    0.152118
    28  H    0.156957
    29  H    0.156834
    30  H    0.159180
    31  C   -0.298356
    32  C   -0.299650
    33  C   -0.475724
    34  H    0.149573
    35  H    0.149712
    36  H    0.151991
    37  H    0.151984
    38  H    0.155208
    39  H    0.155202
    40  H    0.160329
 Sum of Mulliken charges =  -0.00000

 Dipole moment (field-independent basis, Debye):
    X=              0.0613    Y=             -0.0122    Z=              0.0020  Tot=              0.0625
 Quadrupole moment (field-independent basis, Debye-Ang):
   XX=            -85.9103   YY=            -85.6647   ZZ=            -83.5098
   XY=              0.0577   XZ=              0.4040   YZ=             -0.0400

 Normal termination of Gaussian 16 at Wed May  5 23:07:10 2021.
