 Gaussian 16, Revision A.03,
 Gaussian 16:  EM64L-G16RevA.03 25-Dec-2016

 -------------
 #p 6-31g* mp2
 -------------

 ------------------------------------------------------
 Input file generated by CHIRIPA (05-May-2021 14:51:09)
 ------------------------------------------------------
 Symbolic Z-matrix:
 Charge =  0 Multiplicity = 1

                         Standard orientation:
 ---------------------------------------------------------------------
 Center     Atomic      Atomic             Coordinates (Angstroms)
 Number     Number       Type             X           Y           Z
 ---------------------------------------------------------------------
      1          6           0        4.430424   -0.230120    0.373040
      2          6           0        5.564003   -0.271327   -0.652281
      3          6           0        6.936154   -0.018317   -0.026997
      4          1           0        4.432313    0.748047    0.873171
      5          1           0        4.623072   -0.980142    1.152622
      6          1           0        5.368567    0.477599   -1.430439
      7          1           0        5.559295   -1.249441   -1.150164
      8          1           0        7.156820   -0.772053    0.735755
      9          1           0        6.965008    0.964800    0.453887
     10          1           0        7.731861   -0.052271   -0.777702
     11          6           0        3.052493   -0.481270   -0.236845
     12          6           0        1.918914   -0.440062    0.788477
     13          6           0        0.546762   -0.693073    0.163192
     14          1           0        2.859844    0.268753   -1.016427
     15          1           0        3.050604   -1.459437   -0.736975
     16          1           0        1.923622    0.538052    1.286360
     17          1           0        2.114350   -1.188989    1.566635
     18          1           0        0.517908   -1.676190   -0.317691
     19          1           0        0.326097    0.060663   -0.599559
     20          1           0       -0.248944   -0.659118    0.913898
     21          6           0       -3.543493    1.008715    0.275130
     22          6           0       -2.595568    1.869742   -0.560367
     23          6           0       -2.208615    3.172816    0.139676
     24          1           0       -4.449259    1.587155    0.503035
     25          1           0       -3.067371    0.780900    1.238875
     26          1           0       -3.072776    2.094710   -1.522801
     27          1           0       -1.692036    1.289119   -0.786471
     28          1           0       -1.709337    2.965166    1.091624
     29          1           0       -3.097922    3.775335    0.351111
     30          1           0       -1.530601    3.772875   -0.475210
     31          6           0       -3.939424   -0.297326   -0.411326
     32          6           0       -4.887348   -1.158352    0.424172
     33          6           0       -5.274302   -2.461426   -0.275872
     34          1           0       -4.415546   -0.069511   -1.375070
     35          1           0       -3.033657   -0.875766   -0.639231
     36          1           0       -5.790881   -0.577730    0.650275
     37          1           0       -4.410142   -1.383321    1.386606
     38          1           0       -4.384994   -3.063945   -0.487306
     39          1           0       -5.773580   -2.253778   -1.227820
     40          1           0       -5.952317   -3.061485    0.339015
 ---------------------------------------------------------------------

 SCF Done:  E(RHF) =  -470.733123922     A.U. after   11 cycles
 E2 =    -0.1583019144D+01 EUMP2 =    -0.47231614306646D+03

 The electronic state is 1-A.
 Alpha  occ. eigenvalues --  -11.21677 -11.21630 -11.21552 -11.21481 -11.21453
 Alpha  occ. eigenvalues --  -11.21391 -11.21334 -11.21274 -11.21177 -11.21093
 Alpha  occ. eigenvalues --  -11.21031 -11.21027  -1.08483  -1.08360  -1.03594
 Alpha  occ. eigenvalues --   -1.03464  -0.96044  -0.95923  -0.87072  -0.86932
 Alpha  occ. eigenvalues --   -0.79681  -0.79513  -0.78299  -0.78165  -0.65147
 Alpha  occ. eigenvalues --   -0.64975  -0.61102  -0.60772  -0.59402  -0.59294
 Alpha  occ. eigenvalues --   -0.57654  -0.57532  -0.55371  -0.55176  -0.52749
 Alpha  occ. eigenvalues --   -0.52613  -0.52477  -0.52343  -0.50092  -0.49790
 Alpha  occ. eigenvalues --   -0.48016  -0.47823  -0.46817  -0.46423  -0.45885
 Alpha  occ. eigenvalues --   -0.45775  -0.45694  -0.45499  -0.43829  -0.43720
 Alpha virt. eigenvalues --    0.20872   0.22967   0.23901   0.25076   0.25709
 Alpha virt. eigenvalues --    0.26423   0.26744   0.27716   0.27777   0.29240
 Alpha virt. eigenvalues --    0.30257   0.31341   0.31803   0.31893   0.32424

 Mulliken charges:
               1
     1  C   -0.298363
     2  C   -0.299706
     3  C   -0.475746
     4  H    0.149837
     5  H    0.149610
     6  H    0.152033
     7  H    0.151992
     8  H    0.155216
     9  H    0.155264
    10  H    0.160369
    11  C   -0.298700
    12  C   -0.299906
    13  C   -0.481059
    14  H    0.149892
    15  H    0.149787
    16  H    0.152418
    17  H    0.152169
    18  H    0.155565
    19  H    0.159437
    20  H    0.161179
    21  C   -0.297646
    22  C   -0.307019
    23  C   -0.475398
    24  H    0.149287
    25  H    0.148932
    26  H    0.151140
    27  H    0.160425
    28  H    0.154810
    29  H    0.155042
    30  H    0.159345
    31  C   -0.300531
    32  C   -0.299455
    33  C   -0.475676
    34  H    0.149198
    35  H    0.152671
    36  H    0.151734
    37  H    0.151517
    38  H    0.155261
    39  H    0.155076
    40  H    0.159999
 Sum of Mulliken charges =  -0.00000

 Dipole moment (field-independent basis, Debye):
    X=              0.0569    Y=             -0.0232    Z=             -0.0097  Tot=              0.0622
 Quadrupole moment (field-independent basis, Debye-Ang):
   XX=            -85.4978   YY=            -84.6289   ZZ=            -84.8352
   XY=             -0.9823   XZ=             -0.0798   YZ=             -0.7795

 Normal termination of Gaussian 16 at Wed May  5 18:09:11 2021.
