 Gaussian 16, Revision A.03,
 Gaussian 16:  EM64L-G16RevA.03 25-Dec-2016

 -------------
 #p 6-31g* mp2
 -------------

 ------------------------------------------------------
 Input file generated by CHIRIPA (05-May-2021 14:51:12)
 ------------------------------------------------------
 Symbolic Z-matrix:
 Charge =  0 Multiplicity = 1

                         Standard orientation:
 ---------------------------------------------------------------------
 Center     Atomic      Atomic             Coordinates (Angstroms)
 Number     Number       Type             X           Y           Z
 ---------------------------------------------------------------------
      1          6           0       -3.440012   -0.565361   -0.121331
      2          6           0       -4.642858   -1.507102   -0.055974
      3          6           0       -4.241191   -2.982069   -0.086490
      4          1           0       -2.869457   -0.772611   -1.037005
      5          1           0       -2.768215   -0.780897    0.721063
      6          1           0       -5.312872   -1.288922   -0.897457
      7          1           0       -5.210723   -1.297456    0.859555
      8          1           0       -3.590984   -3.221882    0.761048
      9          1           0       -3.693714   -3.213300   -1.005948
     10          1           0       -5.116363   -3.637552   -0.038793
     11          6           0       -3.825422    0.912581   -0.091746
     12          6           0       -2.622576    1.854321   -0.157103
     13          6           0       -3.024242    3.329288   -0.126587
     14          1           0       -4.497219    1.128117   -0.934140
     15          1           0       -4.395977    1.119831    0.823928
     16          1           0       -2.054711    1.644675   -1.072632
     17          1           0       -1.952561    1.636141    0.684380
     18          1           0       -3.571719    3.560519    0.792871
     19          1           0       -3.674449    3.569102   -0.974125
     20          1           0       -2.149070    3.984772   -0.174284
     21          6           0        4.262458   -0.474669   -0.203655
     22          6           0        5.535099    0.303952    0.131186
     23          6           0        6.786520   -0.310623   -0.496541
     24          1           0        4.374352   -1.512489    0.138917
     25          1           0        4.143306   -0.516936   -1.295174
     26          1           0        5.651079    0.345925    1.221783
     27          1           0        5.420088    1.340088   -0.212052
     28          1           0        6.696651   -0.337925   -1.587311
     29          1           0        6.928955   -1.337737   -0.145329
     30          1           0        7.684638    0.261778   -0.244348
     31          6           0        3.002975    0.127450    0.416732
     32          6           0        1.730334   -0.651172    0.081892
     33          6           0        0.478914   -0.036596    0.709617
     34          1           0        3.122127    0.169716    1.508250
     35          1           0        2.891081    1.165270    0.074160
     36          1           0        1.845346   -1.687307    0.425129
     37          1           0        1.614354   -0.693144   -1.008706
     38          1           0        0.336478    0.990518    0.358405
     39          1           0        0.568782   -0.009294    1.800387
     40          1           0       -0.419205   -0.608997    0.457425
 ---------------------------------------------------------------------

 SCF Done:  E(RHF) =  -470.731610879     A.U. after   11 cycles
 E2 =    -0.1583936852D+01 EUMP2 =    -0.47231554773099D+03

 The electronic state is 1-A.
 Alpha  occ. eigenvalues --  -11.21597 -11.21580 -11.21523 -11.21468 -11.21382
 Alpha  occ. eigenvalues --  -11.21367 -11.21318 -11.21307 -11.21079 -11.21055
 Alpha  occ. eigenvalues --  -11.21018 -11.20888  -1.08431  -1.08368  -1.03527
 Alpha  occ. eigenvalues --   -1.03453  -0.95969  -0.95928  -0.87004  -0.86940
 Alpha  occ. eigenvalues --   -0.79704  -0.79472  -0.78286  -0.78112  -0.65047
 Alpha  occ. eigenvalues --   -0.65017  -0.60943  -0.60849  -0.59369  -0.59294
 Alpha  occ. eigenvalues --   -0.57746  -0.57382  -0.55277  -0.55198  -0.52834
 Alpha  occ. eigenvalues --   -0.52523  -0.52481  -0.52235  -0.49967  -0.49849
 Alpha  occ. eigenvalues --   -0.48085  -0.47650  -0.46669  -0.46500  -0.45850
 Alpha  occ. eigenvalues --   -0.45733  -0.45670  -0.45541  -0.43782  -0.43556
 Alpha virt. eigenvalues --    0.22399   0.23040   0.24036   0.24246   0.25930
 Alpha virt. eigenvalues --    0.26554   0.26836   0.27237   0.27864   0.29346
 Alpha virt. eigenvalues --    0.30457   0.31221   0.31731   0.31786   0.32284

 Mulliken charges:
               1
     1  C   -0.302969
     2  C   -0.298699
     3  C   -0.475929
     4  H    0.149451
     5  H    0.153386
     6  H    0.151921
     7  H    0.151935
     8  H    0.154970
     9  H    0.155085
    10  H    0.160405
    11  C   -0.297671
    12  C   -0.304437
    13  C   -0.475555
    14  H    0.148994
    15  H    0.149243
    16  H    0.151057
    17  H    0.161250
    18  H    0.154890
    19  H    0.154646
    20  H    0.159425
    21  C   -0.298122
    22  C   -0.299559
    23  C   -0.475665
    24  H    0.149570
    25  H    0.149355
    26  H    0.151838
    27  H    0.151836
    28  H    0.155122
    29  H    0.155144
    30  H    0.160158
    31  C   -0.298546
    32  C   -0.299765
    33  C   -0.484249
    34  H    0.149228
    35  H    0.149408
    36  H    0.151239
    37  H    0.151296
    38  H    0.158478
    39  H    0.152634
    40  H    0.169200
 Sum of Mulliken charges =  -0.00000

 Dipole moment (field-independent basis, Debye):
    X=             -0.0316    Y=             -0.0019    Z=              0.0112  Tot=              0.0335
 Quadrupole moment (field-independent basis, Debye-Ang):
   XX=            -85.9972   YY=            -85.8923   ZZ=            -83.1971
   XY=              0.4562   XZ=              0.4804   YZ=             -0.6115

 Normal termination of Gaussian 16 at Thu May  6 07:06:24 2021.
