 Gaussian 16, Revision A.03,
 Gaussian 16:  EM64L-G16RevA.03 25-Dec-2016

 -------------
 #p 6-31g* mp2
 -------------

 ------------------------------------------------------
 Input file generated by CHIRIPA (05-May-2021 14:57:27)
 ------------------------------------------------------
 Symbolic Z-matrix:
 Charge =  0 Multiplicity = 1

                         Standard orientation:
 ---------------------------------------------------------------------
 Center     Atomic      Atomic             Coordinates (Angstroms)
 Number     Number       Type             X           Y           Z
 ---------------------------------------------------------------------
      1          6           0       -2.139335    1.717818    1.399937
      2          6           0       -2.304793    0.388780    1.803424
      3          6           0       -3.106517   -0.483871    1.061624
      4          6           0       -3.730803    0.008202   -0.083549
      5          6           0       -3.585524    1.326970   -0.511373
      6          6           0       -2.779101    2.181853    0.245861
      7          1           0       -1.514711    2.388813    1.982180
      8          1           0       -1.809157    0.025653    2.699264
      9          1           0       -3.251879   -1.517520    1.351208
     10          1           0       -4.092394    1.659966   -1.408934
     11          1           0       -2.652414    3.213504   -0.069881
     12          7           0       -4.582040   -0.906230   -0.877029
     13          8           0       -5.121234   -0.448241   -1.882092
     14          8           0       -4.693927   -2.063636   -0.478870
     15          6           0        1.209549   -0.483274    0.722020
     16          6           0        2.182311   -1.438723    1.034067
     17          6           0        3.504659   -1.269358    0.613046
     18          6           0        3.820692   -0.127552   -0.121594
     19          6           0        2.874089    0.842240   -0.448299
     20          6           0        1.557928    0.652156   -0.016865
     21          1           0        0.184720   -0.622890    1.053124
     22          1           0        1.914627   -2.321489    1.607753
     23          1           0        4.277667   -1.993277    0.840677
     24          1           0        3.171205    1.711946   -1.021668
     25          1           0        0.804557    1.395821   -0.260666
     26          7           0        5.217326    0.062714   -0.572823
     27          8           0        5.470191    1.077323   -1.218783
     28          8           0        6.032701   -0.806367   -0.271990
 ---------------------------------------------------------------------

 SCF Done:  E(RHF) =  -868.337101440     A.U. after   16 cycles
 E2 =    -0.2601648550D+01 EUMP2 =    -0.87093874998982D+03

 The electronic state is 1-A.
 Alpha  occ. eigenvalues --  -20.61680 -20.61672 -20.60985 -20.60979 -15.86744
 Alpha  occ. eigenvalues --  -15.86041 -11.32376 -11.31442 -11.29027 -11.28950
 Alpha  occ. eigenvalues --  -11.28790 -11.28088 -11.28032 -11.28013 -11.28010
 Alpha  occ. eigenvalues --  -11.27670 -11.27033 -11.27022  -1.60749  -1.60060
 Alpha  occ. eigenvalues --   -1.40295  -1.39612  -1.20606  -1.19618  -1.09946
 Alpha  occ. eigenvalues --   -1.08999  -1.06047  -1.05033  -0.96718  -0.95832
 Alpha  occ. eigenvalues --   -0.87415  -0.86424  -0.83548  -0.82667  -0.78543
 Alpha  occ. eigenvalues --   -0.77714  -0.72954  -0.72256  -0.72078  -0.71658
 Alpha  occ. eigenvalues --   -0.71385  -0.70752  -0.66238  -0.66017  -0.65266
 Alpha  occ. eigenvalues --   -0.65048  -0.63352  -0.62386  -0.56503  -0.55698
 Alpha  occ. eigenvalues --   -0.54208  -0.54066  -0.53359  -0.53113  -0.49734
 Alpha  occ. eigenvalues --   -0.49693  -0.49020  -0.49010  -0.45641  -0.45010
 Alpha  occ. eigenvalues --   -0.38606  -0.37649  -0.37578  -0.36647
 Alpha virt. eigenvalues --    0.03960   0.04824   0.09890   0.10996   0.15296
 Alpha virt. eigenvalues --    0.16292   0.19782   0.21697   0.25586   0.26674
 Alpha virt. eigenvalues --    0.27554   0.28730   0.29724   0.31196   0.32013

 Mulliken charges:
               1
     1  C   -0.174195
     2  C   -0.232450
     3  C   -0.171690
     4  C    0.160587
     5  C   -0.168182
     6  C   -0.222005
     7  H    0.231110
     8  H    0.226253
     9  H    0.278605
    10  H    0.280407
    11  H    0.228192
    12  N    0.488086
    13  O   -0.456428
    14  O   -0.458021
    15  C   -0.176263
    16  C   -0.220385
    17  C   -0.170119
    18  C    0.158481
    19  C   -0.170607
    20  C   -0.224968
    21  H    0.230232
    22  H    0.222989
    23  H    0.276332
    24  H    0.275109
    25  H    0.220943
    26  N    0.488032
    27  O   -0.460439
    28  O   -0.459604
 Sum of Mulliken charges =  -0.00000

 Dipole moment (field-independent basis, Debye):
    X=             -2.2790    Y=              2.5957    Z=              4.2962  Tot=              5.5126
 Quadrupole moment (field-independent basis, Debye-Ang):
   XX=           -164.3672   YY=            -98.2980   ZZ=           -103.6704
   XY=            -16.3796   XZ=             -2.4888   YZ=             -5.2571

 Normal termination of Gaussian 16 at Thu May  6 19:48:11 2021.
