 Gaussian 16, Revision A.03,
 Gaussian 16:  EM64L-G16RevA.03 25-Dec-2016

 -------------
 #p 6-31g* mp2
 -------------

 ------------------------------------------------------
 Input file generated by CHIRIPA (05-May-2021 14:51:10)
 ------------------------------------------------------
 Symbolic Z-matrix:
 Charge =  0 Multiplicity = 1

                         Standard orientation:
 ---------------------------------------------------------------------
 Center     Atomic      Atomic             Coordinates (Angstroms)
 Number     Number       Type             X           Y           Z
 ---------------------------------------------------------------------
      1          6           0       -2.631221   -0.323106    0.286448
      2          6           0       -2.163067   -1.728196    0.666633
      3          6           0       -0.661928   -1.794845    0.949357
      4          1           0       -2.074652    0.015052   -0.598326
      5          1           0       -2.378974    0.372254    1.099000
      6          1           0       -2.417361   -2.420949   -0.145798
      7          1           0       -2.720952   -2.063124    1.550490
      8          1           0       -0.395234   -1.126311    1.774304
      9          1           0       -0.089918   -1.486169    0.068378
     10          1           0       -0.348828   -2.808269    1.219171
     11          6           0       -4.129654   -0.240387    0.000819
     12          6           0       -4.597807    1.164702   -0.379366
     13          6           0       -6.098946    1.231352   -0.662090
     14          1           0       -4.381900   -0.935747   -0.811733
     15          1           0       -4.686223   -0.578545    0.885593
     16          1           0       -4.039922    1.499631   -1.263223
     17          1           0       -4.343514    1.857456    0.433065
     18          1           0       -6.670956    0.922676    0.218889
     19          1           0       -6.365640    0.562818   -1.487037
     20          1           0       -6.412046    2.244776   -0.931904
     21          6           0        3.653462    0.974983   -0.311898
     22          6           0        3.064378    2.086173    0.557712
     23          6           0        3.620346    3.467177    0.209111
     24          1           0        4.746333    0.970830   -0.199840
     25          1           0        3.448403    1.197892   -1.368145
     26          1           0        3.269283    1.860528    1.612090
     27          1           0        1.972765    2.087557    0.443716
     28          1           0        3.403093    3.717785   -0.834248
     29          1           0        4.706978    3.489465    0.340764
     30          1           0        3.185772    4.246570    0.842794
     31          6           0        3.107413   -0.411490    0.024632
     32          6           0        3.696497   -1.522679   -0.844979
     33          6           0        3.140529   -2.903684   -0.496379
     34          1           0        3.312471   -0.634398    1.080879
     35          1           0        2.014540   -0.407337   -0.087428
     36          1           0        4.788110   -1.524064   -0.730984
     37          1           0        3.491591   -1.297035   -1.899358
     38          1           0        2.053896   -2.925972   -0.628032
     39          1           0        3.357781   -3.154290    0.546980
     40          1           0        3.575102   -3.683076   -1.130060
 ---------------------------------------------------------------------

 SCF Done:  E(RHF) =  -470.732806511     A.U. after   11 cycles
 E2 =    -0.1583158272D+01 EUMP2 =    -0.47231596478275D+03

 The electronic state is 1-A.
 Alpha  occ. eigenvalues --  -11.21625 -11.21621 -11.21556 -11.21532 -11.21437
 Alpha  occ. eigenvalues --  -11.21377 -11.21327 -11.21243 -11.21089 -11.21075
 Alpha  occ. eigenvalues --  -11.21039 -11.20971  -1.08461  -1.08362  -1.03563
 Alpha  occ. eigenvalues --   -1.03463  -0.96009  -0.95914  -0.87029  -0.86932
 Alpha  occ. eigenvalues --   -0.79678  -0.79489  -0.78306  -0.78130  -0.65124
 Alpha  occ. eigenvalues --   -0.64979  -0.61032  -0.60805  -0.59382  -0.59282
 Alpha  occ. eigenvalues --   -0.57658  -0.57489  -0.55308  -0.55202  -0.52715
 Alpha  occ. eigenvalues --   -0.52626  -0.52499  -0.52265  -0.49990  -0.49858
 Alpha  occ. eigenvalues --   -0.48039  -0.47794  -0.46770  -0.46479  -0.45954
 Alpha  occ. eigenvalues --   -0.45748  -0.45672  -0.45335  -0.43801  -0.43717
 Alpha virt. eigenvalues --    0.21594   0.23073   0.23701   0.24697   0.25917
 Alpha virt. eigenvalues --    0.26708   0.27097   0.27369   0.28087   0.29540
 Alpha virt. eigenvalues --    0.30676   0.31583   0.31636   0.31937   0.32155

 Mulliken charges:
               1
     1  C   -0.298355
     2  C   -0.299921
     3  C   -0.480202
     4  H    0.148826
     5  H    0.149700
     6  H    0.151806
     7  H    0.152079
     8  H    0.156192
     9  H    0.158809
    10  H    0.161776
    11  C   -0.298254
    12  C   -0.299673
    13  C   -0.475725
    14  H    0.149575
    15  H    0.149841
    16  H    0.151821
    17  H    0.151997
    18  H    0.155255
    19  H    0.155210
    20  H    0.160322
    21  C   -0.297718
    22  C   -0.299669
    23  C   -0.475609
    24  H    0.149343
    25  H    0.148855
    26  H    0.151754
    27  H    0.152098
    28  H    0.155025
    29  H    0.155100
    30  H    0.160038
    31  C   -0.304287
    32  C   -0.299572
    33  C   -0.478839
    34  H    0.149276
    35  H    0.156940
    36  H    0.151589
    37  H    0.150874
    38  H    0.159371
    39  H    0.154999
    40  H    0.159353
 Sum of Mulliken charges =  -0.00000

 Dipole moment (field-independent basis, Debye):
    X=             -0.0434    Y=             -0.0135    Z=              0.0265  Tot=              0.0526
 Quadrupole moment (field-independent basis, Debye-Ang):
   XX=            -85.6228   YY=            -85.9654   ZZ=            -83.4013
   XY=             -0.2263   XZ=              0.1769   YZ=              0.2693

 Normal termination of Gaussian 16 at Wed May  5 15:11:42 2021.
