 Gaussian 16, Revision A.03,
 Gaussian 16:  EM64L-G16RevA.03 25-Dec-2016

 -------------
 #p 6-31g* mp2
 -------------

 ------------------------------------------------------
 Input file generated by CHIRIPA (05-May-2021 14:55:19)
 ------------------------------------------------------
 Symbolic Z-matrix:
 Charge =  0 Multiplicity = 1

                         Standard orientation:
 ---------------------------------------------------------------------
 Center     Atomic      Atomic             Coordinates (Angstroms)
 Number     Number       Type             X           Y           Z
 ---------------------------------------------------------------------
      1          6           0       -3.908469    0.698680    1.509013
      2          6           0       -4.177922    0.590233    0.140746
      3          6           0       -3.302308   -0.099869   -0.702823
      4          6           0       -2.161453   -0.671881   -0.141983
      5          6           0       -1.865378   -0.581149    1.217207
      6          6           0       -2.755091    0.113674    2.041938
      7          1           0       -4.594142    1.236602    2.157001
      8          1           0       -5.072884    1.043553   -0.275893
      9          1           0       -3.486545   -0.199106   -1.765662
     10          1           0       -0.965162   -1.043609    1.603418
     11          1           0       -2.543276    0.196295    3.104177
     12          7           0       -1.227018   -1.404960   -1.025060
     13          8           0       -0.228739   -1.899981   -0.506378
     14          8           0       -1.510579   -1.470646   -2.219177
     15          6           0        2.784901    1.382673   -0.308983
     16          6           0        1.279349    1.643807   -0.364708
     17          6           0        0.937318    3.002790   -0.976244
     18          1           0        3.267622    2.179995    0.272569
     19          1           0        3.198311    1.442967   -1.325276
     20          1           0        0.868671    1.581670    0.651215
     21          1           0        0.800132    0.845666   -0.946033
     22          1           0        1.319874    3.071946   -1.999704
     23          1           0        1.388802    3.812131   -0.393380
     24          1           0       -0.144071    3.168775   -1.006325
     25          6           0        3.142675    0.028043    0.299872
     26          6           0        4.648228   -0.233092    0.355597
     27          6           0        4.990257   -1.592075    0.967132
     28          1           0        2.729264   -0.032252    1.316165
     29          1           0        2.659954   -0.769280   -0.281680
     30          1           0        5.127444    0.565049    0.936922
     31          1           0        5.058905   -0.170956   -0.660326
     32          1           0        4.538774   -2.401417    0.384269
     33          1           0        4.607703   -1.661231    1.990592
     34          1           0        6.071647   -1.758059    0.997214
 ---------------------------------------------------------------------

 SCF Done:  E(RHF) =  -669.536096002     A.U. after   15 cycles
 E2 =    -0.2092793686D+01 EUMP2 =    -0.67162888968756D+03

 The electronic state is 1-A.
 Alpha  occ. eigenvalues --  -20.60927 -20.60919 -15.85941 -11.31247 -11.27818
 Alpha  occ. eigenvalues --  -11.27809 -11.27554 -11.26819 -11.26809 -11.21165
 Alpha  occ. eigenvalues --  -11.20969 -11.20824 -11.20770 -11.20551 -11.20463
 Alpha  occ. eigenvalues --   -1.59988  -1.39541  -1.19418  -1.08828  -1.07825
 Alpha  occ. eigenvalues --   -1.04814  -1.03009  -0.95674  -0.95445  -0.86469
 Alpha  occ. eigenvalues --   -0.86213  -0.82510  -0.79090  -0.77685  -0.77495
 Alpha  occ. eigenvalues --   -0.72173  -0.71307  -0.70530  -0.65077  -0.64820
 Alpha  occ. eigenvalues --   -0.64442  -0.62161  -0.60405  -0.58834  -0.57062
 Alpha  occ. eigenvalues --   -0.55323  -0.54725  -0.53139  -0.52907  -0.52182
 Alpha  occ. eigenvalues --   -0.51871  -0.49385  -0.48938  -0.48935  -0.47411
 Alpha  occ. eigenvalues --   -0.46127  -0.45427  -0.45137  -0.44545  -0.43227
 Alpha  occ. eigenvalues --   -0.37387  -0.36402
 Alpha virt. eigenvalues --    0.04929   0.11218   0.16408   0.21254   0.23405
 Alpha virt. eigenvalues --    0.24737   0.26477   0.27432   0.27609   0.28299
 Alpha virt. eigenvalues --    0.28997   0.31113   0.31780   0.32109   0.32287

 Mulliken charges:
               1
     1  C   -0.170365
     2  C   -0.218778
     3  C   -0.171048
     4  C    0.157786
     5  C   -0.169185
     6  C   -0.219347
     7  H    0.225860
     8  H    0.223653
     9  H    0.275701
    10  H    0.276437
    11  H    0.223643
    12  N    0.488584
    13  O   -0.459132
    14  O   -0.459233
    15  C   -0.297528
    16  C   -0.302462
    17  C   -0.475160
    18  H    0.145343
    19  H    0.150663
    20  H    0.144751
    21  H    0.159323
    22  H    0.157137
    23  H    0.152674
    24  H    0.156306
    25  C   -0.303802
    26  C   -0.299288
    27  C   -0.475542
    28  H    0.141350
    29  H    0.172215
    30  H    0.147669
    31  H    0.151936
    32  H    0.160426
    33  H    0.151944
    34  H    0.157468
 Sum of Mulliken charges =  -0.00000

 Dipole moment (field-independent basis, Debye):
    X=             -3.4125    Y=              2.4085    Z=              3.0044  Tot=              5.1452
 Quadrupole moment (field-independent basis, Debye-Ang):
   XX=            -79.8069   YY=            -99.8712   ZZ=            -92.1422
   XY=             -4.0801   XZ=             -4.2793   YZ=             -2.4908

 Normal termination of Gaussian 16 at Thu May  6 20:37:27 2021.
