 Gaussian 16, Revision A.03,
 Gaussian 16:  EM64L-G16RevA.03 25-Dec-2016

 -------------
 #p 6-31g* mp2
 -------------

 ------------------------------------------------------
 Input file generated by CHIRIPA (05-May-2021 14:57:26)
 ------------------------------------------------------
 Symbolic Z-matrix:
 Charge =  0 Multiplicity = 1

                         Standard orientation:
 ---------------------------------------------------------------------
 Center     Atomic      Atomic             Coordinates (Angstroms)
 Number     Number       Type             X           Y           Z
 ---------------------------------------------------------------------
      1          6           0       -4.892461    0.914081   -1.350860
      2          6           0       -4.207671    1.615610   -0.353142
      3          6           0       -3.278068    0.963715    0.462590
      4          6           0       -3.056862   -0.396446    0.252069
      5          6           0       -3.723272   -1.122894   -0.733559
      6          6           0       -4.648507   -0.450526   -1.537555
      7          1           0       -5.612903    1.428441   -1.979982
      8          1           0       -4.395108    2.675434   -0.205886
      9          1           0       -2.733928    1.482552    1.242423
     10          1           0       -3.515128   -2.178824   -0.856462
     11          1           0       -5.178857   -0.997885   -2.311617
     12          7           0       -2.075046   -1.097415    1.109436
     13          8           0       -1.898143   -2.296188    0.903798
     14          8           0       -1.500991   -0.434789    1.970845
     15          6           0        4.784858   -1.593398   -0.743174
     16          6           0        3.467910   -1.878256   -0.367636
     17          6           0        2.591370   -0.847701   -0.015245
     18          6           0        3.067265    0.462120   -0.049626
     19          6           0        4.373713    0.777983   -0.419375
     20          6           0        5.232766   -0.268523   -0.767801
     21          1           0        5.458983   -2.400155   -1.015379
     22          1           0        3.117319   -2.906230   -0.347600
     23          1           0        1.566840   -1.039947    0.279372
     24          1           0        4.694321    1.812643   -0.429755
     25          1           0        6.255000   -0.044335   -1.059040
     26          7           0        2.148567    1.561567    0.321336
     27          8           0        2.592214    2.707141    0.282948
     28          8           0        1.002241    1.256919    0.643459
 ---------------------------------------------------------------------

 SCF Done:  E(RHF) =  -868.338863175     A.U. after   16 cycles
 E2 =    -0.2599661510D+01 EUMP2 =    -0.87093852468477D+03

 The electronic state is 1-A.
 Alpha  occ. eigenvalues --  -20.60394 -20.60234 -20.60195 -20.60141 -15.85336
 Alpha  occ. eigenvalues --  -15.85210 -11.30622 -11.30545 -11.27273 -11.27179
 Alpha  occ. eigenvalues --  -11.27104 -11.27015 -11.26985 -11.26908 -11.26270
 Alpha  occ. eigenvalues --  -11.26196 -11.26163 -11.26085  -1.59384  -1.59252
 Alpha  occ. eigenvalues --   -1.38931  -1.38796  -1.18807  -1.18731  -1.08230
 Alpha  occ. eigenvalues --   -1.08146  -1.04199  -1.04119  -0.95077  -0.94971
 Alpha  occ. eigenvalues --   -0.85603  -0.85524  -0.81923  -0.81776  -0.76964
 Alpha  occ. eigenvalues --   -0.76817  -0.71630  -0.71410  -0.70637  -0.70572
 Alpha  occ. eigenvalues --   -0.69931  -0.69842  -0.64471  -0.64376  -0.64218
 Alpha  occ. eigenvalues --   -0.64124  -0.61538  -0.61446  -0.54740  -0.54655
 Alpha  occ. eigenvalues --   -0.52539  -0.52472  -0.52296  -0.52203  -0.48363
 Alpha  occ. eigenvalues --   -0.48338  -0.48201  -0.48172  -0.44346  -0.44176
 Alpha  occ. eigenvalues --   -0.36806  -0.36740  -0.35793  -0.35726
 Alpha virt. eigenvalues --    0.05538   0.05712   0.11860   0.11923   0.17031
 Alpha virt. eigenvalues --    0.17183   0.21905   0.22085   0.27861   0.27971
 Alpha virt. eigenvalues --    0.28714   0.29030   0.31332   0.31650   0.33045

 Mulliken charges:
               1
     1  C   -0.170725
     2  C   -0.219452
     3  C   -0.164886
     4  C    0.157658
     5  C   -0.172340
     6  C   -0.219331
     7  H    0.223811
     8  H    0.224253
     9  H    0.284569
    10  H    0.271730
    11  H    0.220504
    12  N    0.486900
    13  O   -0.473374
    14  O   -0.447513
    15  C   -0.171146
    16  C   -0.220149
    17  C   -0.172463
    18  C    0.156935
    19  C   -0.171780
    20  C   -0.219287
    21  H    0.223587
    22  H    0.226147
    23  H    0.287000
    24  H    0.273122
    25  H    0.220771
    26  N    0.488251
    27  O   -0.466273
    28  O   -0.456517
 Sum of Mulliken charges =  -0.00000

 Dipole moment (field-independent basis, Debye):
    X=             -0.3179    Y=             -1.2834    Z=             -4.1247  Tot=              4.3315
 Quadrupole moment (field-independent basis, Debye-Ang):
   XX=            -63.3907   YY=           -105.5060   ZZ=           -106.2592
   XY=            -14.0685   XZ=              3.9705   YZ=              3.3374

 Normal termination of Gaussian 16 at Thu May  6 18:06:39 2021.
