 Gaussian 16, Revision A.03,
 Gaussian 16:  EM64L-G16RevA.03 25-Dec-2016

 -------------
 #p 6-31g* mp2
 -------------

 ------------------------------------------------------
 Input file generated by CHIRIPA (05-May-2021 14:57:25)
 ------------------------------------------------------
 Symbolic Z-matrix:
 Charge =  0 Multiplicity = 1

                         Standard orientation:
 ---------------------------------------------------------------------
 Center     Atomic      Atomic             Coordinates (Angstroms)
 Number     Number       Type             X           Y           Z
 ---------------------------------------------------------------------
      1          6           0        3.021330    2.437380    0.563471
      2          6           0        2.956041    1.376804    1.473106
      3          6           0        2.645517    0.085362    1.036872
      4          6           0        2.404945   -0.110556   -0.322183
      5          6           0        2.462430    0.925597   -1.252975
      6          6           0        2.774751    2.208794   -0.794273
      7          1           0        3.263250    3.437401    0.911075
      8          1           0        3.147066    1.551383    2.528131
      9          1           0        2.588298   -0.753812    1.719464
     10          1           0        2.267036    0.720550   -2.298535
     11          1           0        2.824756    3.030553   -1.502974
     12          7           0        2.075256   -1.473383   -0.795898
     13          8           0        1.867510   -1.619800   -1.998412
     14          8           0        2.030835   -2.369347    0.044289
     15          6           0       -3.832820    1.613822   -0.978085
     16          6           0       -3.420482    1.850000    0.337482
     17          6           0       -2.659115    0.899700    1.024358
     18          6           0       -2.326493   -0.281100    0.362266
     19          6           0       -2.722265   -0.545598   -0.947960
     20          6           0       -3.483013    0.418883   -1.615484
     21          1           0       -4.424027    2.357546   -1.504151
     22          1           0       -3.690676    2.777104    0.834994
     23          1           0       -2.326616    1.056787    2.043272
     24          1           0       -2.437426   -1.479281   -1.417558
     25          1           0       -3.801848    0.232764   -2.637124
     26          7           0       -1.520796   -1.294646    1.079188
     27          8           0       -1.240840   -2.326912    0.473640
     28          8           0       -1.184505   -1.037606    2.233084
 ---------------------------------------------------------------------

 SCF Done:  E(RHF) =  -868.336451108     A.U. after   16 cycles
 E2 =    -0.2601450492D+01 EUMP2 =    -0.87093790160026D+03

 The electronic state is 1-A.
 Alpha  occ. eigenvalues --  -20.60425 -20.60299 -20.60020 -20.59859 -15.85404
 Alpha  occ. eigenvalues --  -15.84990 -11.30939 -11.30625 -11.27577 -11.27471
 Alpha  occ. eigenvalues --  -11.27328 -11.27296 -11.27148 -11.27065 -11.26621
 Alpha  occ. eigenvalues --  -11.26550 -11.26360 -11.26262  -1.59439  -1.59003
 Alpha  occ. eigenvalues --   -1.38984  -1.38549  -1.19136  -1.18838  -1.08507
 Alpha  occ. eigenvalues --   -1.08192  -1.04557  -1.04267  -0.95307  -0.94972
 Alpha  occ. eigenvalues --   -0.85950  -0.85657  -0.82130  -0.81796  -0.77149
 Alpha  occ. eigenvalues --   -0.76790  -0.71630  -0.71213  -0.70946  -0.70243
 Alpha  occ. eigenvalues --   -0.70163  -0.69943  -0.64782  -0.64563  -0.64479
 Alpha  occ. eigenvalues --   -0.64275  -0.61894  -0.61597  -0.55066  -0.54787
 Alpha  occ. eigenvalues --   -0.52894  -0.52649  -0.52601  -0.52358  -0.48404
 Alpha  occ. eigenvalues --   -0.48359  -0.47998  -0.47947  -0.44472  -0.43722
 Alpha  occ. eigenvalues --   -0.37154  -0.36850  -0.36168  -0.35877
 Alpha virt. eigenvalues --    0.05284   0.05828   0.11477   0.11764   0.16822
 Alpha virt. eigenvalues --    0.17174   0.21598   0.21861   0.27508   0.27767
 Alpha virt. eigenvalues --    0.28519   0.28806   0.31107   0.31383   0.32826

 Mulliken charges:
               1
     1  C   -0.172474
     2  C   -0.219418
     3  C   -0.167278
     4  C    0.153793
     5  C   -0.172353
     6  C   -0.219312
     7  H    0.222433
     8  H    0.223424
     9  H    0.284238
    10  H    0.272563
    11  H    0.219619
    12  N    0.487224
    13  O   -0.468938
    14  O   -0.443837
    15  C   -0.171757
    16  C   -0.219130
    17  C   -0.171286
    18  C    0.156590
    19  C   -0.170713
    20  C   -0.219210
    21  H    0.223948
    22  H    0.220826
    23  H    0.272913
    24  H    0.282336
    25  H    0.224017
    26  N    0.484519
    27  O   -0.445079
    28  O   -0.467657
 Sum of Mulliken charges =  -0.00000

 Dipole moment (field-independent basis, Debye):
    X=             -1.6846    Y=              7.9412    Z=             -0.7687  Tot=              8.1542
 Quadrupole moment (field-independent basis, Debye-Ang):
   XX=            -88.0376   YY=           -106.3168   ZZ=           -100.7499
   XY=              3.6569   XZ=              9.8467   YZ=              1.0857

 Normal termination of Gaussian 16 at Thu May  6 01:57:14 2021.
