 Gaussian 16, Revision A.03,
 Gaussian 16:  EM64L-G16RevA.03 25-Dec-2016

 -------------
 #p 6-31g* mp2
 -------------

 ------------------------------------------------------
 Input file generated by CHIRIPA (05-May-2021 14:57:23)
 ------------------------------------------------------
 Symbolic Z-matrix:
 Charge =  0 Multiplicity = 1

                         Standard orientation:
 ---------------------------------------------------------------------
 Center     Atomic      Atomic             Coordinates (Angstroms)
 Number     Number       Type             X           Y           Z
 ---------------------------------------------------------------------
      1          6           0       -1.516675   -2.221227    0.336131
      2          6           0       -2.902304   -2.412081    0.324836
      3          6           0       -3.765722   -1.334276    0.107137
      4          6           0       -3.206809   -0.073575   -0.096679
      5          6           0       -1.830622    0.148615   -0.091207
      6          6           0       -0.986191   -0.943740    0.128439
      7          1           0       -0.853326   -3.064144    0.506001
      8          1           0       -3.317094   -3.403076    0.485844
      9          1           0       -4.842267   -1.453760    0.093293
     10          1           0       -1.446745    1.148271   -0.254741
     11          1           0        0.089504   -0.792558    0.136676
     12          7           0       -4.110821    1.075151   -0.328178
     13          8           0       -3.593423    2.175881   -0.505179
     14          8           0       -5.319665    0.853041   -0.328243
     15          6           0        2.435276    2.631406    0.665599
     16          6           0        2.104118    1.578467    1.524770
     17          6           0        2.444066    0.262190    1.198582
     18          6           0        3.118002    0.033921   -0.000164
     19          6           0        3.461802    1.061682   -0.876977
     20          6           0        3.111867    2.370114   -0.530424
     21          1           0        2.167317    3.650875    0.926901
     22          1           0        1.578683    1.778424    2.454275
     23          1           0        2.199924   -0.571762    1.845371
     24          1           0        3.985746    0.831107   -1.796616
     25          1           0        3.370331    3.185870   -1.199591
     26          7           0        3.483177   -1.355410   -0.356266
     27          8           0        4.076776   -1.530135   -1.418220
     28          8           0        3.168885   -2.243336    0.433321
 ---------------------------------------------------------------------

 SCF Done:  E(RHF) =  -868.338548677     A.U. after   16 cycles
 E2 =    -0.2601117568D+01 EUMP2 =    -0.87093966624484D+03

 The electronic state is 1-A.
 Alpha  occ. eigenvalues --  -20.61782 -20.61739 -20.60826 -20.60809 -15.86806
 Alpha  occ. eigenvalues --  -15.85869 -11.32146 -11.31118 -11.28699 -11.28617
 Alpha  occ. eigenvalues --  -11.28310 -11.27679 -11.27667 -11.27654 -11.27586
 Alpha  occ. eigenvalues --  -11.27284 -11.26621 -11.26538  -1.60838  -1.59897
 Alpha  occ. eigenvalues --   -1.40391  -1.39455  -1.20302  -1.19265  -1.09669
 Alpha  occ. eigenvalues --   -1.08661  -1.05674  -1.04649  -0.96513  -0.95520
 Alpha  occ. eigenvalues --   -0.87061  -0.86043  -0.83328  -0.82363  -0.78410
 Alpha  occ. eigenvalues --   -0.77451  -0.73008  -0.72185  -0.72085  -0.71329
 Alpha  occ. eigenvalues --   -0.71220  -0.70319  -0.65911  -0.65619  -0.64901
 Alpha  occ. eigenvalues --   -0.64657  -0.62993  -0.62022  -0.56089  -0.55109
 Alpha  occ. eigenvalues --   -0.54069  -0.53710  -0.52990  -0.52634  -0.49785
 Alpha  occ. eigenvalues --   -0.49758  -0.48853  -0.48832  -0.45791  -0.44887
 Alpha  occ. eigenvalues --   -0.38239  -0.37327  -0.37178  -0.36240
 Alpha virt. eigenvalues --    0.04080   0.05089   0.10231   0.11398   0.15602
 Alpha virt. eigenvalues --    0.16639   0.20648   0.21766   0.26480   0.27322
 Alpha virt. eigenvalues --    0.27712   0.28561   0.30409   0.31297   0.31669

 Mulliken charges:
               1
     1  C   -0.173836
     2  C   -0.218797
     3  C   -0.171540
     4  C    0.158569
     5  C   -0.176220
     6  C   -0.225803
     7  H    0.234956
     8  H    0.224202
     9  H    0.274983
    10  H    0.271980
    11  H    0.231007
    12  N    0.488329
    13  O   -0.463752
    14  O   -0.460207
    15  C   -0.171720
    16  C   -0.217589
    17  C   -0.189522
    18  C    0.159240
    19  C   -0.170818
    20  C   -0.217376
    21  H    0.232414
    22  H    0.229422
    23  H    0.275783
    24  H    0.278817
    25  H    0.228890
    26  N    0.488456
    27  O   -0.454681
    28  O   -0.465185
 Sum of Mulliken charges =  -0.00000

 Dipole moment (field-independent basis, Debye):
    X=              2.2031    Y=              0.9571    Z=              2.0369  Tot=              3.1494
 Quadrupole moment (field-independent basis, Debye-Ang):
   XX=           -129.7879   YY=           -101.6115   ZZ=           -102.1980
   XY=             32.4768   XZ=             -1.6644   YZ=             -1.3854

 Normal termination of Gaussian 16 at Thu May  6 08:13:05 2021.
