 Gaussian 16, Revision A.03,
 Gaussian 16:  EM64L-G16RevA.03 25-Dec-2016

 -------------
 #p 6-31g* mp2
 -------------

 ------------------------------------------------------
 Input file generated by CHIRIPA (05-May-2021 14:55:19)
 ------------------------------------------------------
 Symbolic Z-matrix:
 Charge =  0 Multiplicity = 1

                         Standard orientation:
 ---------------------------------------------------------------------
 Center     Atomic      Atomic             Coordinates (Angstroms)
 Number     Number       Type             X           Y           Z
 ---------------------------------------------------------------------
      1          6           0       -2.690203    1.852287    1.231035
      2          6           0       -2.521639    1.802058   -0.156620
      3          6           0       -2.351035    0.576432   -0.807222
      4          6           0       -2.354172   -0.584646   -0.035744
      5          6           0       -2.519799   -0.567330    1.348292
      6          6           0       -2.688748    0.669518    1.977745
      7          1           0       -2.822090    2.808741    1.728224
      8          1           0       -2.522346    2.719007   -0.739070
      9          1           0       -2.218494    0.508667   -1.880190
     10          1           0       -2.514625   -1.498294    1.902095
     11          1           0       -2.819443    0.705500    3.055553
     12          7           0       -2.174437   -1.888101   -0.713313
     13          8           0       -2.180975   -2.896742   -0.011004
     14          8           0       -2.030426   -1.876428   -1.933871
     15          6           0        2.433279    0.751667   -0.449444
     16          6           0        2.315515    2.273278   -0.355544
     17          6           0        1.074169    2.815029   -1.065024
     18          1           0        2.455822    0.456612   -1.507451
     19          1           0        1.533169    0.293799   -0.016370
     20          1           0        3.216199    2.728111   -0.787414
     21          1           0        2.293442    2.564760    0.702363
     22          1           0        0.164691    2.388602   -0.629580
     23          1           0        1.092692    2.552881   -2.127820
     24          1           0        1.009751    3.904698   -0.985444
     25          6           0        3.669236    0.195074    0.255071
     26          6           0        3.786999   -1.326537    0.161171
     27          6           0        5.028345   -1.868288    0.870650
     28          1           0        4.569346    0.652943   -0.178003
     29          1           0        3.646691    0.490129    1.313078
     30          1           0        3.809073   -1.618019   -0.896736
     31          1           0        2.886315   -1.781370    0.593041
     32          1           0        5.009822   -1.606140    1.933447
     33          1           0        5.937822   -1.441861    0.435206
     34          1           0        5.092763   -2.957956    0.791071
 ---------------------------------------------------------------------

 SCF Done:  E(RHF) =  -669.535055053     A.U. after   15 cycles
 E2 =    -0.2092675564D+01 EUMP2 =    -0.67162773061777D+03

 The electronic state is 1-A.
 Alpha  occ. eigenvalues --  -20.60819 -20.60814 -15.85875 -11.31280 -11.27841
 Alpha  occ. eigenvalues --  -11.27832 -11.27580 -11.26860 -11.26832 -11.21742
 Alpha  occ. eigenvalues --  -11.21407 -11.21367 -11.21292 -11.21269 -11.20900
 Alpha  occ. eigenvalues --   -1.59894  -1.39446  -1.19458  -1.08841  -1.08403
 Alpha  occ. eigenvalues --   -1.04866  -1.03523  -0.95994  -0.95666  -0.87027
 Alpha  occ. eigenvalues --   -0.86245  -0.82497  -0.79600  -0.78196  -0.77535
 Alpha  occ. eigenvalues --   -0.72090  -0.71218  -0.70542  -0.65103  -0.65047
 Alpha  occ. eigenvalues --   -0.64842  -0.62202  -0.60933  -0.59369  -0.57602
 Alpha  occ. eigenvalues --   -0.55367  -0.55314  -0.53270  -0.52950  -0.52686
 Alpha  occ. eigenvalues --   -0.52352  -0.49925  -0.48853  -0.48843  -0.47906
 Alpha  occ. eigenvalues --   -0.46615  -0.45743  -0.45652  -0.44842  -0.43778
 Alpha  occ. eigenvalues --   -0.37425  -0.36375
 Alpha virt. eigenvalues --    0.04989   0.11143   0.16426   0.21226   0.22880
 Alpha virt. eigenvalues --    0.24344   0.26652   0.26709   0.27547   0.28212
 Alpha virt. eigenvalues --    0.28600   0.30718   0.31494   0.31812   0.32119

 Mulliken charges:
               1
     1  C   -0.171274
     2  C   -0.220511
     3  C   -0.169188
     4  C    0.158793
     5  C   -0.171489
     6  C   -0.218554
     7  H    0.226458
     8  H    0.227109
     9  H    0.277013
    10  H    0.275907
    11  H    0.223840
    12  N    0.488100
    13  O   -0.460397
    14  O   -0.459714
    15  C   -0.299045
    16  C   -0.297420
    17  C   -0.486823
    18  H    0.152412
    19  H    0.149814
    20  H    0.152305
    21  H    0.149768
    22  H    0.161078
    23  H    0.155008
    24  H    0.155519
    25  C   -0.298365
    26  C   -0.300206
    27  C   -0.475831
    28  H    0.149073
    29  H    0.147718
    30  H    0.154543
    31  H    0.154363
    32  H    0.153622
    33  H    0.154347
    34  H    0.162023
 Sum of Mulliken charges =  -0.00000

 Dipole moment (field-independent basis, Debye):
    X=             -0.7150    Y=              4.4916    Z=              2.3832  Tot=              5.1347
 Quadrupole moment (field-independent basis, Debye-Ang):
   XX=            -92.9205   YY=           -100.1457   ZZ=            -90.6432
   XY=            -10.2225   XZ=             -6.9672   YZ=             -3.6118

 Normal termination of Gaussian 16 at Wed May  5 20:32:15 2021.
