 Gaussian 16, Revision A.03,
 Gaussian 16:  EM64L-G16RevA.03 25-Dec-2016

 -------------
 #p 6-31g* mp2
 -------------

 ------------------------------------------------------
 Input file generated by CHIRIPA (05-May-2021 14:51:13)
 ------------------------------------------------------
 Symbolic Z-matrix:
 Charge =  0 Multiplicity = 1

                         Standard orientation:
 ---------------------------------------------------------------------
 Center     Atomic      Atomic             Coordinates (Angstroms)
 Number     Number       Type             X           Y           Z
 ---------------------------------------------------------------------
      1          6           0        2.177157   -1.387337   -0.491559
      2          6           0        0.724912   -1.599730   -0.062772
      3          6           0       -0.004495   -2.624074   -0.932530
      4          1           0        2.199191   -1.061742   -1.540581
      5          1           0        2.708331   -2.348395   -0.451351
      6          1           0        0.196990   -0.638304   -0.102449
      7          1           0        0.706323   -1.924673    0.985409
      8          1           0        0.496623   -3.596299   -0.884983
      9          1           0       -0.015604   -2.302621   -1.979022
     10          1           0       -1.040962   -2.760422   -0.608487
     11          6           0        2.919572   -0.366092    0.368444
     12          6           0        4.371817   -0.153699   -0.060343
     13          6           0        5.101224    0.870645    0.809416
     14          1           0        2.388397    0.594966    0.328236
     15          1           0        2.897538   -0.691687    1.417467
     16          1           0        4.390406    0.171244   -1.108524
     17          1           0        4.899739   -1.115125   -0.020665
     18          1           0        5.112332    0.549192    1.855908
     19          1           0        4.600106    1.842870    0.761868
     20          1           0        6.137691    1.006993    0.485372
     21          6           0       -2.082621    1.434580    0.296718
     22          6           0       -1.544468    2.297003   -0.845474
     23          6           0       -0.614205    3.408707   -0.359143
     24          1           0       -2.617092    2.075509    1.011208
     25          1           0       -1.237614    0.993811    0.843601
     26          1           0       -2.390269    2.734906   -1.390890
     27          1           0       -1.011381    1.653919   -1.557427
     28          1           0        0.248148    2.986739    0.167060
     29          1           0       -1.138575    4.073867    0.334543
     30          1           0       -0.241084    4.012953   -1.191927
     31          6           0       -3.014108    0.318849   -0.173603
     32          6           0       -3.552260   -0.543574    0.968589
     33          6           0       -4.482524   -1.655278    0.482258
     34          1           0       -3.859115    0.759618   -0.720487
     35          1           0       -2.479637   -0.322081   -0.888094
     36          1           0       -4.085348    0.099510    1.680541
     37          1           0       -2.706460   -0.981477    1.514005
     38          1           0       -3.958154   -2.320439   -0.211428
     39          1           0       -5.344877   -1.233310   -0.043946
     40          1           0       -4.855645   -2.259523    1.315041
 ---------------------------------------------------------------------

 SCF Done:  E(RHF) =  -470.733006810     A.U. after   11 cycles
 E2 =    -0.1584706756D+01 EUMP2 =    -0.47231771356629D+03

 The electronic state is 1-A.
 Alpha  occ. eigenvalues --  -11.21663 -11.21645 -11.21642 -11.21592 -11.21472
 Alpha  occ. eigenvalues --  -11.21412 -11.21385 -11.21325 -11.21164 -11.21126
 Alpha  occ. eigenvalues --  -11.21095 -11.21081  -1.08528  -1.08413  -1.03595
 Alpha  occ. eigenvalues --   -1.03550  -0.96053  -0.95989  -0.87072  -0.87002
 Alpha  occ. eigenvalues --   -0.79669  -0.79609  -0.78351  -0.78211  -0.65421
 Alpha  occ. eigenvalues --   -0.64860  -0.61033  -0.60920  -0.59409  -0.59342
 Alpha  occ. eigenvalues --   -0.57647  -0.57600  -0.55453  -0.55168  -0.52737
 Alpha  occ. eigenvalues --   -0.52694  -0.52479  -0.52409  -0.50090  -0.49850
 Alpha  occ. eigenvalues --   -0.48031  -0.47887  -0.46759  -0.46617  -0.46070
 Alpha  occ. eigenvalues --   -0.45815  -0.45729  -0.45383  -0.43840  -0.43794
 Alpha virt. eigenvalues --    0.19096   0.21331   0.23662   0.24788   0.25624
 Alpha virt. eigenvalues --    0.26465   0.27029   0.27342   0.28604   0.29595
 Alpha virt. eigenvalues --    0.30255   0.31301   0.31542   0.31767   0.32279

 Mulliken charges:
               1
     1  C   -0.297685
     2  C   -0.309425
     3  C   -0.478790
     4  H    0.149656
     5  H    0.149905
     6  H    0.162026
     7  H    0.151760
     8  H    0.155872
     9  H    0.155038
    10  H    0.162786
    11  C   -0.299866
    12  C   -0.299639
    13  C   -0.475840
    14  H    0.149906
    15  H    0.149875
    16  H    0.152181
    17  H    0.152158
    18  H    0.155230
    19  H    0.155436
    20  H    0.160453
    21  C   -0.302845
    22  C   -0.300843
    23  C   -0.476928
    24  H    0.150641
    25  H    0.152703
    26  H    0.152534
    27  H    0.151554
    28  H    0.155463
    29  H    0.155802
    30  H    0.160334
    31  C   -0.301901
    32  C   -0.300608
    33  C   -0.477567
    34  H    0.149557
    35  H    0.153849
    36  H    0.152066
    37  H    0.153270
    38  H    0.156085
    39  H    0.155424
    40  H    0.160377
 Sum of Mulliken charges =  -0.00000

 Dipole moment (field-independent basis, Debye):
    X=              0.0098    Y=             -0.0042    Z=              0.0029  Tot=              0.0111
 Quadrupole moment (field-independent basis, Debye-Ang):
   XX=            -84.9093   YY=            -85.0553   ZZ=            -84.7029
   XY=             -1.8236   XZ=             -0.3780   YZ=             -0.9661

 Normal termination of Gaussian 16 at Wed May  5 16:51:52 2021.
