 Gaussian 16, Revision A.03,
 Gaussian 16:  EM64L-G16RevA.03 25-Dec-2016

 -------------
 #p 6-31g* mp2
 -------------

 ------------------------------------------------------
 Input file generated by CHIRIPA (05-May-2021 14:55:20)
 ------------------------------------------------------
 Symbolic Z-matrix:
 Charge =  0 Multiplicity = 1

                         Standard orientation:
 ---------------------------------------------------------------------
 Center     Atomic      Atomic             Coordinates (Angstroms)
 Number     Number       Type             X           Y           Z
 ---------------------------------------------------------------------
      1          6           0        4.260797    0.484000   -1.036802
      2          6           0        3.835725    1.047687    0.170713
      3          6           0        2.739632    0.515135    0.855926
      4          6           0        2.088909   -0.586422    0.302372
      5          6           0        2.488417   -1.170370   -0.898747
      6          6           0        3.586975   -0.621280   -1.566744
      7          1           0        5.113226    0.904123   -1.562405
      8          1           0        4.357117    1.906094    0.584637
      9          1           0        2.389375    0.931816    1.792470
     10          1           0        1.948568   -2.025743   -1.286458
     11          1           0        3.914872   -1.061112   -2.504335
     12          7           0        0.927220   -1.158965    1.018663
     13          8           0        0.370902   -2.129717    0.509952
     14          8           0        0.595003   -0.626131    2.075241
     15          6           0       -3.392848    0.145809   -0.588768
     16          6           0       -3.427175   -1.243036    0.049914
     17          6           0       -4.379917   -2.200066   -0.667144
     18          1           0       -4.407266    0.567594   -0.588750
     19          1           0       -3.094119    0.050179   -1.641865
     20          1           0       -3.724410   -1.144678    1.101862
     21          1           0       -2.412525   -1.661485    0.048549
     22          1           0       -4.082694   -2.327763   -1.713066
     23          1           0       -5.402032   -1.808019   -0.653768
     24          1           0       -4.388882   -3.186978   -0.194083
     25          6           0       -2.444898    1.113866    0.116912
     26          6           0       -2.410570    2.502711   -0.521770
     27          6           0       -1.457830    3.459740    0.195287
     28          1           0       -2.743627    1.209496    1.170008
     29          1           0       -1.430481    0.692081    0.116893
     30          1           0       -3.425220    2.921159   -0.520405
     31          1           0       -2.113336    2.404351   -1.573718
     32          1           0       -0.435714    3.067693    0.181913
     33          1           0       -1.755052    3.587438    1.241209
     34          1           0       -1.448863    4.446652   -0.277774
 ---------------------------------------------------------------------

 SCF Done:  E(RHF) =  -669.536252971     A.U. after   15 cycles
 E2 =    -0.2092645438D+01 EUMP2 =    -0.67162889840848D+03

 The electronic state is 1-A.
 Alpha  occ. eigenvalues --  -20.61038 -20.61028 -15.86040 -11.31354 -11.27909
 Alpha  occ. eigenvalues --  -11.27904 -11.27637 -11.26908 -11.26897 -11.21051
 Alpha  occ. eigenvalues --  -11.20706 -11.20522 -11.20418 -11.20156 -11.20014
 Alpha  occ. eigenvalues --   -1.60085  -1.39640  -1.19515  -1.08923  -1.07534
 Alpha  occ. eigenvalues --   -1.04904  -1.02660  -0.95767  -0.95169  -0.86306
 Alpha  occ. eigenvalues --   -0.86193  -0.82600  -0.78734  -0.77659  -0.77271
 Alpha  occ. eigenvalues --   -0.72264  -0.71405  -0.70618  -0.65168  -0.64904
 Alpha  occ. eigenvalues --   -0.64171  -0.62250  -0.60065  -0.58553  -0.56738
 Alpha  occ. eigenvalues --   -0.55408  -0.54483  -0.53238  -0.52993  -0.51890
 Alpha  occ. eigenvalues --   -0.51582  -0.49176  -0.49035  -0.49024  -0.47065
 Alpha  occ. eigenvalues --   -0.45837  -0.45010  -0.44806  -0.44589  -0.42914
 Alpha  occ. eigenvalues --   -0.37490  -0.36503
 Alpha virt. eigenvalues --    0.04823   0.11129   0.16297   0.21267   0.23564
 Alpha virt. eigenvalues --    0.25102   0.27091   0.27280   0.27989   0.28542
 Alpha virt. eigenvalues --    0.28697   0.31000   0.31825   0.32387   0.32734

 Mulliken charges:
               1
     1  C   -0.170410
     2  C   -0.218510
     3  C   -0.171254
     4  C    0.156511
     5  C   -0.170880
     6  C   -0.218501
     7  H    0.226328
     8  H    0.224359
     9  H    0.276675
    10  H    0.275870
    11  H    0.224084
    12  N    0.488099
    13  O   -0.459324
    14  O   -0.455983
    15  C   -0.297942
    16  C   -0.310230
    17  C   -0.474787
    18  H    0.145138
    19  H    0.144081
    20  H    0.151758
    21  H    0.177887
    22  H    0.150492
    23  H    0.149781
    24  H    0.160534
    25  C   -0.294847
    26  C   -0.299330
    27  C   -0.473853
    28  H    0.153873
    29  H    0.147829
    30  H    0.150760
    31  H    0.148190
    32  H    0.150255
    33  H    0.156873
    34  H    0.156471
 Sum of Mulliken charges =  -0.00000

 Dipole moment (field-independent basis, Debye):
    X=              4.3498    Y=              1.8800    Z=             -2.3607  Tot=              5.2942
 Quadrupole moment (field-independent basis, Debye-Ang):
   XX=            -78.7806   YY=            -96.1531   ZZ=            -93.8854
   XY=              1.6614   XZ=             -5.0134   YZ=              4.8728

 Normal termination of Gaussian 16 at Wed May  5 20:35:17 2021.
