 Gaussian 16, Revision A.03,
 Gaussian 16:  EM64L-G16RevA.03 25-Dec-2016

 -------------
 #p 6-31g* mp2
 -------------

 ------------------------------------------------------
 Input file generated by CHIRIPA (05-May-2021 14:57:26)
 ------------------------------------------------------
 Symbolic Z-matrix:
 Charge =  0 Multiplicity = 1

                         Standard orientation:
 ---------------------------------------------------------------------
 Center     Atomic      Atomic             Coordinates (Angstroms)
 Number     Number       Type             X           Y           Z
 ---------------------------------------------------------------------
      1          6           0       -1.396982   -1.895568   -0.270170
      2          6           0       -2.690285   -2.238814    0.137349
      3          6           0       -3.692608   -1.267043    0.211901
      4          6           0       -3.365236    0.044172   -0.129908
      5          6           0       -2.086103    0.417413   -0.539541
      6          6           0       -1.099543   -0.570885   -0.606721
      7          1           0       -0.624476   -2.656883   -0.325220
      8          1           0       -2.924149   -3.266785    0.399319
      9          1           0       -4.702148   -1.505192    0.524200
     10          1           0       -1.883213    1.450526   -0.794357
     11          1           0       -0.096018   -0.301425   -0.923539
     12          7           0       -4.418007    1.081691   -0.054885
     13          8           0       -4.104064    2.229797   -0.361364
     14          8           0       -5.537177    0.727146    0.308975
     15          6           0        3.466849    2.634718    0.168700
     16          6           0        2.594780    2.016641    1.070918
     17          6           0        2.434455    0.627824    1.065289
     18          6           0        3.165129   -0.115629    0.139718
     19          6           0        4.041702    0.470864   -0.771838
     20          6           0        4.186258    1.861221   -0.748183
     21          1           0        3.585269    3.714183    0.180075
     22          1           0        2.034791    2.614833    1.784096
     23          1           0        1.766131    0.123466    1.752591
     24          1           0        4.586372   -0.151953   -1.471019
     25          1           0        4.864231    2.338517   -1.450028
     26          7           0        3.003747   -1.586724    0.124216
     27          8           0        3.658916   -2.219327   -0.701134
     28          8           0        2.225141   -2.079307    0.937709
 ---------------------------------------------------------------------

 SCF Done:  E(RHF) =  -868.339952534     A.U. after   16 cycles
 E2 =    -0.2599852787D+01 EUMP2 =    -0.87093980532100D+03

 The electronic state is 1-A.
 Alpha  occ. eigenvalues --  -20.61915 -20.61884 -20.60597 -20.60583 -15.86923
 Alpha  occ. eigenvalues --  -15.85644 -11.32085 -11.30847 -11.28598 -11.28594
 Alpha  occ. eigenvalues --  -11.28259 -11.27533 -11.27516 -11.27460 -11.27409
 Alpha  occ. eigenvalues --  -11.26923 -11.26341 -11.26287  -1.60978  -1.59674
 Alpha  occ. eigenvalues --   -1.40529  -1.39232  -1.20227  -1.18999  -1.09649
 Alpha  occ. eigenvalues --   -1.08375  -1.05570  -1.04395  -0.96515  -0.95240
 Alpha  occ. eigenvalues --   -0.86972  -0.85774  -0.83338  -0.82097  -0.78423
 Alpha  occ. eigenvalues --   -0.77211  -0.73134  -0.72327  -0.71860  -0.71278
 Alpha  occ. eigenvalues --   -0.70999  -0.69968  -0.65854  -0.65533  -0.64628
 Alpha  occ. eigenvalues --   -0.64381  -0.62897  -0.61763  -0.56042  -0.54737
 Alpha  occ. eigenvalues --   -0.53941  -0.53628  -0.52715  -0.52453  -0.49908
 Alpha  occ. eigenvalues --   -0.49878  -0.48629  -0.48603  -0.45962  -0.44675
 Alpha  occ. eigenvalues --   -0.38189  -0.37197  -0.36873  -0.36013
 Alpha virt. eigenvalues --    0.04037   0.05348   0.10382   0.11692   0.15562
 Alpha virt. eigenvalues --    0.16918   0.20773   0.21842   0.26711   0.27292
 Alpha virt. eigenvalues --    0.27637   0.28890   0.30465   0.31435   0.31817

 Mulliken charges:
               1
     1  C   -0.169222
     2  C   -0.220435
     3  C   -0.171231
     4  C    0.157101
     5  C   -0.174354
     6  C   -0.223743
     7  H    0.243465
     8  H    0.224736
     9  H    0.274290
    10  H    0.271160
    11  H    0.220247
    12  N    0.488311
    13  O   -0.463993
    14  O   -0.460991
    15  C   -0.169954
    16  C   -0.219626
    17  C   -0.175168
    18  C    0.152011
    19  C   -0.171635
    20  C   -0.218608
    21  H    0.230209
    22  H    0.228965
    23  H    0.278751
    24  H    0.277260
    25  H    0.226925
    26  N    0.486542
    27  O   -0.456330
    28  O   -0.464682
 Sum of Mulliken charges =  -0.00000

 Dipole moment (field-independent basis, Debye):
    X=              4.6411    Y=              1.4841    Z=             -0.1656  Tot=              4.8754
 Quadrupole moment (field-independent basis, Debye-Ang):
   XX=           -122.5457   YY=           -104.1034   ZZ=           -102.4999
   XY=             32.2237   XZ=             -3.4729   YZ=              0.4021

 Normal termination of Gaussian 16 at Thu May  6 03:35:24 2021.
