 Gaussian 16, Revision A.03,
 Gaussian 16:  EM64L-G16RevA.03 25-Dec-2016

 -------------
 #p 6-31g* mp2
 -------------

 ------------------------------------------------------
 Input file generated by CHIRIPA (05-May-2021 14:55:23)
 ------------------------------------------------------
 Symbolic Z-matrix:
 Charge =  0 Multiplicity = 1

                         Standard orientation:
 ---------------------------------------------------------------------
 Center     Atomic      Atomic             Coordinates (Angstroms)
 Number     Number       Type             X           Y           Z
 ---------------------------------------------------------------------
      1          6           0       -3.659979    0.334370    1.764092
      2          6           0       -3.946319    0.605899    0.422152
      3          6           0       -3.126248    0.106385   -0.593977
      4          6           0       -2.023112   -0.664580   -0.230665
      5          6           0       -1.711493   -0.952495    1.097223
      6          6           0       -2.545445   -0.442591    2.096758
      7          1           0       -4.302421    0.726441    2.547000
      8          1           0       -4.811205    1.209007    0.160852
      9          1           0       -3.324689    0.301254   -1.640908
     10          1           0       -0.842216   -1.556764    1.326643
     11          1           0       -2.320634   -0.655072    3.138083
     12          7           0       -1.147593   -1.198893   -1.297612
     13          8           0       -0.181736   -1.875529   -0.951313
     14          8           0       -1.443795   -0.930935   -2.459980
     15          6           0        2.314173    1.063917   -0.445071
     16          6           0        1.418051    2.153117    0.145346
     17          6           0        0.503326    2.795828   -0.897724
     18          1           0        2.922201    1.495640   -1.251832
     19          1           0        1.684303    0.291401   -0.907539
     20          1           0        2.049385    2.922657    0.607777
     21          1           0        0.812224    1.718795    0.950923
     22          1           0       -0.150480    2.044370   -1.352092
     23          1           0        1.093710    3.255073   -1.697188
     24          1           0       -0.128521    3.571603   -0.454099
     25          6           0        3.234392    0.411970    0.585409
     26          6           0        4.130515   -0.677230   -0.005008
     27          6           0        5.045239   -1.319942    1.038062
     28          1           0        3.864263    1.184486    1.047878
     29          1           0        2.626365   -0.019753    1.392170
     30          1           0        4.736342   -0.242908   -0.810585
     31          1           0        3.499181   -1.446771   -0.467439
     32          1           0        4.454855   -1.779186    1.837526
     33          1           0        5.699046   -0.568484    1.492430
     34          1           0        5.677087   -2.095716    0.594438
 ---------------------------------------------------------------------

 SCF Done:  E(RHF) =  -669.536600939     A.U. after   15 cycles
 E2 =    -0.2093173414D+01 EUMP2 =    -0.67162977435262D+03

 The electronic state is 1-A.
 Alpha  occ. eigenvalues --  -20.61073 -20.61062 -15.86072 -11.31356 -11.27914
 Alpha  occ. eigenvalues --  -11.27898 -11.27627 -11.26904 -11.26888 -11.21198
 Alpha  occ. eigenvalues --  -11.20867 -11.20794 -11.20738 -11.20594 -11.20541
 Alpha  occ. eigenvalues --   -1.60117  -1.39674  -1.19513  -1.08925  -1.07825
 Alpha  occ. eigenvalues --   -1.04899  -1.03005  -0.95775  -0.95456  -0.86482
 Alpha  occ. eigenvalues --   -0.86301  -0.82610  -0.79055  -0.77682  -0.77608
 Alpha  occ. eigenvalues --   -0.72298  -0.71443  -0.70617  -0.65170  -0.64901
 Alpha  occ. eigenvalues --   -0.64436  -0.62247  -0.60408  -0.58834  -0.57062
 Alpha  occ. eigenvalues --   -0.55404  -0.54777  -0.53208  -0.52990  -0.52186
 Alpha  occ. eigenvalues --   -0.51885  -0.49429  -0.49070  -0.49053  -0.47376
 Alpha  occ. eigenvalues --   -0.46078  -0.45395  -0.45187  -0.44668  -0.43228
 Alpha  occ. eigenvalues --   -0.37473  -0.36483
 Alpha virt. eigenvalues --    0.04820   0.11104   0.16298   0.21128   0.23064
 Alpha virt. eigenvalues --    0.24559   0.26597   0.27186   0.28043   0.28276
 Alpha virt. eigenvalues --    0.28789   0.30879   0.31524   0.32190   0.32395

 Mulliken charges:
               1
     1  C   -0.170224
     2  C   -0.218087
     3  C   -0.170825
     4  C    0.159062
     5  C   -0.171219
     6  C   -0.218652
     7  H    0.226353
     8  H    0.224248
     9  H    0.276331
    10  H    0.275852
    11  H    0.224245
    12  N    0.487759
    13  O   -0.458914
    14  O   -0.457628
    15  C   -0.308112
    16  C   -0.300488
    17  C   -0.475222
    18  H    0.148671
    19  H    0.168018
    20  H    0.149423
    21  H    0.146155
    22  H    0.154545
    23  H    0.156900
    24  H    0.155246
    25  C   -0.294438
    26  C   -0.302978
    27  C   -0.475011
    28  H    0.145394
    29  H    0.143184
    30  H    0.150697
    31  H    0.165329
    32  H    0.152254
    33  H    0.152152
    34  H    0.159980
 Sum of Mulliken charges =  -0.00000

 Dipole moment (field-independent basis, Debye):
    X=             -3.2691    Y=              1.7168    Z=              3.6197  Tot=              5.1707
 Quadrupole moment (field-independent basis, Debye-Ang):
   XX=            -81.2217   YY=            -97.1408   ZZ=            -94.7518
   XY=             -2.6150   XZ=             -5.8173   YZ=             -4.4269

 Normal termination of Gaussian 16 at Thu May  6 04:41:58 2021.
