 Gaussian 16, Revision A.03,
 Gaussian 16:  EM64L-G16RevA.03 25-Dec-2016

 -------------
 #p 6-31g* mp2
 -------------

 ------------------------------------------------------
 Input file generated by CHIRIPA (05-May-2021 14:53:12)
 ------------------------------------------------------
 Symbolic Z-matrix:
 Charge =  0 Multiplicity = 1

                         Standard orientation:
 ---------------------------------------------------------------------
 Center     Atomic      Atomic             Coordinates (Angstroms)
 Number     Number       Type             X           Y           Z
 ---------------------------------------------------------------------
      1          6           0        5.411125   -0.536186   -0.286063
      2          6           0        6.778839    0.145090   -0.342700
      3          6           0        7.815681   -0.673662   -1.112374
      4          1           0        5.519996   -1.524652    0.180870
      5          1           0        5.054102   -0.711937   -1.310290
      6          1           0        7.132553    0.320755    0.681334
      7          1           0        6.666668    1.132128   -0.809379
      8          1           0        7.488399   -0.837579   -2.144177
      9          1           0        7.956931   -1.653563   -0.644995
     10          1           0        8.786009   -0.168159   -1.140488
     11          6           0        4.363938    0.270136    0.480078
     12          6           0        2.996225   -0.411140    0.536715
     13          6           0        1.959383    0.407612    1.306389
     14          1           0        4.720962    0.445887    1.504305
     15          1           0        4.255068    1.258602    0.013145
     16          1           0        3.108396   -1.398178    1.003394
     17          1           0        2.642511   -0.586805   -0.487319
     18          1           0        1.818133    1.387513    0.839009
     19          1           0        2.286665    0.571529    2.338192
     20          1           0        0.989055   -0.097892    1.334503
     21          6           0       -5.671049   -1.583080   -0.371708
     22          6           0       -5.719528   -0.363179   -1.054358
     23          6           0       -4.698568    0.579016   -0.897971
     24          6           0       -3.639276    0.267019   -0.047179
     25          6           0       -3.562459   -0.939605    0.646686
     26          6           0       -4.594567   -1.866899    0.475142
     27          1           0       -6.468485   -2.309213   -0.499080
     28          1           0       -6.554314   -0.140058   -1.712685
     29          1           0       -4.710939    1.531183   -1.414347
     30          1           0       -2.717406   -1.133545    1.296064
     31          1           0       -4.554280   -2.813478    1.006567
     32          7           0       -2.552530    1.256592    0.126404
     33          8           0       -1.630180    0.957679    0.881757
     34          8           0       -2.643667    2.312394   -0.496182
 ---------------------------------------------------------------------

 SCF Done:  E(RHF) =  -669.535710995     A.U. after   15 cycles
 E2 =    -0.2090701417D+01 EUMP2 =    -0.67162641241160D+03

 The electronic state is 1-A.
 Alpha  occ. eigenvalues --  -20.60867 -20.60861 -15.85907 -11.31259 -11.27829
 Alpha  occ. eigenvalues --  -11.27823 -11.27568 -11.26841 -11.26831 -11.21118
 Alpha  occ. eigenvalues --  -11.20802 -11.20684 -11.20666 -11.20595 -11.19619
 Alpha  occ. eigenvalues --   -1.59933  -1.39489  -1.19431  -1.08829  -1.07732
 Alpha  occ. eigenvalues --   -1.04832  -1.02752  -0.95670  -0.95164  -0.86234
 Alpha  occ. eigenvalues --   -0.86169  -0.82500  -0.78837  -0.77562  -0.77517
 Alpha  occ. eigenvalues --   -0.72132  -0.71251  -0.70540  -0.65087  -0.64835
 Alpha  occ. eigenvalues --   -0.64372  -0.62180  -0.60156  -0.58577  -0.56777
 Alpha  occ. eigenvalues --   -0.55335  -0.54460  -0.53162  -0.52925  -0.51811
 Alpha  occ. eigenvalues --   -0.51595  -0.49145  -0.48883  -0.48849  -0.47139
 Alpha  occ. eigenvalues --   -0.45898  -0.45062  -0.45003  -0.44882  -0.42968
 Alpha  occ. eigenvalues --   -0.37411  -0.36435
 Alpha virt. eigenvalues --    0.04972   0.11219   0.16452   0.21293   0.23516
 Alpha virt. eigenvalues --    0.25078   0.27166   0.27306   0.27875   0.28170
 Alpha virt. eigenvalues --    0.29025   0.30697   0.31936   0.32177   0.32432

 Mulliken charges:
               1
     1  C   -0.297450
     2  C   -0.299168
     3  C   -0.475280
     4  H    0.147495
     5  H    0.148388
     6  H    0.151236
     7  H    0.152110
     8  H    0.154476
     9  H    0.154028
    10  H    0.158999
    11  C   -0.297590
    12  C   -0.300661
    13  C   -0.475250
    14  H    0.147953
    15  H    0.150619
    16  H    0.145692
    17  H    0.149620
    18  H    0.162595
    19  H    0.147990
    20  H    0.171735
    21  C   -0.170723
    22  C   -0.218527
    23  C   -0.170864
    24  C    0.157959
    25  C   -0.170671
    26  C   -0.218491
    27  H    0.225861
    28  H    0.223689
    29  H    0.275783
    30  H    0.275260
    31  H    0.223728
    32  N    0.492138
    33  O   -0.462905
    34  O   -0.459774
 Sum of Mulliken charges =  -0.00000

 Dipole moment (field-independent basis, Debye):
    X=             -4.1123    Y=             -3.4051    Z=             -0.6110  Tot=              5.3740
 Quadrupole moment (field-independent basis, Debye-Ang):
   XX=            -68.0834   YY=            -95.1327   ZZ=            -92.8866
   XY=             10.8081   XZ=              4.8838   YZ=             -2.9607

 Normal termination of Gaussian 16 at Thu May  6 08:50:33 2021.
