 Gaussian 16, Revision A.03,
 Gaussian 16:  EM64L-G16RevA.03 25-Dec-2016

 -------------
 #p 6-31g* mp2
 -------------

 ------------------------------------------------------
 Input file generated by CHIRIPA (05-May-2021 14:53:13)
 ------------------------------------------------------
 Symbolic Z-matrix:
 Charge =  0 Multiplicity = 1

                         Standard orientation:
 ---------------------------------------------------------------------
 Center     Atomic      Atomic             Coordinates (Angstroms)
 Number     Number       Type             X           Y           Z
 ---------------------------------------------------------------------
      1          6           0        5.849592    0.165717   -0.287318
      2          6           0        7.104182   -0.607669    0.119946
      3          6           0        8.374477   -0.057708   -0.529431
      4          1           0        5.746769    0.135549   -1.380690
      5          1           0        5.974078    1.222723   -0.014123
      6          1           0        6.976801   -1.663161   -0.152685
      7          1           0        7.203926   -0.575819    1.212490
      8          1           0        8.529011    0.988909   -0.247803
      9          1           0        8.300595   -0.104611   -1.620734
     10          1           0        9.259248   -0.625255   -0.224588
     11          6           0        4.571549   -0.372202    0.353756
     12          6           0        3.316959    0.401183   -0.053507
     13          6           0        2.046665   -0.148778    0.595869
     14          1           0        4.447063   -1.429209    0.080562
     15          1           0        4.674372   -0.342035    1.447128
     16          1           0        3.217215    0.369333   -1.146051
     17          1           0        3.444341    1.456675    0.219124
     18          1           0        2.120546   -0.101874    1.687173
     19          1           0        1.892130   -1.195394    0.314241
     20          1           0        1.161893    0.418769    0.291027
     21          6           0       -1.872637    1.300518    0.188823
     22          6           0       -1.903265   -0.097563    0.219699
     23          6           0       -3.115472   -0.783969    0.101591
     24          6           0       -4.283265   -0.037273   -0.046716
     25          6           0       -4.285383    1.356320   -0.081127
     26          6           0       -3.061697    2.021726    0.038774
     27          1           0       -0.926507    1.825577    0.281269
     28          1           0       -0.981388   -0.660265    0.336118
     29          1           0       -3.167978   -1.865742    0.122273
     30          1           0       -5.220825    1.889826   -0.198341
     31          1           0       -3.040929    3.107554    0.014459
     32          7           0       -5.572650   -0.752824   -0.172702
     33          8           0       -6.587573   -0.071832   -0.302379
     34          8           0       -5.543932   -1.981116   -0.139383
 ---------------------------------------------------------------------

 SCF Done:  E(RHF) =  -669.535039115     A.U. after   15 cycles
 E2 =    -0.2091431392D+01 EUMP2 =    -0.67162647050686D+03

 The electronic state is 1-A.
 Alpha  occ. eigenvalues --  -20.60703 -20.60697 -15.85754 -11.31105 -11.27671
 Alpha  occ. eigenvalues --  -11.27651 -11.27401 -11.26696 -11.26608 -11.22623
 Alpha  occ. eigenvalues --  -11.22456 -11.22163 -11.22104 -11.21986 -11.21489
 Alpha  occ. eigenvalues --   -1.59778  -1.39332  -1.19271  -1.09182  -1.08674
 Alpha  occ. eigenvalues --   -1.04672  -1.04333  -0.96816  -0.95512  -0.87854
 Alpha  occ. eigenvalues --   -0.86066  -0.82342  -0.80416  -0.78938  -0.77389
 Alpha  occ. eigenvalues --   -0.71974  -0.71101  -0.70413  -0.65802  -0.64932
 Alpha  occ. eigenvalues --   -0.64721  -0.62071  -0.61711  -0.60183  -0.58389
 Alpha  occ. eigenvalues --   -0.56083  -0.55191  -0.53607  -0.53224  -0.53001
 Alpha  occ. eigenvalues --   -0.52674  -0.50728  -0.48736  -0.48729  -0.48711
 Alpha  occ. eigenvalues --   -0.47409  -0.46493  -0.46381  -0.44741  -0.44572
 Alpha  occ. eigenvalues --   -0.37257  -0.36270
 Alpha virt. eigenvalues --    0.05138   0.11370   0.16636   0.20118   0.22375
 Alpha virt. eigenvalues --    0.23794   0.25719   0.26033   0.26215   0.27368
 Alpha virt. eigenvalues --    0.28583   0.29702   0.30759   0.31481   0.31981

 Mulliken charges:
               1
     1  C   -0.298933
     2  C   -0.300225
     3  C   -0.476109
     4  H    0.150781
     5  H    0.150125
     6  H    0.152910
     7  H    0.152671
     8  H    0.155587
     9  H    0.155870
    10  H    0.161864
    11  C   -0.299694
    12  C   -0.299537
    13  C   -0.483563
    14  H    0.151307
    15  H    0.151149
    16  H    0.154777
    17  H    0.152933
    18  H    0.160723
    19  H    0.157523
    20  H    0.151813
    21  C   -0.175384
    22  C   -0.223385
    23  C   -0.171924
    24  C    0.158628
    25  C   -0.171350
    26  C   -0.218262
    27  H    0.226996
    28  H    0.232194
    29  H    0.275469
    30  H    0.275222
    31  H    0.223053
    32  N    0.488034
    33  O   -0.460679
    34  O   -0.460581
 Sum of Mulliken charges =  -0.00000

 Dipole moment (field-independent basis, Debye):
    X=              4.8455    Y=              2.4894    Z=              0.4519  Tot=              5.4663
 Quadrupole moment (field-independent basis, Debye-Ang):
   XX=           -133.0726   YY=            -90.9322   ZZ=            -95.1586
   XY=            -13.7060   XZ=             -1.4178   YZ=              0.0995

 Normal termination of Gaussian 16 at Thu May  6 17:02:22 2021.
