 Gaussian 16, Revision A.03,
 Gaussian 16:  EM64L-G16RevA.03 25-Dec-2016

 -------------
 #p 6-31g* mp2
 -------------

 ------------------------------------------------------
 Input file generated by CHIRIPA (05-May-2021 14:55:23)
 ------------------------------------------------------
 Symbolic Z-matrix:
 Charge =  0 Multiplicity = 1

                         Standard orientation:
 ---------------------------------------------------------------------
 Center     Atomic      Atomic             Coordinates (Angstroms)
 Number     Number       Type             X           Y           Z
 ---------------------------------------------------------------------
      1          6           0        1.457643   -1.967145    1.069477
      2          6           0        2.530552   -1.414310    1.776414
      3          6           0        3.293783   -0.384765    1.217786
      4          6           0        2.954656    0.069852   -0.055637
      5          6           0        1.891640   -0.460533   -0.785004
      6          6           0        1.142167   -1.489335   -0.206726
      7          1           0        0.870091   -2.766631    1.511065
      8          1           0        2.777850   -1.783401    2.767706
      9          1           0        4.129643    0.061238    1.742988
     10          1           0        1.669301   -0.071713   -1.771312
     11          1           0        0.309482   -1.916786   -0.758057
     12          7           0        3.755372    1.159392   -0.657433
     13          8           0        3.436188    1.542271   -1.780892
     14          8           0        4.686996    1.609862    0.005734
     15          6           0       -3.304130   -0.544402    0.082100
     16          6           0       -3.608486   -1.576617   -1.004125
     17          6           0       -2.983696   -2.941664   -0.714162
     18          1           0       -2.215372   -0.437087    0.182279
     19          1           0       -3.671418   -0.919174    1.047522
     20          1           0       -3.241968   -1.199397   -1.967445
     21          1           0       -4.696647   -1.681347   -1.101863
     22          1           0       -3.357715   -3.343112    0.233228
     23          1           0       -1.894770   -2.858425   -0.637272
     24          1           0       -3.213828   -3.664299   -1.503275
     25          6           0       -3.921954    0.825278   -0.193578
     26          6           0       -3.617597    1.857492    0.892647
     27          6           0       -4.242387    3.222540    0.602685
     28          1           0       -3.554666    1.200050   -1.159001
     29          1           0       -5.010712    0.717962   -0.293758
     30          1           0       -2.529436    1.962222    0.990384
     31          1           0       -3.984116    1.480273    1.855967
     32          1           0       -5.331313    3.139301    0.525793
     33          1           0       -3.868369    3.623988   -0.344707
     34          1           0       -4.012255    3.945174    1.391797
 ---------------------------------------------------------------------

 SCF Done:  E(RHF) =  -669.535589844     A.U. after   15 cycles
 E2 =    -0.2091430943D+01 EUMP2 =    -0.67162702078736D+03

 The electronic state is 1-A.
 Alpha  occ. eigenvalues --  -20.60783 -20.60778 -15.85837 -11.31208 -11.27789
 Alpha  occ. eigenvalues --  -11.27783 -11.27521 -11.26790 -11.26781 -11.22368
 Alpha  occ. eigenvalues --  -11.22126 -11.22014 -11.21913 -11.21803 -11.21272
 Alpha  occ. eigenvalues --   -1.59859  -1.39412  -1.19385  -1.08991  -1.08775
 Alpha  occ. eigenvalues --   -1.04792  -1.04102  -0.96565  -0.95609  -0.87584
 Alpha  occ. eigenvalues --   -0.86190  -0.82443  -0.80175  -0.78764  -0.77491
 Alpha  occ. eigenvalues --   -0.72056  -0.71182  -0.70485  -0.65667  -0.65037
 Alpha  occ. eigenvalues --   -0.64792  -0.62191  -0.61456  -0.59943  -0.58152
 Alpha  occ. eigenvalues --   -0.55886  -0.55275  -0.53253  -0.53117  -0.53058
 Alpha  occ. eigenvalues --   -0.52819  -0.50516  -0.48821  -0.48810  -0.48475
 Alpha  occ. eigenvalues --   -0.47200  -0.46309  -0.46207  -0.44817  -0.44333
 Alpha  occ. eigenvalues --   -0.37356  -0.36388
 Alpha virt. eigenvalues --    0.05049   0.11165   0.16505   0.19246   0.22706
 Alpha virt. eigenvalues --    0.23802   0.25512   0.26522   0.27221   0.28103
 Alpha virt. eigenvalues --    0.28762   0.30243   0.31039   0.31609   0.31920

 Mulliken charges:
               1
     1  C   -0.172583
     2  C   -0.218704
     3  C   -0.170837
     4  C    0.158821
     5  C   -0.172618
     6  C   -0.224666
     7  H    0.226512
     8  H    0.223663
     9  H    0.275761
    10  H    0.276082
    11  H    0.232683
    12  N    0.487971
    13  O   -0.460455
    14  O   -0.460347
    15  C   -0.300932
    16  C   -0.300479
    17  C   -0.478074
    18  H    0.148049
    19  H    0.149838
    20  H    0.152445
    21  H    0.156144
    22  H    0.158000
    23  H    0.143130
    24  H    0.164780
    25  C   -0.298598
    26  C   -0.300415
    27  C   -0.476161
    28  H    0.150911
    29  H    0.150823
    30  H    0.153806
    31  H    0.151403
    32  H    0.155168
    33  H    0.157008
    34  H    0.161871
 Sum of Mulliken charges =  -0.00000

 Dipole moment (field-independent basis, Debye):
    X=             -2.9458    Y=             -3.7858    Z=              2.1410  Tot=              5.2530
 Quadrupole moment (field-independent basis, Debye-Ang):
   XX=           -109.1476   YY=            -96.9025   ZZ=            -91.5790
   XY=            -10.8788   XZ=              8.8616   YZ=              0.3658

 Normal termination of Gaussian 16 at Thu May  6 04:41:17 2021.
