 Gaussian 16, Revision A.03,
 Gaussian 16:  EM64L-G16RevA.03 25-Dec-2016

 -------------
 #p 6-31g* mp2
 -------------

 ------------------------------------------------------
 Input file generated by CHIRIPA (05-May-2021 14:57:22)
 ------------------------------------------------------
 Symbolic Z-matrix:
 Charge =  0 Multiplicity = 1

                         Standard orientation:
 ---------------------------------------------------------------------
 Center     Atomic      Atomic             Coordinates (Angstroms)
 Number     Number       Type             X           Y           Z
 ---------------------------------------------------------------------
      1          6           0        3.355555    1.287446   -1.568567
      2          6           0        2.793096    0.080043   -1.995578
      3          6           0        2.177309   -0.779200   -1.080670
      4          6           0        2.141765   -0.397898    0.259716
      5          6           0        2.693156    0.798363    0.716024
      6          6           0        3.303881    1.642127   -0.216513
      7          1           0        3.831947    1.948915   -2.286137
      8          1           0        2.831752   -0.197990   -3.044982
      9          1           0        1.733930   -1.719847   -1.384012
     10          1           0        2.639087    1.048306    1.768651
     11          1           0        3.739862    2.579192    0.117965
     12          7           0        1.492538   -1.299346    1.237619
     13          8           0        1.474338   -0.940442    2.412989
     14          8           0        1.014167   -2.347737    0.810214
     15          6           0       -2.073790    2.528477    0.969530
     16          6           0       -2.405045    2.413560   -0.384570
     17          6           0       -2.504797    1.155844   -0.986855
     18          6           0       -2.265681    0.028989   -0.201803
     19          6           0       -1.933774    0.110775    1.149655
     20          6           0       -1.839625    1.378745    1.730978
     21          1           0       -1.998477    3.509484    1.429257
     22          1           0       -2.587438    3.304732   -0.978362
     23          1           0       -2.759595    1.038019   -2.033094
     24          1           0       -1.757620   -0.795765    1.715845
     25          1           0       -1.582196    1.464966    2.782805
     26          7           0       -2.368319   -1.307927   -0.828320
     27          8           0       -2.152875   -2.285343   -0.114963
     28          8           0       -2.662266   -1.353070   -2.020877
 ---------------------------------------------------------------------

 SCF Done:  E(RHF) =  -868.337814176     A.U. after   16 cycles
 E2 =    -0.2602537598D+01 EUMP2 =    -0.87094035177329D+03

 The electronic state is 1-A.
 Alpha  occ. eigenvalues --  -20.60879 -20.60716 -20.60267 -20.60121 -15.85806
 Alpha  occ. eigenvalues --  -15.85232 -11.31189 -11.30748 -11.27810 -11.27691
 Alpha  occ. eigenvalues --  -11.27521 -11.27392 -11.27171 -11.27134 -11.26822
 Alpha  occ. eigenvalues --  -11.26735 -11.26453 -11.26301  -1.59874  -1.59275
 Alpha  occ. eigenvalues --   -1.39418  -1.38811  -1.19366  -1.18938  -1.08768
 Alpha  occ. eigenvalues --   -1.08321  -1.04766  -1.04336  -0.95597  -0.95121
 Alpha  occ. eigenvalues --   -0.86167  -0.85736  -0.82422  -0.81925  -0.77472
 Alpha  occ. eigenvalues --   -0.76944  -0.72036  -0.71491  -0.71246  -0.70541
 Alpha  occ. eigenvalues --   -0.70477  -0.70014  -0.65017  -0.64772  -0.64572
 Alpha  occ. eigenvalues --   -0.64324  -0.62107  -0.61640  -0.55282  -0.54867
 Alpha  occ. eigenvalues --   -0.53135  -0.52857  -0.52667  -0.52404  -0.48820
 Alpha  occ. eigenvalues --   -0.48794  -0.48247  -0.48200  -0.44943  -0.44009
 Alpha  occ. eigenvalues --   -0.37384  -0.36965  -0.36357  -0.35938
 Alpha virt. eigenvalues --    0.05018   0.05556   0.11254   0.11683   0.16499
 Alpha virt. eigenvalues --    0.17029   0.21389   0.21888   0.27315   0.27772
 Alpha virt. eigenvalues --    0.28339   0.28821   0.30961   0.31337   0.32580

 Mulliken charges:
               1
     1  C   -0.171196
     2  C   -0.218584
     3  C   -0.173058
     4  C    0.158578
     5  C   -0.170739
     6  C   -0.219000
     7  H    0.224927
     8  H    0.225784
     9  H    0.283004
    10  H    0.271886
    11  H    0.221215
    12  N    0.484881
    13  O   -0.471256
    14  O   -0.445330
    15  C   -0.172694
    16  C   -0.218794
    17  C   -0.172493
    18  C    0.156345
    19  C   -0.180407
    20  C   -0.219087
    21  H    0.222474
    22  H    0.219876
    23  H    0.272595
    24  H    0.291789
    25  H    0.228175
    26  N    0.485345
    27  O   -0.445109
    28  O   -0.469126
 Sum of Mulliken charges =  -0.00000

 Dipole moment (field-independent basis, Debye):
    X=              2.6875    Y=              7.5078    Z=             -1.1771  Tot=              8.0607
 Quadrupole moment (field-independent basis, Debye-Ang):
   XX=            -98.1626   YY=           -104.7172   ZZ=           -101.6601
   XY=             -4.3347   XZ=            -10.7278   YZ=              1.8368

 Normal termination of Gaussian 16 at Thu May  6 06:33:04 2021.
