 Gaussian 16, Revision A.03,
 Gaussian 16:  EM64L-G16RevA.03 25-Dec-2016

 -------------
 #p 6-31g* mp2
 -------------

 ------------------------------------------------------
 Input file generated by CHIRIPA (05-May-2021 14:53:18)
 ------------------------------------------------------
 Symbolic Z-matrix:
 Charge =  0 Multiplicity = 1

                         Standard orientation:
 ---------------------------------------------------------------------
 Center     Atomic      Atomic             Coordinates (Angstroms)
 Number     Number       Type             X           Y           Z
 ---------------------------------------------------------------------
      1          6           0        4.615043    0.030450    0.190383
      2          6           0        4.566470   -1.485016   -0.007067
      3          6           0        5.938449   -2.144260    0.137379
      4          1           0        5.311612    0.466665   -0.538626
      5          1           0        5.025701    0.250577    1.185521
      6          1           0        4.154736   -1.702247   -1.001000
      7          1           0        3.869791   -1.917652    0.722371
      8          1           0        6.353012   -1.956788    1.133166
      9          1           0        6.639577   -1.740158   -0.599997
     10          1           0        5.880596   -3.227541   -0.007587
     11          6           0        3.251110    0.703825    0.049034
     12          6           0        3.299683    2.219292    0.246485
     13          6           0        1.927704    2.878535    0.102039
     14          1           0        2.840452    0.483698   -0.946104
     15          1           0        2.554541    0.267610    0.778043
     16          1           0        3.996362    2.651928   -0.482953
     17          1           0        3.711417    2.436522    1.240417
     18          1           0        1.226576    2.474433    0.839414
     19          1           0        1.513141    2.691063   -0.893749
     20          1           0        1.985557    3.961817    0.247004
     21          6           0       -0.613546   -0.515020   -0.609599
     22          6           0       -1.221960    0.744037   -0.643211
     23          6           0       -2.583818    0.882324   -0.359013
     24          6           0       -3.310459   -0.264766   -0.043630
     25          6           0       -2.732993   -1.532867   -0.001925
     26          6           0       -1.369671   -1.647457   -0.289628
     27          1           0        0.444946   -0.613241   -0.831733
     28          1           0       -0.637214    1.625243   -0.891390
     29          1           0       -3.080164    1.844980   -0.377784
     30          1           0       -3.341922   -2.392961    0.248797
     31          1           0       -0.899825   -2.626522   -0.262765
     32          7           0       -4.752972   -0.130911    0.259093
     33          8           0       -5.371173   -1.156979    0.534137
     34          8           0       -5.238098    0.997539    0.215591
 ---------------------------------------------------------------------

 SCF Done:  E(RHF) =  -669.535203035     A.U. after   15 cycles
 E2 =    -0.2092461018D+01 EUMP2 =    -0.67162766405249D+03

 The electronic state is 1-A.
 Alpha  occ. eigenvalues --  -20.60667 -20.60662 -15.85718 -11.31052 -11.27622
 Alpha  occ. eigenvalues --  -11.27599 -11.27283 -11.26623 -11.26529 -11.22706
 Alpha  occ. eigenvalues --  -11.22625 -11.22548 -11.22349 -11.22305 -11.21817
 Alpha  occ. eigenvalues --   -1.59743  -1.39298  -1.19214  -1.09511  -1.08607
 Alpha  occ. eigenvalues --   -1.04632  -1.04536  -0.97026  -0.95452  -0.88050
 Alpha  occ. eigenvalues --   -0.86007  -0.82286  -0.80649  -0.79359  -0.77341
 Alpha  occ. eigenvalues --   -0.71937  -0.71066  -0.70303  -0.66125  -0.64859
 Alpha  occ. eigenvalues --   -0.64641  -0.62025  -0.61910  -0.60368  -0.58645
 Alpha  occ. eigenvalues --   -0.56315  -0.55137  -0.53670  -0.53513  -0.52946
 Alpha  occ. eigenvalues --   -0.52578  -0.50953  -0.48938  -0.48695  -0.48664
 Alpha  occ. eigenvalues --   -0.47661  -0.46850  -0.46780  -0.44819  -0.44710
 Alpha  occ. eigenvalues --   -0.37178  -0.36216
 Alpha virt. eigenvalues --    0.05173   0.11365   0.16631   0.19958   0.22295
 Alpha virt. eigenvalues --    0.23484   0.24992   0.25306   0.26073   0.28464
 Alpha virt. eigenvalues --    0.29447   0.30069   0.30760   0.31233   0.31599

 Mulliken charges:
               1
     1  C   -0.297844
     2  C   -0.301300
     3  C   -0.476066
     4  H    0.152756
     5  H    0.153576
     6  H    0.149332
     7  H    0.151006
     8  H    0.157559
     9  H    0.157166
    10  H    0.162033
    11  C   -0.305447
    12  C   -0.299023
    13  C   -0.484336
    14  H    0.143564
    15  H    0.151430
    16  H    0.155830
    17  H    0.157455
    18  H    0.160088
    19  H    0.148146
    20  H    0.167618
    21  C   -0.177996
    22  C   -0.224962
    23  C   -0.173050
    24  C    0.158548
    25  C   -0.171255
    26  C   -0.220003
    27  H    0.233313
    28  H    0.232204
    29  H    0.275446
    30  H    0.274894
    31  H    0.223031
    32  N    0.488007
    33  O   -0.460954
    34  O   -0.460764
 Sum of Mulliken charges =  -0.00000

 Dipole moment (field-independent basis, Debye):
    X=              5.4296    Y=             -0.3799    Z=             -0.9693  Tot=              5.5285
 Quadrupole moment (field-independent basis, Debye-Ang):
   XX=           -128.8203   YY=            -89.6007   ZZ=            -94.4190
   XY=              1.3137   XZ=              3.3196   YZ=             -0.4805

 Normal termination of Gaussian 16 at Thu May  6 06:01:41 2021.
