 Gaussian 16, Revision A.03,
 Gaussian 16:  EM64L-G16RevA.03 25-Dec-2016

 -------------
 #p 6-31g* mp2
 -------------

 ------------------------------------------------------
 Input file generated by CHIRIPA (05-May-2021 14:57:23)
 ------------------------------------------------------
 Symbolic Z-matrix:
 Charge =  0 Multiplicity = 1

                         Standard orientation:
 ---------------------------------------------------------------------
 Center     Atomic      Atomic             Coordinates (Angstroms)
 Number     Number       Type             X           Y           Z
 ---------------------------------------------------------------------
      1          6           0        2.304589    1.833164    1.826132
      2          6           0        1.864176    0.505551    1.827052
      3          6           0        2.355029   -0.405991    0.887529
      4          6           0        3.289638    0.046162   -0.042716
      5          6           0        3.747920    1.362430   -0.069268
      6          6           0        3.243400    2.256620    0.879643
      7          1           0        1.917974    2.534532    2.559622
      8          1           0        1.135153    0.173891    2.560927
      9          1           0        2.031272   -1.439489    0.865622
     10          1           0        4.475379    1.663561   -0.813271
     11          1           0        3.587232    3.287064    0.876558
     12          7           0        3.816516   -0.909662   -1.042316
     13          8           0        4.639288   -0.486423   -1.851360
     14          8           0        3.396734   -2.063976   -0.997831
     15          6           0       -4.582074    1.646037   -1.142830
     16          6           0       -5.169527    0.748680   -0.244960
     17          6           0       -4.414906   -0.280035    0.326740
     18          6           0       -3.069459   -0.382518   -0.023343
     19          6           0       -2.455446    0.495919   -0.914761
     20          6           0       -3.229292    1.517020   -1.474281
     21          1           0       -5.175750    2.442210   -1.582210
     22          1           0       -6.219896    0.846466    0.014285
     23          1           0       -4.844353   -0.988523    1.024621
     24          1           0       -1.406084    0.373044   -1.153844
     25          1           0       -2.770413    2.212474   -2.171287
     26          7           0       -2.260398   -1.467542    0.575443
     27          8           0       -1.077001   -1.536388    0.250685
     28          8           0       -2.824975   -2.228592    1.358190
 ---------------------------------------------------------------------

 SCF Done:  E(RHF) =  -868.339072485     A.U. after   16 cycles
 E2 =    -0.2599207956D+01 EUMP2 =    -0.87093828044101D+03

 The electronic state is 1-A.
 Alpha  occ. eigenvalues --  -20.61292 -20.61277 -20.60168 -20.60128 -15.86322
 Alpha  occ. eigenvalues --  -15.85201 -11.31548 -11.30519 -11.28108 -11.28081
 Alpha  occ. eigenvalues --  -11.27825 -11.27198 -11.27090 -11.27072 -11.26942
 Alpha  occ. eigenvalues --  -11.26927 -11.26223 -11.26029  -1.60357  -1.59232
 Alpha  occ. eigenvalues --   -1.39912  -1.38781  -1.19711  -1.18724  -1.09134
 Alpha  occ. eigenvalues --   -1.08147  -1.05089  -1.04091  -0.95990  -0.94968
 Alpha  occ. eigenvalues --   -0.86493  -0.85507  -0.82825  -0.81780  -0.77886
 Alpha  occ. eigenvalues --   -0.76812  -0.72553  -0.71675  -0.71418  -0.70813
 Alpha  occ. eigenvalues --   -0.70560  -0.69832  -0.65365  -0.65087  -0.64366
 Alpha  occ. eigenvalues --   -0.64095  -0.62431  -0.61401  -0.55597  -0.54659
 Alpha  occ. eigenvalues --   -0.53434  -0.53175  -0.52475  -0.52168  -0.49306
 Alpha  occ. eigenvalues --   -0.49290  -0.48192  -0.48161  -0.45346  -0.44193
 Alpha  occ. eigenvalues --   -0.37692  -0.36772  -0.36688  -0.35683
 Alpha virt. eigenvalues --    0.04608   0.05699   0.10966   0.11939   0.16123
 Alpha virt. eigenvalues --    0.17166   0.21129   0.22071   0.27058   0.27869
 Alpha virt. eigenvalues --    0.28135   0.28991   0.30709   0.31564   0.32224

 Mulliken charges:
               1
     1  C   -0.173262
     2  C   -0.221395
     3  C   -0.165068
     4  C    0.153628
     5  C   -0.173212
     6  C   -0.220762
     7  H    0.222039
     8  H    0.227644
     9  H    0.290578
    10  H    0.272598
    11  H    0.219364
    12  N    0.487571
    13  O   -0.465393
    14  O   -0.455525
    15  C   -0.170434
    16  C   -0.218808
    17  C   -0.171052
    18  C    0.156758
    19  C   -0.171087
    20  C   -0.219031
    21  H    0.226681
    22  H    0.224345
    23  H    0.275872
    24  H    0.278000
    25  H    0.224984
    26  N    0.489171
    27  O   -0.465352
    28  O   -0.458851
 Sum of Mulliken charges =  -0.00000

 Dipole moment (field-independent basis, Debye):
    X=             -4.9954    Y=              6.9729    Z=              1.4282  Tot=              8.6957
 Quadrupole moment (field-independent basis, Debye-Ang):
   XX=            -95.9926   YY=           -105.4208   ZZ=           -104.2212
   XY=              3.3240   XZ=             14.9828   YZ=             -2.1272

 Normal termination of Gaussian 16 at Wed May  5 22:38:14 2021.
