 Gaussian 16, Revision A.03,
 Gaussian 16:  EM64L-G16RevA.03 25-Dec-2016

 -------------
 #p 6-31g* mp2
 -------------

 ------------------------------------------------------
 Input file generated by CHIRIPA (05-May-2021 14:51:11)
 ------------------------------------------------------
 Symbolic Z-matrix:
 Charge =  0 Multiplicity = 1

                         Standard orientation:
 ---------------------------------------------------------------------
 Center     Atomic      Atomic             Coordinates (Angstroms)
 Number     Number       Type             X           Y           Z
 ---------------------------------------------------------------------
      1          6           0        5.159374   -0.668361    0.023449
      2          6           0        6.630841   -0.252732    0.027963
      3          6           0        7.581963   -1.446261    0.120971
      4          1           0        4.943777   -1.240592    0.936145
      5          1           0        4.980118   -1.347937   -0.821205
      6          1           0        6.806961    0.426952    0.871543
      7          1           0        6.842914    0.318740   -0.884759
      8          1           0        7.435267   -2.122770   -0.727214
      9          1           0        7.399110   -2.013944    1.039068
     10          1           0        8.628629   -1.126342    0.122686
     11          6           0        4.196227    0.513802   -0.069105
     12          6           0        2.724759    0.098172   -0.073619
     13          6           0        1.773637    1.291701   -0.166627
     14          1           0        4.375482    1.193377    0.775549
     15          1           0        4.411824    1.086033   -0.981801
     16          1           0        2.512687   -0.473300    0.839103
     17          1           0        2.548640   -0.581511   -0.917199
     18          1           0        1.956491    1.859384   -1.084724
     19          1           0        1.920333    1.968210    0.681557
     20          1           0        0.726972    0.971783   -0.168342
     21          6           0       -3.931443    0.211419   -0.068764
     22          6           0       -3.539579    1.665318    0.196951
     23          6           0       -2.043292    1.917971    0.009640
     24          1           0       -3.360523   -0.444174    0.602946
     25          1           0       -3.638389   -0.058740   -1.092741
     26          1           0       -3.834534    1.933076    1.219656
     27          1           0       -4.111639    2.317540   -0.475337
     28          1           0       -1.737236    1.678021   -1.013764
     29          1           0       -1.458557    1.291373    0.690859
     30          1           0       -1.785196    2.963549    0.204606
     31          6           0       -5.424158   -0.056859    0.114420
     32          6           0       -5.816021   -1.510759   -0.151296
     33          6           0       -7.312308   -1.763411    0.036017
     34          1           0       -5.717212    0.213300    1.138396
     35          1           0       -5.995077    0.598732   -0.557290
     36          1           0       -5.243962   -2.162980    0.520993
     37          1           0       -5.521067   -1.778516   -1.173999
     38          1           0       -7.897043   -1.136813   -0.645203
     39          1           0       -7.618364   -1.523462    1.059421
     40          1           0       -7.570405   -2.808989   -0.158950
 ---------------------------------------------------------------------

 SCF Done:  E(RHF) =  -470.732770711     A.U. after   11 cycles
 E2 =    -0.1582423304D+01 EUMP2 =    -0.47231519401486D+03

 The electronic state is 1-A.
 Alpha  occ. eigenvalues --  -11.21604 -11.21588 -11.21567 -11.21512 -11.21408
 Alpha  occ. eigenvalues --  -11.21350 -11.21349 -11.21287 -11.21073 -11.21052
 Alpha  occ. eigenvalues --  -11.21045 -11.20870  -1.08433  -1.08368  -1.03542
 Alpha  occ. eigenvalues --   -1.03449  -0.96026  -0.95866  -0.87091  -0.86838
 Alpha  occ. eigenvalues --   -0.79667  -0.79458  -0.78249  -0.78181  -0.65063
 Alpha  occ. eigenvalues --   -0.65000  -0.60942  -0.60848  -0.59353  -0.59316
 Alpha  occ. eigenvalues --   -0.57720  -0.57401  -0.55299  -0.55165  -0.52977
 Alpha  occ. eigenvalues --   -0.52623  -0.52366  -0.52042  -0.49955  -0.49812
 Alpha  occ. eigenvalues --   -0.48012  -0.47716  -0.46641  -0.46546  -0.45789
 Alpha  occ. eigenvalues --   -0.45724  -0.45711  -0.45653  -0.43818  -0.43617
 Alpha virt. eigenvalues --    0.22591   0.22979   0.23685   0.24768   0.26602
 Alpha virt. eigenvalues --    0.26715   0.26770   0.27533   0.27628   0.29016
 Alpha virt. eigenvalues --    0.30986   0.31352   0.31430   0.31826   0.32089

 Mulliken charges:
               1
     1  C   -0.298120
     2  C   -0.299558
     3  C   -0.475653
     4  H    0.149424
     5  H    0.149356
     6  H    0.151838
     7  H    0.151865
     8  H    0.155111
     9  H    0.155088
    10  H    0.160124
    11  C   -0.298322
    12  C   -0.299263
    13  C   -0.482752
    14  H    0.149287
    15  H    0.149460
    16  H    0.151028
    17  H    0.151336
    18  H    0.154043
    19  H    0.154011
    20  H    0.171013
    21  C   -0.298349
    22  C   -0.300154
    23  C   -0.477190
    24  H    0.149392
    25  H    0.149420
    26  H    0.151835
    27  H    0.151848
    28  H    0.155806
    29  H    0.156567
    30  H    0.161373
    31  C   -0.298236
    32  C   -0.299646
    33  C   -0.475709
    34  H    0.149549
    35  H    0.149699
    36  H    0.151927
    37  H    0.151918
    38  H    0.155190
    39  H    0.155187
    40  H    0.160257
 Sum of Mulliken charges =  -0.00000

 Dipole moment (field-independent basis, Debye):
    X=             -0.0505    Y=              0.0185    Z=             -0.0012  Tot=              0.0538
 Quadrupole moment (field-independent basis, Debye-Ang):
   XX=            -86.8135   YY=            -85.4248   ZZ=            -82.7513
   XY=              0.1911   XZ=              0.1906   YZ=             -0.0817

 Normal termination of Gaussian 16 at Wed May  5 16:43:51 2021.
