 Gaussian 16, Revision A.03,
 Gaussian 16:  EM64L-G16RevA.03 25-Dec-2016

 -------------
 #p 6-31g* mp2
 -------------

 ------------------------------------------------------
 Input file generated by CHIRIPA (05-May-2021 14:53:17)
 ------------------------------------------------------
 Symbolic Z-matrix:
 Charge =  0 Multiplicity = 1

                         Standard orientation:
 ---------------------------------------------------------------------
 Center     Atomic      Atomic             Coordinates (Angstroms)
 Number     Number       Type             X           Y           Z
 ---------------------------------------------------------------------
      1          6           0       -4.281074   -0.379020    0.164339
      2          6           0       -5.102939   -1.283983   -0.754119
      3          6           0       -5.895817   -2.342055    0.013750
      4          1           0       -3.592531   -0.996886    0.756872
      5          1           0       -4.953870    0.113383    0.880076
      6          1           0       -4.428963   -1.773471   -1.468803
      7          1           0       -5.789471   -0.663873   -1.344672
      8          1           0       -6.590894   -1.869000    0.714955
      9          1           0       -5.222656   -2.984903    0.590119
     10          1           0       -6.476072   -2.977905   -0.662163
     11          6           0       -3.482905    0.683868   -0.588603
     12          6           0       -2.661040    1.588831    0.329854
     13          6           0       -1.868162    2.646903   -0.438015
     14          1           0       -2.810109    0.191465   -1.304340
     15          1           0       -4.171448    1.301734   -1.181136
     16          1           0       -1.974508    0.968721    0.920407
     17          1           0       -3.335016    2.078319    1.044539
     18          1           0       -2.541323    3.289751   -1.014383
     19          1           0       -1.173085    2.173848   -1.139220
     20          1           0       -1.287907    3.282754    0.237898
     21          6           0        1.061740    0.979401    1.294518
     22          6           0        1.611937   -0.190310    1.828917
     23          6           0        2.704108   -0.807533    1.211870
     24          6           0        3.223359   -0.225278    0.056601
     25          6           0        2.697347    0.939506   -0.500066
     26          6           0        1.605242    1.539587    0.133779
     27          1           0        0.213341    1.452216    1.780379
     28          1           0        1.191903   -0.627589    2.730250
     29          1           0        3.149606   -1.713636    1.604203
     30          1           0        3.137744    1.351896   -1.399734
     31          1           0        1.180002    2.447941   -0.283485
     32          7           0        4.379557   -0.869631   -0.605530
     33          8           0        4.818708   -0.336813   -1.622333
     34          8           0        4.824740   -1.895292   -0.095169
 ---------------------------------------------------------------------

 SCF Done:  E(RHF) =  -669.534464045     A.U. after   15 cycles
 E2 =    -0.2092930602D+01 EUMP2 =    -0.67162739464654D+03

 The electronic state is 1-A.
 Alpha  occ. eigenvalues --  -20.60748 -20.60742 -15.85800 -11.31162 -11.27729
 Alpha  occ. eigenvalues --  -11.27708 -11.27419 -11.26746 -11.26663 -11.22670
 Alpha  occ. eigenvalues --  -11.22300 -11.22153 -11.22092 -11.22001 -11.21482
 Alpha  occ. eigenvalues --   -1.59823  -1.39377  -1.19330  -1.09193  -1.08720
 Alpha  occ. eigenvalues --   -1.04735  -1.04322  -0.96788  -0.95555  -0.87815
 Alpha  occ. eigenvalues --   -0.86114  -0.82401  -0.80416  -0.78954  -0.77441
 Alpha  occ. eigenvalues --   -0.72018  -0.71147  -0.70478  -0.65840  -0.64976
 Alpha  occ. eigenvalues --   -0.64750  -0.62160  -0.61625  -0.60183  -0.58385
 Alpha  occ. eigenvalues --   -0.56048  -0.55221  -0.53543  -0.53216  -0.53026
 Alpha  occ. eigenvalues --   -0.52771  -0.50669  -0.48782  -0.48774  -0.48712
 Alpha  occ. eigenvalues --   -0.47397  -0.46503  -0.46382  -0.44783  -0.44560
 Alpha  occ. eigenvalues --   -0.37281  -0.36326
 Alpha virt. eigenvalues --    0.05053   0.11234   0.16441   0.20069   0.22521
 Alpha virt. eigenvalues --    0.24037   0.25839   0.26022   0.26259   0.27901
 Alpha virt. eigenvalues --    0.29240   0.29957   0.30460   0.31427   0.31965

 Mulliken charges:
               1
     1  C   -0.298876
     2  C   -0.300450
     3  C   -0.476112
     4  H    0.149007
     5  H    0.149896
     6  H    0.153887
     7  H    0.153013
     8  H    0.155356
     9  H    0.155408
    10  H    0.162321
    11  C   -0.298941
    12  C   -0.303080
    13  C   -0.483101
    14  H    0.153377
    15  H    0.152130
    16  H    0.147207
    17  H    0.154502
    18  H    0.162713
    19  H    0.159313
    20  H    0.151492
    21  C   -0.171657
    22  C   -0.220299
    23  C   -0.171055
    24  C    0.158711
    25  C   -0.172432
    26  C   -0.220930
    27  H    0.229358
    28  H    0.223201
    29  H    0.275387
    30  H    0.275463
    31  H    0.228191
    32  N    0.488024
    33  O   -0.460462
    34  O   -0.460564
 Sum of Mulliken charges =  -0.00000

 Dipole moment (field-independent basis, Debye):
    X=             -4.2696    Y=              2.2351    Z=              2.2454  Tot=              5.3166
 Quadrupole moment (field-independent basis, Debye-Ang):
   XX=           -120.9840   YY=            -93.8843   ZZ=            -92.5760
   XY=              7.3159   XZ=              7.7720   YZ=             -3.0353

 Normal termination of Gaussian 16 at Thu May  6 09:06:37 2021.
