 Gaussian 16, Revision A.03,
 Gaussian 16:  EM64L-G16RevA.03 25-Dec-2016

 -------------
 #p 6-31g* mp2
 -------------

 ------------------------------------------------------
 Input file generated by CHIRIPA (05-May-2021 14:51:12)
 ------------------------------------------------------
 Symbolic Z-matrix:
 Charge =  0 Multiplicity = 1

                         Standard orientation:
 ---------------------------------------------------------------------
 Center     Atomic      Atomic             Coordinates (Angstroms)
 Number     Number       Type             X           Y           Z
 ---------------------------------------------------------------------
      1          6           0        2.281696   -0.220108   -0.667189
      2          6           0        3.107355   -1.485789   -0.900268
      3          6           0        2.432108   -2.463182   -1.862837
      4          1           0        1.294837   -0.500890   -0.274485
      5          1           0        2.104720    0.276552   -1.631244
      6          1           0        3.283897   -1.979176    0.064106
      7          1           0        4.092432   -1.201949   -1.292283
      8          1           0        2.270347   -1.993329   -2.838374
      9          1           0        1.457218   -2.774973   -1.474279
     10          1           0        3.039479   -3.360824   -2.015147
     11          6           0        2.943606    0.766760    0.292860
     12          6           0        2.117947    2.032440    0.525940
     13          6           0        2.793194    3.009834    1.488508
     14          1           0        3.120583    0.270100    1.256915
     15          1           0        3.930465    1.047542   -0.099844
     16          1           0        1.132871    1.748601    0.917954
     17          1           0        1.941405    2.525828   -0.438434
     18          1           0        3.768084    3.321625    1.099951
     19          1           0        2.954955    2.539981    2.464046
     20          1           0        2.185823    3.907476    1.640819
     21          6           0       -2.562094   -0.642460    0.853960
     22          6           0       -1.678526   -1.888815    0.791595
     23          6           0       -1.587248   -2.616472    2.133227
     24          1           0       -2.166978    0.041497    1.617526
     25          1           0       -3.569295   -0.931715    1.184524
     26          1           0       -0.673668   -1.597495    0.459916
     27          1           0       -2.075680   -2.569799    0.027956
     28          1           0       -2.580057   -2.935134    2.466973
     29          1           0       -1.170080   -1.957307    2.901388
     30          1           0       -0.950791   -3.504308    2.065921
     31          6           0       -2.663208    0.095808   -0.479631
     32          6           0       -3.546777    1.342163   -0.417266
     33          6           0       -3.638054    2.069820   -1.758899
     34          1           0       -1.656007    0.385063   -0.810196
     35          1           0       -3.058324   -0.588148   -1.243196
     36          1           0       -3.149623    2.023147    0.346373
     37          1           0       -4.551634    1.050844   -0.085587
     38          1           0       -4.055223    1.410654   -2.527059
     39          1           0       -2.645245    2.388482   -2.092645
     40          1           0       -4.274511    2.957657   -1.691592
 ---------------------------------------------------------------------

 SCF Done:  E(RHF) =  -470.733408613     A.U. after   11 cycles
 E2 =    -0.1583553078D+01 EUMP2 =    -0.47231696169041D+03

 The electronic state is 1-A.
 Alpha  occ. eigenvalues --  -11.21673 -11.21647 -11.21627 -11.21597 -11.21452
 Alpha  occ. eigenvalues --  -11.21426 -11.21391 -11.21353 -11.21123 -11.21123
 Alpha  occ. eigenvalues --  -11.21069 -11.21059  -1.08492  -1.08440  -1.03575
 Alpha  occ. eigenvalues --   -1.03546  -0.96015  -0.95997  -0.87034  -0.87012
 Alpha  occ. eigenvalues --   -0.79667  -0.79589  -0.78383  -0.78179  -0.65269
 Alpha  occ. eigenvalues --   -0.64942  -0.61040  -0.60884  -0.59406  -0.59344
 Alpha  occ. eigenvalues --   -0.57633  -0.57601  -0.55311  -0.55276  -0.52711
 Alpha  occ. eigenvalues --   -0.52693  -0.52446  -0.52417  -0.50003  -0.49906
 Alpha  occ. eigenvalues --   -0.48049  -0.47878  -0.46856  -0.46571  -0.46180
 Alpha  occ. eigenvalues --   -0.45783  -0.45771  -0.45201  -0.43826  -0.43801
 Alpha virt. eigenvalues --    0.19808   0.22970   0.23807   0.24682   0.25165
 Alpha virt. eigenvalues --    0.26798   0.27022   0.27541   0.28082   0.30235
 Alpha virt. eigenvalues --    0.30861   0.31467   0.31728   0.31824   0.32046

 Mulliken charges:
               1
     1  C   -0.309257
     2  C   -0.299014
     3  C   -0.477427
     4  H    0.159086
     5  H    0.149725
     6  H    0.151855
     7  H    0.152145
     8  H    0.155268
     9  H    0.156990
    10  H    0.160266
    11  C   -0.297618
    12  C   -0.300119
    13  C   -0.475732
    14  H    0.149593
    15  H    0.150080
    16  H    0.151180
    17  H    0.152005
    18  H    0.155525
    19  H    0.155332
    20  H    0.160358
    21  C   -0.297627
    22  C   -0.310242
    23  C   -0.475120
    24  H    0.149082
    25  H    0.149868
    26  H    0.160269
    27  H    0.152517
    28  H    0.155650
    29  H    0.154836
    30  H    0.160189
    31  C   -0.300646
    32  C   -0.299554
    33  C   -0.475765
    34  H    0.151966
    35  H    0.149731
    36  H    0.151921
    37  H    0.151852
    38  H    0.155140
    39  H    0.155523
    40  H    0.160167
 Sum of Mulliken charges =  -0.00000

 Dipole moment (field-independent basis, Debye):
    X=              0.0078    Y=             -0.0011    Z=             -0.0087  Tot=              0.0117
 Quadrupole moment (field-independent basis, Debye-Ang):
   XX=            -84.0050   YY=            -85.2985   ZZ=            -85.3641
   XY=              0.5297   XZ=             -0.5482   YZ=             -0.1845

 Normal termination of Gaussian 16 at Wed May  5 21:33:40 2021.
