 Gaussian 16, Revision A.03,
 Gaussian 16:  EM64L-G16RevA.03 25-Dec-2016

 -------------
 #p 6-31g* mp2
 -------------

 ------------------------------------------------------
 Input file generated by CHIRIPA (05-May-2021 14:51:11)
 ------------------------------------------------------
 Symbolic Z-matrix:
 Charge =  0 Multiplicity = 1

                         Standard orientation:
 ---------------------------------------------------------------------
 Center     Atomic      Atomic             Coordinates (Angstroms)
 Number     Number       Type             X           Y           Z
 ---------------------------------------------------------------------
      1          6           0        3.872628    0.753346    0.154829
      2          6           0        4.934236    1.733001   -0.346418
      3          6           0        4.675019    3.169463    0.108750
      4          1           0        2.885297    1.079374   -0.199893
      5          1           0        3.838379    0.790623    1.252478
      6          1           0        4.967435    1.692875   -1.442731
      7          1           0        5.919178    1.404496    0.009379
      8          1           0        4.662574    3.230928    1.201759
      9          1           0        3.705424    3.520946   -0.258602
     10          1           0        5.445847    3.852962   -0.260728
     11          6           0        4.118017   -0.686744   -0.291996
     12          6           0        3.056409   -1.666400    0.209251
     13          6           0        3.315626   -3.102862   -0.245917
     14          1           0        4.152267   -0.724022   -1.389644
     15          1           0        5.105348   -1.012773    0.062726
     16          1           0        2.071468   -1.337895   -0.146546
     17          1           0        3.023210   -1.626274    1.305565
     18          1           0        4.285221   -3.454344    0.121435
     19          1           0        3.328071   -3.164326   -1.338926
     20          1           0        2.544799   -3.786361    0.123561
     21          6           0       -3.322625   -0.003008    0.429127
     22          6           0       -2.301949   -1.007809   -0.106205
     23          6           0       -0.961182   -0.935076    0.625129
     24          1           0       -2.909946    1.011347    0.341232
     25          1           0       -3.478464   -0.185219    1.501464
     26          1           0       -2.149116   -0.824645   -1.177517
     27          1           0       -2.717183   -2.019874   -0.017202
     28          1           0       -1.093055   -1.139286    1.692607
     29          1           0       -0.521760    0.062734    0.525699
     30          1           0       -0.246476   -1.661790    0.226455
     31          6           0       -4.668021   -0.063594   -0.291961
     32          6           0       -5.688696    0.941208    0.243372
     33          6           0       -7.029464    0.868474   -0.487962
     34          1           0       -4.512181    0.118617   -1.364298
     35          1           0       -5.080700   -1.077948   -0.204066
     36          1           0       -5.273462    1.953272    0.154370
     37          1           0       -5.841529    0.758044    1.314684
     38          1           0       -7.468885   -0.129335   -0.388532
     39          1           0       -6.897590    1.072684   -1.555440
     40          1           0       -7.744169    1.595189   -0.089288
 ---------------------------------------------------------------------

 SCF Done:  E(RHF) =  -470.733107256     A.U. after   11 cycles
 E2 =    -0.1582505081D+01 EUMP2 =    -0.47231561233673D+03

 The electronic state is 1-A.
 Alpha  occ. eigenvalues --  -11.21609 -11.21607 -11.21579 -11.21492 -11.21412
 Alpha  occ. eigenvalues --  -11.21363 -11.21353 -11.21301 -11.21076 -11.21058
 Alpha  occ. eigenvalues --  -11.21057 -11.21040  -1.08439  -1.08385  -1.03548
 Alpha  occ. eigenvalues --   -1.03481  -0.95996  -0.95939  -0.87022  -0.86947
 Alpha  occ. eigenvalues --   -0.79666  -0.79494  -0.78261  -0.78184  -0.65077
 Alpha  occ. eigenvalues --   -0.65017  -0.60964  -0.60888  -0.59480  -0.59203
 Alpha  occ. eigenvalues --   -0.57665  -0.57484  -0.55276  -0.55235  -0.52745
 Alpha  occ. eigenvalues --   -0.52610  -0.52410  -0.52363  -0.49947  -0.49869
 Alpha  occ. eigenvalues --   -0.47952  -0.47830  -0.46670  -0.46546  -0.45811
 Alpha  occ. eigenvalues --   -0.45745  -0.45705  -0.45646  -0.43786  -0.43679
 Alpha virt. eigenvalues --    0.21976   0.23061   0.23619   0.24684   0.26124
 Alpha virt. eigenvalues --    0.26719   0.27016   0.27136   0.27809   0.29120
 Alpha virt. eigenvalues --    0.30539   0.31392   0.31529   0.31780   0.32100

 Mulliken charges:
               1
     1  C   -0.298326
     2  C   -0.299617
     3  C   -0.475639
     4  H    0.149522
     5  H    0.149680
     6  H    0.151780
     7  H    0.151950
     8  H    0.155217
     9  H    0.154922
    10  H    0.160163
    11  C   -0.297782
    12  C   -0.305902
    13  C   -0.476311
    14  H    0.149025
    15  H    0.149301
    16  H    0.159399
    17  H    0.151963
    18  H    0.155249
    19  H    0.154794
    20  H    0.159870
    21  C   -0.298542
    22  C   -0.299561
    23  C   -0.479805
    24  H    0.149600
    25  H    0.149612
    26  H    0.151578
    27  H    0.151931
    28  H    0.155456
    29  H    0.155123
    30  H    0.165291
    31  C   -0.298250
    32  C   -0.299636
    33  C   -0.475702
    34  H    0.149447
    35  H    0.149671
    36  H    0.151938
    37  H    0.151962
    38  H    0.155190
    39  H    0.155160
    40  H    0.160280
 Sum of Mulliken charges =  -0.00000

 Dipole moment (field-independent basis, Debye):
    X=             -0.0208    Y=             -0.0026    Z=              0.0129  Tot=              0.0246
 Quadrupole moment (field-independent basis, Debye-Ang):
   XX=            -85.5745   YY=            -85.5156   ZZ=            -83.8550
   XY=              0.2982   XZ=             -0.1653   YZ=             -0.8827

 Normal termination of Gaussian 16 at Wed May  5 21:26:53 2021.
