 Gaussian 16, Revision A.03,
 Gaussian 16:  EM64L-G16RevA.03 25-Dec-2016

 -------------
 #p 6-31g* mp2
 -------------

 ------------------------------------------------------
 Input file generated by CHIRIPA (05-May-2021 14:53:12)
 ------------------------------------------------------
 Symbolic Z-matrix:
 Charge =  0 Multiplicity = 1

                         Standard orientation:
 ---------------------------------------------------------------------
 Center     Atomic      Atomic             Coordinates (Angstroms)
 Number     Number       Type             X           Y           Z
 ---------------------------------------------------------------------
      1          6           0        4.356259   -0.193049   -0.232384
      2          6           0        4.869957    1.091459    0.418874
      3          6           0        6.125631    1.637815   -0.261252
      4          1           0        5.149448   -0.952710   -0.205713
      5          1           0        4.144895    0.001050   -1.293066
      6          1           0        5.078978    0.895352    1.478340
      7          1           0        4.075387    1.848088    0.390820
      8          1           0        5.927027    1.861293   -1.314445
      9          1           0        6.936320    0.903143   -0.220747
     10          1           0        6.475692    2.556210    0.220275
     11          6           0        3.101420   -0.751450    0.436418
     12          6           0        2.587722   -2.035959   -0.214840
     13          6           0        1.332048   -2.582315    0.465286
     14          1           0        3.312784   -0.945550    1.497100
     15          1           0        2.308230    0.008210    0.409746
     16          1           0        3.382292   -2.792588   -0.186787
     17          1           0        2.378701   -1.839852   -1.274306
     18          1           0        0.521359   -1.847643    0.424780
     19          1           0        1.530652   -2.805793    1.518478
     20          1           0        0.981987   -3.500710   -0.016242
     21          6           0       -3.490698   -2.085763   -0.161996
     22          6           0       -2.207200   -1.656404   -0.515272
     23          6           0       -1.876062   -0.298781   -0.473401
     24          6           0       -2.857321    0.606257   -0.071745
     25          6           0       -4.144854    0.209551    0.286270
     26          6           0       -4.453731   -1.153060    0.236944
     27          1           0       -3.739287   -3.142335   -0.197419
     28          1           0       -1.457283   -2.378511   -0.825482
     29          1           0       -0.890143    0.061037   -0.741569
     30          1           0       -4.871196    0.953006    0.591426
     31          1           0       -5.451321   -1.483633    0.511862
     32          7           0       -2.518544    2.046153   -0.023471
     33          8           0       -3.400943    2.823549    0.333830
     34          8           0       -1.377025    2.370083   -0.343849
 ---------------------------------------------------------------------

 SCF Done:  E(RHF) =  -669.534659456     A.U. after   15 cycles
 E2 =    -0.2092379514D+01 EUMP2 =    -0.67162703897033D+03

 The electronic state is 1-A.
 Alpha  occ. eigenvalues --  -20.60787 -20.60781 -15.85839 -11.31197 -11.27750
 Alpha  occ. eigenvalues --  -11.27746 -11.27468 -11.26773 -11.26697 -11.22098
 Alpha  occ. eigenvalues --  -11.21811 -11.21612 -11.21514 -11.21437 -11.20959
 Alpha  occ. eigenvalues --   -1.59861  -1.39415  -1.19361  -1.08753  -1.08633
 Alpha  occ. eigenvalues --   -1.04773  -1.03777  -0.96253  -0.95593  -0.87288
 Alpha  occ. eigenvalues --   -0.86149  -0.82435  -0.79859  -0.78387  -0.77477
 Alpha  occ. eigenvalues --   -0.72058  -0.71183  -0.70471  -0.65302  -0.65002
 Alpha  occ. eigenvalues --   -0.64765  -0.62228  -0.61086  -0.59659  -0.57825
 Alpha  occ. eigenvalues --   -0.55586  -0.55216  -0.53178  -0.53061  -0.52705
 Alpha  occ. eigenvalues --   -0.52613  -0.50164  -0.48815  -0.48810  -0.48156
 Alpha  occ. eigenvalues --   -0.46869  -0.45938  -0.45826  -0.44822  -0.44012
 Alpha  occ. eigenvalues --   -0.37332  -0.36319
 Alpha virt. eigenvalues --    0.05013   0.11274   0.16412   0.19959   0.22894
 Alpha virt. eigenvalues --    0.24031   0.25622   0.26630   0.27198   0.28311
 Alpha virt. eigenvalues --    0.29648   0.30278   0.31371   0.31688   0.32088

 Mulliken charges:
               1
     1  C   -0.298409
     2  C   -0.301152
     3  C   -0.475963
     4  H    0.148979
     5  H    0.150175
     6  H    0.151675
     7  H    0.157730
     8  H    0.155906
     9  H    0.153882
    10  H    0.161670
    11  C   -0.300770
    12  C   -0.300323
    13  C   -0.483951
    14  H    0.151081
    15  H    0.154016
    16  H    0.154472
    17  H    0.149734
    18  H    0.154778
    19  H    0.161212
    20  H    0.154109
    21  C   -0.172607
    22  C   -0.218416
    23  C   -0.173956
    24  C    0.158014
    25  C   -0.171412
    26  C   -0.218237
    27  H    0.225830
    28  H    0.230486
    29  H    0.275528
    30  H    0.275546
    31  H    0.223452
    32  N    0.488283
    33  O   -0.460158
    34  O   -0.461206
 Sum of Mulliken charges =  -0.00000

 Dipole moment (field-independent basis, Debye):
    X=             -1.1208    Y=             -5.0182    Z=             -0.1186  Tot=              5.1432
 Quadrupole moment (field-independent basis, Debye-Ang):
   XX=            -83.7220   YY=           -101.3614   ZZ=            -94.7949
   XY=             12.2830   XZ=             -0.2783   YZ=              0.4099

 Normal termination of Gaussian 16 at Wed May  5 16:59:22 2021.
