 Gaussian 16, Revision A.03,
 Gaussian 16:  EM64L-G16RevA.03 25-Dec-2016

 -------------
 #p 6-31g* mp2
 -------------

 ------------------------------------------------------
 Input file generated by CHIRIPA (05-May-2021 14:51:08)
 ------------------------------------------------------
 Symbolic Z-matrix:
 Charge =  0 Multiplicity = 1

                         Standard orientation:
 ---------------------------------------------------------------------
 Center     Atomic      Atomic             Coordinates (Angstroms)
 Number     Number       Type             X           Y           Z
 ---------------------------------------------------------------------
      1          6           0       -4.016775    0.330509    0.140388
      2          6           0       -3.524278    1.702454   -0.321348
      3          6           0       -2.086349    1.990684    0.111177
      4          1           0       -3.942587    0.270636    1.234854
      5          1           0       -3.349731   -0.444949   -0.261001
      6          1           0       -4.192853    2.474996    0.079652
      7          1           0       -3.599826    1.759138   -1.414827
      8          1           0       -1.402599    1.241481   -0.300870
      9          1           0       -1.998996    1.961407    1.202100
     10          1           0       -1.754622    2.976497   -0.229397
     11          6           0       -5.452626    0.027805   -0.284380
     12          6           0       -5.945123   -1.344140    0.177356
     13          6           0       -7.383052   -1.632370   -0.255169
     14          1           0       -6.119670    0.803263    0.117009
     15          1           0       -5.526814    0.087678   -1.378846
     16          1           0       -5.869575   -1.400824    1.270835
     17          1           0       -5.276548   -2.116682   -0.223644
     18          1           0       -7.470405   -1.603092   -1.346092
     19          1           0       -8.066802   -0.883167    0.156878
     20          1           0       -7.714779   -2.618183    0.085405
     21          6           0        5.396017    0.044526   -0.237938
     22          6           0        6.555492   -0.908622    0.053799
     23          6           0        7.871738   -0.447597   -0.572896
     24          1           0        5.272542    0.139504   -1.325448
     25          1           0        5.650538    1.045780    0.136368
     26          1           0        6.298287   -1.908098   -0.319711
     27          1           0        6.676097   -1.001492    1.140743
     28          1           0        8.154981    0.538998   -0.192100
     29          1           0        7.775024   -0.372760   -1.660852
     30          1           0        8.687070   -1.143462   -0.351846
     31          6           0        4.073385   -0.402840    0.381930
     32          6           0        2.913909    0.550308    0.090193
     33          6           0        1.597664    0.089282    0.716888
     34          1           0        3.818863   -1.404094    0.007624
     35          1           0        4.196858   -0.497818    1.469440
     36          1           0        2.793304    0.643177   -0.996750
     37          1           0        3.171114    1.549784    0.463703
     38          1           0        1.694377    0.014446    1.804843
     39          1           0        1.314420   -0.897312    0.336092
     40          1           0        0.782331    0.785148    0.495837
 ---------------------------------------------------------------------

 SCF Done:  E(RHF) =  -470.733171980     A.U. after   11 cycles
 E2 =    -0.1582199187D+01 EUMP2 =    -0.47231537116687D+03

 The electronic state is 1-A.
 Alpha  occ. eigenvalues --  -11.21601 -11.21592 -11.21580 -11.21546 -11.21394
 Alpha  occ. eigenvalues --  -11.21370 -11.21334 -11.21309 -11.21067 -11.21064
 Alpha  occ. eigenvalues --  -11.21054 -11.20955  -1.08423  -1.08391  -1.03534
 Alpha  occ. eigenvalues --   -1.03479  -0.96007  -0.95909  -0.87053  -0.86901
 Alpha  occ. eigenvalues --   -0.79634  -0.79511  -0.78235  -0.78204  -0.65055
 Alpha  occ. eigenvalues --   -0.65022  -0.60944  -0.60877  -0.59365  -0.59314
 Alpha  occ. eigenvalues --   -0.57689  -0.57455  -0.55288  -0.55205  -0.52868
 Alpha  occ. eigenvalues --   -0.52645  -0.52405  -0.52155  -0.49931  -0.49853
 Alpha  occ. eigenvalues --   -0.47990  -0.47770  -0.46628  -0.46575  -0.45778
 Alpha  occ. eigenvalues --   -0.45745  -0.45700  -0.45673  -0.43791  -0.43689
 Alpha virt. eigenvalues --    0.22579   0.22961   0.23655   0.24660   0.26491
 Alpha virt. eigenvalues --    0.26692   0.26818   0.27524   0.27661   0.28816
 Alpha virt. eigenvalues --    0.30620   0.31435   0.31572   0.31872   0.32001

 Mulliken charges:
               1
     1  C   -0.298335
     2  C   -0.299847
     3  C   -0.479784
     4  H    0.149847
     5  H    0.149841
     6  H    0.151888
     7  H    0.151856
     8  H    0.158976
     9  H    0.155865
    10  H    0.160145
    11  C   -0.298306
    12  C   -0.299638
    13  C   -0.475702
    14  H    0.149487
    15  H    0.149571
    16  H    0.152003
    17  H    0.151957
    18  H    0.155138
    19  H    0.155164
    20  H    0.160241
    21  C   -0.298183
    22  C   -0.299594
    23  C   -0.475675
    24  H    0.149506
    25  H    0.149476
    26  H    0.151842
    27  H    0.151906
    28  H    0.155159
    29  H    0.155118
    30  H    0.160167
    31  C   -0.298347
    32  C   -0.298948
    33  C   -0.483903
    34  H    0.149279
    35  H    0.149570
    36  H    0.151423
    37  H    0.151857
    38  H    0.154790
    39  H    0.153881
    40  H    0.170311
 Sum of Mulliken charges =  -0.00000

 Dipole moment (field-independent basis, Debye):
    X=             -0.0286    Y=              0.0137    Z=              0.0041  Tot=              0.0320
 Quadrupole moment (field-independent basis, Debye-Ang):
   XX=            -86.8907   YY=            -84.5266   ZZ=            -83.4923
   XY=             -0.5636   XZ=              0.0286   YZ=              0.8406

 Normal termination of Gaussian 16 at Wed May  5 18:07:37 2021.
