 Gaussian 16, Revision A.03,
 Gaussian 16:  EM64L-G16RevA.03 25-Dec-2016

 -------------
 #p 6-31g* mp2
 -------------

 ------------------------------------------------------
 Input file generated by CHIRIPA (05-May-2021 14:55:20)
 ------------------------------------------------------
 Symbolic Z-matrix:
 Charge =  0 Multiplicity = 1

                         Standard orientation:
 ---------------------------------------------------------------------
 Center     Atomic      Atomic             Coordinates (Angstroms)
 Number     Number       Type             X           Y           Z
 ---------------------------------------------------------------------
      1          6           0       -1.172321   -0.609137    2.219551
      2          6           0       -2.378010    0.091036    2.331772
      3          6           0       -3.190212    0.290405    1.211447
      4          6           0       -2.764128   -0.226367   -0.011128
      5          6           0       -1.568316   -0.928230   -0.155044
      6          6           0       -0.772028   -1.115642    0.978689
      7          1           0       -0.547564   -0.759368    3.095054
      8          1           0       -2.691404    0.485516    3.294172
      9          1           0       -4.128421    0.828693    1.269994
     10          1           0       -1.282477   -1.309648   -1.127790
     11          1           0        0.163823   -1.659800    0.888567
     12          7           0       -3.615546   -0.021633   -1.204263
     13          8           0       -3.217734   -0.486889   -2.270058
     14          8           0       -4.664577    0.600217   -1.051054
     15          6           0        3.861914   -0.230637   -0.126302
     16          6           0        3.323402   -1.609243   -0.510277
     17          6           0        4.342142   -2.726362   -0.282227
     18          1           0        4.770937   -0.024145   -0.707665
     19          1           0        4.162904   -0.243551    0.930406
     20          1           0        3.022229   -1.593331   -1.565576
     21          1           0        2.415448   -1.812395    0.071929
     22          1           0        4.635348   -2.771108    0.771637
     23          1           0        5.245576   -2.550800   -0.875173
     24          1           0        3.936400   -3.703221   -0.563258
     25          6           0        2.855024    0.896518   -0.348618
     26          6           0        3.393535    2.275124    0.035357
     27          6           0        2.374795    3.392243   -0.192693
     28          1           0        2.554033    0.909432   -1.405326
     29          1           0        1.946001    0.690026    0.232746
     30          1           0        4.301489    2.478276   -0.546849
     31          1           0        3.694708    2.259212    1.090657
     32          1           0        1.471361    3.216681    0.400254
     33          1           0        2.081590    3.436989   -1.246556
     34          1           0        2.780537    4.369102    0.088340
 ---------------------------------------------------------------------

 SCF Done:  E(RHF) =  -669.535564068     A.U. after   15 cycles
 E2 =    -0.2091900487D+01 EUMP2 =    -0.67162746455507D+03

 The electronic state is 1-A.
 Alpha  occ. eigenvalues --  -20.60763 -20.60758 -15.85817 -11.31193 -11.27773
 Alpha  occ. eigenvalues --  -11.27764 -11.27527 -11.26787 -11.26768 -11.22462
 Alpha  occ. eigenvalues --  -11.22011 -11.21989 -11.21846 -11.21746 -11.21330
 Alpha  occ. eigenvalues --   -1.59838  -1.39391  -1.19374  -1.09013  -1.08767
 Alpha  occ. eigenvalues --   -1.04777  -1.04080  -0.96494  -0.95598  -0.87512
 Alpha  occ. eigenvalues --   -0.86178  -0.82431  -0.80176  -0.78815  -0.77467
 Alpha  occ. eigenvalues --   -0.72035  -0.71160  -0.70482  -0.65703  -0.65026
 Alpha  occ. eigenvalues --   -0.64753  -0.62147  -0.61462  -0.59878  -0.58111
 Alpha  occ. eigenvalues --   -0.55775  -0.55286  -0.53215  -0.53116  -0.52926
 Alpha  occ. eigenvalues --   -0.52848  -0.50438  -0.48805  -0.48789  -0.48462
 Alpha  occ. eigenvalues --   -0.47218  -0.46333  -0.46252  -0.44794  -0.44327
 Alpha  occ. eigenvalues --   -0.37354  -0.36359
 Alpha virt. eigenvalues --    0.05062   0.11179   0.16493   0.19733   0.22754
 Alpha virt. eigenvalues --    0.23734   0.25003   0.26400   0.27511   0.28325
 Alpha virt. eigenvalues --    0.28972   0.29908   0.31219   0.31403   0.32212

 Mulliken charges:
               1
     1  C   -0.173856
     2  C   -0.218588
     3  C   -0.170732
     4  C    0.158588
     5  C   -0.173077
     6  C   -0.223527
     7  H    0.225950
     8  H    0.223451
     9  H    0.275734
    10  H    0.276479
    11  H    0.234049
    12  N    0.488161
    13  O   -0.460244
    14  O   -0.460512
    15  C   -0.298121
    16  C   -0.304195
    17  C   -0.475455
    18  H    0.153292
    19  H    0.148248
    20  H    0.156095
    21  H    0.141831
    22  H    0.154950
    23  H    0.159216
    24  H    0.161256
    25  C   -0.302254
    26  C   -0.299779
    27  C   -0.476239
    28  H    0.152456
    29  H    0.148475
    30  H    0.153444
    31  H    0.150290
    32  H    0.155454
    33  H    0.158082
    34  H    0.161076
 Sum of Mulliken charges =  -0.00000

 Dipole moment (field-independent basis, Debye):
    X=              3.0868    Y=             -0.6721    Z=              4.1316  Tot=              5.2009
 Quadrupole moment (field-independent basis, Debye-Ang):
   XX=           -109.3497   YY=            -94.5054   ZZ=            -92.7522
   XY=             -0.0092   XZ=            -14.5552   YZ=              0.6489

 Normal termination of Gaussian 16 at Wed May  5 15:52:35 2021.
