 Gaussian 16, Revision A.03,
 Gaussian 16:  EM64L-G16RevA.03 25-Dec-2016

 -------------
 #p 6-31g* mp2
 -------------

 ------------------------------------------------------
 Input file generated by CHIRIPA (05-May-2021 14:51:10)
 ------------------------------------------------------
 Symbolic Z-matrix:
 Charge =  0 Multiplicity = 1

                         Standard orientation:
 ---------------------------------------------------------------------
 Center     Atomic      Atomic             Coordinates (Angstroms)
 Number     Number       Type             X           Y           Z
 ---------------------------------------------------------------------
      1          6           0        4.915978   -0.325605    0.241452
      2          6           0        5.012602   -1.733312   -0.347623
      3          6           0        6.303830   -2.451442    0.045843
      4          1           0        5.781172    0.264247   -0.090899
      5          1           0        4.982597   -0.388517    1.336440
      6          1           0        4.944431   -1.667891   -1.441099
      7          1           0        4.146978   -2.319824   -0.013986
      8          1           0        6.375695   -2.546137    1.134176
      9          1           0        7.177679   -1.890499   -0.301045
     10          1           0        6.352157   -3.455938   -0.386026
     11          6           0        3.630658    0.405074   -0.142980
     12          6           0        3.534033    1.812781    0.446095
     13          6           0        2.242805    2.530910    0.052629
     14          1           0        3.564038    0.467985   -1.237968
     15          1           0        2.765463   -0.184779    0.189371
     16          1           0        4.399658    2.399292    0.112458
     17          1           0        3.602204    1.747359    1.539571
     18          1           0        1.368956    1.969967    0.399517
     19          1           0        2.170940    2.625605   -1.035705
     20          1           0        2.194478    3.535407    0.484498
     21          6           0       -5.036220   -0.024676   -0.014816
     22          6           0       -5.663263   -1.409576    0.149056
     23          6           0       -7.190056   -1.363007    0.216345
     24          1           0       -5.348442    0.613664    0.823030
     25          1           0       -5.430313    0.442897   -0.927758
     26          1           0       -5.267058   -1.874957    1.060680
     27          1           0       -5.349357   -2.044750   -0.689176
     28          1           0       -7.602671   -0.922614   -0.697110
     29          1           0       -7.519904   -0.751856    1.062688
     30          1           0       -7.617455   -2.363734    0.333550
     31          6           0       -3.510414   -0.054793   -0.083656
     32          6           0       -2.883373    1.330107   -0.247528
     33          6           0       -1.356579    1.283539   -0.314818
     34          1           0       -3.116323   -0.522365    0.829285
     35          1           0       -3.198193   -0.693132   -0.921501
     36          1           0       -3.197278    1.965282    0.590705
     37          1           0       -3.279578    1.795488   -1.159152
     38          1           0       -1.026731    0.672387   -1.161159
     39          1           0       -0.943964    0.843146    0.598639
     40          1           0       -0.929181    2.284266   -0.432023
 ---------------------------------------------------------------------

 SCF Done:  E(RHF) =  -470.732733497     A.U. after   11 cycles
 E2 =    -0.1582592135D+01 EUMP2 =    -0.47231532563273D+03

 The electronic state is 1-A.
 Alpha  occ. eigenvalues --  -11.21601 -11.21580 -11.21566 -11.21508 -11.21401
 Alpha  occ. eigenvalues --  -11.21348 -11.21342 -11.21285 -11.21071 -11.21045
 Alpha  occ. eigenvalues --  -11.21041 -11.20880  -1.08427  -1.08365  -1.03539
 Alpha  occ. eigenvalues --   -1.03446  -0.96027  -0.95863  -0.87095  -0.86837
 Alpha  occ. eigenvalues --   -0.79684  -0.79441  -0.78248  -0.78168  -0.65062
 Alpha  occ. eigenvalues --   -0.64995  -0.60969  -0.60826  -0.59369  -0.59274
 Alpha  occ. eigenvalues --   -0.57598  -0.57504  -0.55365  -0.55120  -0.52904
 Alpha  occ. eigenvalues --   -0.52595  -0.52393  -0.52122  -0.50021  -0.49729
 Alpha  occ. eigenvalues --   -0.47921  -0.47815  -0.46682  -0.46493  -0.45813
 Alpha  occ. eigenvalues --   -0.45716  -0.45691  -0.45619  -0.43750  -0.43686
 Alpha virt. eigenvalues --    0.22516   0.22968   0.23744   0.24649   0.26226
 Alpha virt. eigenvalues --    0.26715   0.26944   0.27473   0.27773   0.29102
 Alpha virt. eigenvalues --    0.30281   0.31021   0.31602   0.31821   0.32296

 Mulliken charges:
               1
     1  C   -0.298198
     2  C   -0.299583
     3  C   -0.475658
     4  H    0.149540
     5  H    0.149304
     6  H    0.151822
     7  H    0.151873
     8  H    0.155097
     9  H    0.155123
    10  H    0.160105
    11  C   -0.298088
    12  C   -0.299738
    13  C   -0.482817
    14  H    0.149311
    15  H    0.149669
    16  H    0.151199
    17  H    0.151169
    18  H    0.166711
    19  H    0.154180
    20  H    0.158593
    21  C   -0.298257
    22  C   -0.299604
    23  C   -0.475697
    24  H    0.149623
    25  H    0.149559
    26  H    0.151838
    27  H    0.151932
    28  H    0.155199
    29  H    0.155170
    30  H    0.160233
    31  C   -0.298513
    32  C   -0.300221
    33  C   -0.478156
    34  H    0.149266
    35  H    0.149613
    36  H    0.151897
    37  H    0.151939
    38  H    0.155803
    39  H    0.153270
    40  H    0.165496
 Sum of Mulliken charges =  -0.00000

 Dipole moment (field-independent basis, Debye):
    X=             -0.0418    Y=              0.0056    Z=             -0.0093  Tot=              0.0432
 Quadrupole moment (field-independent basis, Debye-Ang):
   XX=            -86.8640   YY=            -85.1497   ZZ=            -83.0818
   XY=              0.5155   XZ=             -0.4453   YZ=             -0.0953

 Normal termination of Gaussian 16 at Wed May  5 15:11:01 2021.
