 Gaussian 16, Revision A.03,
 Gaussian 16:  EM64L-G16RevA.03 25-Dec-2016

 -------------
 #p 6-31g* mp2
 -------------

 ------------------------------------------------------
 Input file generated by CHIRIPA (05-May-2021 14:53:17)
 ------------------------------------------------------
 Symbolic Z-matrix:
 Charge =  0 Multiplicity = 1

                         Standard orientation:
 ---------------------------------------------------------------------
 Center     Atomic      Atomic             Coordinates (Angstroms)
 Number     Number       Type             X           Y           Z
 ---------------------------------------------------------------------
      1          6           0        3.772063   -0.388594   -0.319885
      2          6           0        3.813763   -1.743743    0.387091
      3          6           0        4.505353   -2.823776   -0.445392
      4          1           0        3.253701   -0.499957   -1.282093
      5          1           0        4.798396   -0.072483   -0.552501
      6          1           0        2.787736   -2.056555    0.619539
      7          1           0        4.331918   -1.629101    1.347814
      8          1           0        5.538780   -2.537422   -0.665916
      9          1           0        3.985824   -2.967306   -1.398329
     10          1           0        4.523978   -3.784315    0.078896
     11          6           0        3.083755    0.701401    0.499792
     12          6           0        3.042056    2.056551   -0.207185
     13          6           0        2.350466    3.136584    0.625298
     14          1           0        2.057422    0.385291    0.732407
     15          1           0        3.602117    0.812765    1.462000
     16          1           0        2.523901    1.941909   -1.167908
     17          1           0        4.068083    2.369363   -0.439633
     18          1           0        2.869995    3.280113    1.578235
     19          1           0        1.317039    2.850230    0.845823
     20          1           0        2.331840    4.097123    0.101010
     21          6           0       -2.156487    2.322951   -0.409648
     22          6           0       -1.133428    1.372022   -0.484516
     23          6           0       -1.410849    0.014505   -0.298149
     24          6           0       -2.728477   -0.358578   -0.037467
     25          6           0       -3.769517    0.565010    0.043245
     26          6           0       -3.468953    1.917125   -0.146471
     27          1           0       -1.931992    3.375406   -0.555724
     28          1           0       -0.113227    1.684301   -0.688762
     29          1           0       -0.638013   -0.742714   -0.350709
     30          1           0       -4.776771    0.223257    0.248336
     31          1           0       -4.265484    2.653424   -0.087762
     32          7           0       -3.034421   -1.792861    0.161604
     33          8           0       -4.203469   -2.095834    0.390009
     34          8           0       -2.099376   -2.586921    0.085462
 ---------------------------------------------------------------------

 SCF Done:  E(RHF) =  -669.535322363     A.U. after   15 cycles
 E2 =    -0.2092361874D+01 EUMP2 =    -0.67162768423687D+03

 The electronic state is 1-A.
 Alpha  occ. eigenvalues --  -20.60783 -20.60778 -15.85836 -11.31206 -11.27779
 Alpha  occ. eigenvalues --  -11.27775 -11.27509 -11.26785 -11.26742 -11.22542
 Alpha  occ. eigenvalues --  -11.22134 -11.22038 -11.21909 -11.21845 -11.21200
 Alpha  occ. eigenvalues --   -1.59858  -1.39411  -1.19378  -1.09079  -1.08767
 Alpha  occ. eigenvalues --   -1.04786  -1.04127  -0.96576  -0.95604  -0.87590
 Alpha  occ. eigenvalues --   -0.86179  -0.82439  -0.80213  -0.78820  -0.77491
 Alpha  occ. eigenvalues --   -0.72055  -0.71181  -0.70482  -0.65861  -0.65028
 Alpha  occ. eigenvalues --   -0.64753  -0.62245  -0.61370  -0.59968  -0.58152
 Alpha  occ. eigenvalues --   -0.55903  -0.55261  -0.53257  -0.53120  -0.53014
 Alpha  occ. eigenvalues --   -0.52782  -0.50536  -0.48816  -0.48810  -0.48488
 Alpha  occ. eigenvalues --   -0.47284  -0.46355  -0.46273  -0.44816  -0.44375
 Alpha  occ. eigenvalues --   -0.37349  -0.36373
 Alpha virt. eigenvalues --    0.05036   0.11154   0.16452   0.18621   0.22884
 Alpha virt. eigenvalues --    0.23553   0.25155   0.26353   0.26920   0.28693
 Alpha virt. eigenvalues --    0.29766   0.30483   0.30982   0.31394   0.32058

 Mulliken charges:
               1
     1  C   -0.298906
     2  C   -0.301081
     3  C   -0.476057
     4  H    0.147908
     5  H    0.151601
     6  H    0.155195
     7  H    0.153212
     8  H    0.154643
     9  H    0.156485
    10  H    0.163817
    11  C   -0.300668
    12  C   -0.304356
    13  C   -0.481451
    14  H    0.145412
    15  H    0.154676
    16  H    0.145639
    17  H    0.158545
    18  H    0.161969
    19  H    0.151181
    20  H    0.160680
    21  C   -0.173097
    22  C   -0.224893
    23  C   -0.174374
    24  C    0.158963
    25  C   -0.170770
    26  C   -0.218344
    27  H    0.226695
    28  H    0.235096
    29  H    0.275734
    30  H    0.275724
    31  H    0.223598
    32  N    0.488178
    33  O   -0.460311
    34  O   -0.460647
 Sum of Mulliken charges =  -0.00000

 Dipole moment (field-independent basis, Debye):
    X=              1.2316    Y=              5.0002    Z=             -0.6422  Tot=              5.1895
 Quadrupole moment (field-independent basis, Debye-Ang):
   XX=            -94.5098   YY=            -99.2190   ZZ=            -95.5134
   XY=            -15.0636   XZ=              1.9480   YZ=             -0.0152

 Normal termination of Gaussian 16 at Wed May  5 22:00:03 2021.
