 Gaussian 16, Revision A.03,
 Gaussian 16:  EM64L-G16RevA.03 25-Dec-2016

 -------------
 #p 6-31g* mp2
 -------------

 ------------------------------------------------------
 Input file generated by CHIRIPA (05-May-2021 14:55:18)
 ------------------------------------------------------
 Symbolic Z-matrix:
 Charge =  0 Multiplicity = 1

                         Standard orientation:
 ---------------------------------------------------------------------
 Center     Atomic      Atomic             Coordinates (Angstroms)
 Number     Number       Type             X           Y           Z
 ---------------------------------------------------------------------
      1          6           0        3.921610    1.332188    0.418736
      2          6           0        3.687509    0.893744   -0.888736
      3          6           0        2.722467   -0.084123   -1.147614
      4          6           0        2.006634   -0.604270   -0.070433
      5          6           0        2.216798   -0.188031    1.243289
      6          6           0        3.186802    0.790855    1.478707
      7          1           0        4.673205    2.092214    0.610727
      8          1           0        4.256665    1.312374   -1.713876
      9          1           0        2.520874   -0.441722   -2.150062
     10          1           0        1.633577   -0.624051    2.045260
     11          1           0        3.366473    1.129451    2.495130
     12          7           0        0.982360   -1.640034   -0.332078
     13          8           0        0.365099   -2.082490    0.634285
     14          8           0        0.816190   -1.989796   -1.498565
     15          6           0       -2.516249   -0.149870    0.155984
     16          6           0       -3.603925   -1.224380    0.136624
     17          6           0       -3.051548   -2.629133    0.380230
     18          1           0       -1.762393   -0.386454   -0.607346
     19          1           0       -1.999378   -0.178645    1.125217
     20          1           0       -4.119507   -1.192666   -0.831769
     21          1           0       -4.355378   -0.985106    0.899960
     22          1           0       -2.554188   -2.683999    1.353998
     23          1           0       -2.316976   -2.892739   -0.387570
     24          1           0       -3.846065   -3.381648    0.362207
     25          6           0       -3.052893    1.259793   -0.086068
     26          6           0       -1.965218    2.334303   -0.066707
     27          6           0       -2.517594    3.739057   -0.310314
     28          1           0       -3.569765    1.288569   -1.055300
     29          1           0       -3.806749    1.496378    0.677263
     30          1           0       -1.213764    2.095030   -0.830043
     31          1           0       -1.449635    2.302590    0.901686
     32          1           0       -3.252165    4.002662    0.457486
     33          1           0       -3.014954    3.793923   -1.284081
     34          1           0       -1.723077    4.491572   -0.292290
 ---------------------------------------------------------------------

 SCF Done:  E(RHF) =  -669.535913695     A.U. after   15 cycles
 E2 =    -0.2093640278D+01 EUMP2 =    -0.67162955397306D+03

 The electronic state is 1-A.
 Alpha  occ. eigenvalues --  -20.61010 -20.60998 -15.85987 -11.31303 -11.27862
 Alpha  occ. eigenvalues --  -11.27859 -11.27592 -11.26862 -11.26852 -11.21244
 Alpha  occ. eigenvalues --  -11.20836 -11.20697 -11.20379 -11.20288 -11.19226
 Alpha  occ. eigenvalues --   -1.60045  -1.39603  -1.19464  -1.08875  -1.07599
 Alpha  occ. eigenvalues --   -1.04858  -1.02616  -0.95724  -0.95033  -0.86261
 Alpha  occ. eigenvalues --   -0.86047  -0.82564  -0.78774  -0.77631  -0.77332
 Alpha  occ. eigenvalues --   -0.72223  -0.71333  -0.70577  -0.65123  -0.64865
 Alpha  occ. eigenvalues --   -0.64241  -0.62208  -0.60024  -0.58529  -0.56631
 Alpha  occ. eigenvalues --   -0.55365  -0.54309  -0.53186  -0.52952  -0.51778
 Alpha  occ. eigenvalues --   -0.51450  -0.49062  -0.48991  -0.48945  -0.46981
 Alpha  occ. eigenvalues --   -0.45827  -0.45364  -0.44706  -0.44409  -0.42884
 Alpha  occ. eigenvalues --   -0.37435  -0.36454
 Alpha virt. eigenvalues --    0.04878   0.11188   0.16365   0.21287   0.23530
 Alpha virt. eigenvalues --    0.25359   0.27022   0.27445   0.27685   0.28519
 Alpha virt. eigenvalues --    0.29102   0.30981   0.32091   0.32367   0.32560

 Mulliken charges:
               1
     1  C   -0.170327
     2  C   -0.218486
     3  C   -0.171033
     4  C    0.159166
     5  C   -0.170127
     6  C   -0.218460
     7  H    0.226059
     8  H    0.223834
     9  H    0.275651
    10  H    0.275434
    11  H    0.223808
    12  N    0.488480
    13  O   -0.455534
    14  O   -0.461018
    15  C   -0.298122
    16  C   -0.300159
    17  C   -0.473625
    18  H    0.153534
    19  H    0.149529
    20  H    0.147660
    21  H    0.144844
    22  H    0.158440
    23  H    0.173932
    24  H    0.148425
    25  C   -0.297649
    26  C   -0.298240
    27  C   -0.474782
    28  H    0.148456
    29  H    0.146988
    30  H    0.149329
    31  H    0.147695
    32  H    0.154717
    33  H    0.155428
    34  H    0.156153
 Sum of Mulliken charges =  -0.00000

 Dipole moment (field-independent basis, Debye):
    X=              3.8950    Y=              3.4549    Z=              0.9165  Tot=              5.2865
 Quadrupole moment (field-independent basis, Debye-Ang):
   XX=            -81.7320   YY=           -101.3564   ZZ=            -89.1360
   XY=              5.7511   XZ=              0.4172   YZ=             -0.7062

 Normal termination of Gaussian 16 at Wed May  5 22:06:43 2021.
