 Gaussian 16, Revision A.03,
 Gaussian 16:  EM64L-G16RevA.03 25-Dec-2016

 -------------
 #p 6-31g* mp2
 -------------

 ------------------------------------------------------
 Input file generated by CHIRIPA (05-May-2021 14:51:07)
 ------------------------------------------------------
 Symbolic Z-matrix:
 Charge =  0 Multiplicity = 1

                         Standard orientation:
 ---------------------------------------------------------------------
 Center     Atomic      Atomic             Coordinates (Angstroms)
 Number     Number       Type             X           Y           Z
 ---------------------------------------------------------------------
      1          6           0       -4.285186    0.812488    0.074878
      2          6           0       -2.781046    0.709165   -0.179824
      3          6           0       -2.053200    2.037184    0.030888
      4          1           0       -4.711722    1.575614   -0.590443
      5          1           0       -4.452722    1.164525    1.102202
      6          1           0       -2.616412    0.356104   -1.205913
      7          1           0       -2.358073   -0.053939    0.486046
      8          1           0       -2.187930    2.391600    1.057941
      9          1           0       -2.447736    2.803973   -0.643632
     10          1           0       -0.979236    1.940530   -0.156516
     11          6           0       -5.026656   -0.507085   -0.131707
     12          6           0       -6.530796   -0.403762    0.122995
     13          6           0       -7.258642   -1.731781   -0.087717
     14          1           0       -4.859120   -0.859122   -1.159031
     15          1           0       -4.600120   -1.270211    0.533614
     16          1           0       -6.953769    0.359342   -0.542875
     17          1           0       -6.695430   -0.050701    1.149084
     18          1           0       -6.864106   -2.498570    0.586803
     19          1           0       -7.123912   -2.086197   -1.114770
     20          1           0       -8.332606   -1.635127    0.099687
     21          6           0        4.007268    0.105724   -0.281258
     22          6           0        2.787174   -0.083726    0.620665
     23          6           0        1.497106    0.438185   -0.012681
     24          1           0        4.118632    1.172877   -0.517324
     25          1           0        3.832142   -0.409011   -1.236127
     26          1           0        2.965118    0.430050    1.574074
     27          1           0        2.678813   -1.150529    0.854768
     28          1           0        1.292390   -0.081741   -0.954153
     29          1           0        1.580321    1.507819   -0.230761
     30          1           0        0.637570    0.292729    0.649060
     31          6           0        5.304574   -0.411127    0.338087
     32          6           0        6.524668   -0.221677   -0.563836
     33          6           0        7.814736   -0.743588    0.069510
     34          1           0        5.479700    0.103608    1.292956
     35          1           0        5.193210   -1.478280    0.574154
     36          1           0        6.633027    0.845126   -0.797939
     37          1           0        6.346724   -0.735452   -1.517244
     38          1           0        7.731521   -1.813221    0.287590
     39          1           0        8.019452   -0.223662    1.010982
     40          1           0        8.674272   -0.598132   -0.592231
 ---------------------------------------------------------------------

 SCF Done:  E(RHF) =  -470.732829515     A.U. after   11 cycles
 E2 =    -0.1582662765D+01 EUMP2 =    -0.47231549228048D+03

 The electronic state is 1-A.
 Alpha  occ. eigenvalues --  -11.21620 -11.21610 -11.21571 -11.21522 -11.21418
 Alpha  occ. eigenvalues --  -11.21359 -11.21355 -11.21293 -11.21100 -11.21077
 Alpha  occ. eigenvalues --  -11.21048 -11.20871  -1.08447  -1.08373  -1.03565
 Alpha  occ. eigenvalues --   -1.03450  -0.96053  -0.95865  -0.87096  -0.86862
 Alpha  occ. eigenvalues --   -0.79637  -0.79513  -0.78259  -0.78188  -0.65076
 Alpha  occ. eigenvalues --   -0.65007  -0.60954  -0.60869  -0.59625  -0.59090
 Alpha  occ. eigenvalues --   -0.57650  -0.57474  -0.55298  -0.55196  -0.53013
 Alpha  occ. eigenvalues --   -0.52475  -0.52416  -0.52105  -0.49943  -0.49849
 Alpha  occ. eigenvalues --   -0.47950  -0.47823  -0.46643  -0.46566  -0.45801
 Alpha  occ. eigenvalues --   -0.45736  -0.45714  -0.45658  -0.43895  -0.43578
 Alpha virt. eigenvalues --    0.22196   0.22979   0.23524   0.24865   0.26542
 Alpha virt. eigenvalues --    0.26577   0.26879   0.27378   0.27714   0.28887
 Alpha virt. eigenvalues --    0.29853   0.30930   0.31435   0.31636   0.32307

 Mulliken charges:
               1
     1  C   -0.298154
     2  C   -0.299348
     3  C   -0.484884
     4  H    0.149615
     5  H    0.149269
     6  H    0.151807
     7  H    0.151223
     8  H    0.153610
     9  H    0.154019
    10  H    0.172594
    11  C   -0.298180
    12  C   -0.299592
    13  C   -0.475664
    14  H    0.149398
    15  H    0.149407
    16  H    0.151899
    17  H    0.151843
    18  H    0.155085
    19  H    0.155117
    20  H    0.160144
    21  C   -0.298644
    22  C   -0.300158
    23  C   -0.479770
    24  H    0.149774
    25  H    0.149542
    26  H    0.152158
    27  H    0.152005
    28  H    0.155960
    29  H    0.155088
    30  H    0.164666
    31  C   -0.298308
    32  C   -0.299635
    33  C   -0.475714
    34  H    0.149566
    35  H    0.149671
    36  H    0.151977
    37  H    0.151939
    38  H    0.155184
    39  H    0.155202
    40  H    0.160289
 Sum of Mulliken charges =  -0.00000

 Dipole moment (field-independent basis, Debye):
    X=              0.0552    Y=             -0.0071    Z=             -0.0062  Tot=              0.0559
 Quadrupole moment (field-independent basis, Debye-Ang):
   XX=            -86.4330   YY=            -84.8267   ZZ=            -83.7538
   XY=             -0.0749   XZ=             -0.1556   YZ=              0.1485

 Normal termination of Gaussian 16 at Thu May  6 09:58:34 2021.
