 Gaussian 16, Revision A.03,
 Gaussian 16:  EM64L-G16RevA.03 25-Dec-2016

 -------------
 #p 6-31g* mp2
 -------------

 ------------------------------------------------------
 Input file generated by CHIRIPA (05-May-2021 14:55:23)
 ------------------------------------------------------
 Symbolic Z-matrix:
 Charge =  0 Multiplicity = 1

                         Standard orientation:
 ---------------------------------------------------------------------
 Center     Atomic      Atomic             Coordinates (Angstroms)
 Number     Number       Type             X           Y           Z
 ---------------------------------------------------------------------
      1          6           0        1.186786   -1.842016   -0.924282
      2          6           0        2.438939   -2.399097   -0.644474
      3          6           0        3.475751   -1.602655   -0.149248
      4          6           0        3.224455   -0.246811    0.055269
      5          6           0        1.987830    0.337662   -0.213882
      6          6           0        0.965618   -0.477819   -0.708473
      7          1           0        0.387036   -2.468106   -1.308738
      8          1           0        2.613563   -3.458242   -0.811102
      9          1           0        4.454769   -2.007954    0.075866
     10          1           0        1.843911    1.396723   -0.037547
     11          1           0       -0.005810   -0.042459   -0.924885
     12          7           0        4.314353    0.606424    0.579206
     13          8           0        4.067502    1.798177    0.750747
     14          8           0        5.394830    0.067281    0.808405
     15          6           0       -3.483835    0.861692   -0.488062
     16          6           0       -2.616432    1.980654    0.089451
     17          6           0       -1.795016    2.703055   -0.978821
     18          1           0       -2.840430    0.139259   -1.008702
     19          1           0       -4.157426    1.283819   -1.246665
     20          1           0       -1.945640    1.556777    0.847726
     21          1           0       -3.261959    2.700407    0.608941
     22          1           0       -2.451409    3.152477   -1.730999
     23          1           0       -1.127610    2.002349   -1.490857
     24          1           0       -1.182356    3.498997   -0.544096
     25          6           0       -4.310919    0.130141    0.567633
     26          6           0       -5.178322   -0.988822   -0.009879
     27          6           0       -5.999739   -1.711224    1.058392
     28          1           0       -3.637328   -0.291986    1.326236
     29          1           0       -4.954325    0.852573    1.088274
     30          1           0       -4.532797   -1.708574   -0.529369
     31          1           0       -5.849115   -0.564945   -0.768154
     32          1           0       -6.667144   -1.010517    1.570428
     33          1           0       -5.343346   -2.160643    1.810570
     34          1           0       -6.612399   -2.507165    0.623667
 ---------------------------------------------------------------------

 SCF Done:  E(RHF) =  -669.535401548     A.U. after   15 cycles
 E2 =    -0.2091596106D+01 EUMP2 =    -0.67162699765396D+03

 The electronic state is 1-A.
 Alpha  occ. eigenvalues --  -20.60744 -20.60739 -15.85798 -11.31165 -11.27741
 Alpha  occ. eigenvalues --  -11.27725 -11.27485 -11.26756 -11.26723 -11.22470
 Alpha  occ. eigenvalues --  -11.22304 -11.22265 -11.22090 -11.22032 -11.21612
 Alpha  occ. eigenvalues --   -1.59820  -1.39373  -1.19340  -1.09239  -1.08736
 Alpha  occ. eigenvalues --   -1.04747  -1.04306  -0.96759  -0.95569  -0.87768
 Alpha  occ. eigenvalues --   -0.86145  -0.82404  -0.80362  -0.79034  -0.77451
 Alpha  occ. eigenvalues --   -0.72016  -0.71143  -0.70451  -0.65952  -0.64992
 Alpha  occ. eigenvalues --   -0.64734  -0.62246  -0.61547  -0.60117  -0.58352
 Alpha  occ. eigenvalues --   -0.56077  -0.55239  -0.53425  -0.53193  -0.53071
 Alpha  occ. eigenvalues --   -0.52809  -0.50710  -0.48788  -0.48770  -0.48653
 Alpha  occ. eigenvalues --   -0.47410  -0.46574  -0.46492  -0.44778  -0.44556
 Alpha  occ. eigenvalues --   -0.37325  -0.36345
 Alpha virt. eigenvalues --    0.05081   0.11290   0.16539   0.18447   0.22758
 Alpha virt. eigenvalues --    0.23613   0.25323   0.26298   0.26677   0.28609
 Alpha virt. eigenvalues --    0.29438   0.29608   0.31040   0.31336   0.31854

 Mulliken charges:
               1
     1  C   -0.172070
     2  C   -0.218493
     3  C   -0.171025
     4  C    0.158834
     5  C   -0.173495
     6  C   -0.227462
     7  H    0.225569
     8  H    0.223290
     9  H    0.275565
    10  H    0.276538
    11  H    0.234819
    12  N    0.488095
    13  O   -0.460301
    14  O   -0.460631
    15  C   -0.298675
    16  C   -0.303501
    17  C   -0.480229
    18  H    0.140127
    19  H    0.153503
    20  H    0.151876
    21  H    0.158307
    22  H    0.161225
    23  H    0.146101
    24  H    0.166636
    25  C   -0.298990
    26  C   -0.299455
    27  C   -0.476178
    28  H    0.150349
    29  H    0.153108
    30  H    0.148566
    31  H    0.153588
    32  H    0.157155
    33  H    0.155705
    34  H    0.161551
 Sum of Mulliken charges =  -0.00000

 Dipole moment (field-independent basis, Debye):
    X=             -4.0503    Y=             -2.9060    Z=             -1.7850  Tot=              5.2949
 Quadrupole moment (field-independent basis, Debye-Ang):
   XX=           -117.0449   YY=            -89.8201   ZZ=            -96.2612
   XY=            -12.8349   XZ=             -5.7182   YZ=              0.4921

 Normal termination of Gaussian 16 at Thu May  6 15:58:22 2021.
