 Gaussian 16, Revision A.03,
 Gaussian 16:  EM64L-G16RevA.03 25-Dec-2016

 -------------
 #p 6-31g* mp2
 -------------

 ------------------------------------------------------
 Input file generated by CHIRIPA (05-May-2021 14:53:12)
 ------------------------------------------------------
 Symbolic Z-matrix:
 Charge =  0 Multiplicity = 1

                         Standard orientation:
 ---------------------------------------------------------------------
 Center     Atomic      Atomic             Coordinates (Angstroms)
 Number     Number       Type             X           Y           Z
 ---------------------------------------------------------------------
      1          6           0       -4.425002   -0.492245   -0.299653
      2          6           0       -5.445649    0.231097    0.579573
      3          6           0       -6.888542   -0.025117    0.143444
      4          1           0       -4.556691   -0.172323   -1.342367
      5          1           0       -4.630177   -1.571466   -0.275540
      6          1           0       -5.237758    1.308496    0.554908
      7          1           0       -5.311388   -0.090442    1.620344
      8          1           0       -7.119552   -1.094453    0.185359
      9          1           0       -7.045503    0.312433   -0.886130
     10          1           0       -7.601533    0.501419    0.785523
     11          6           0       -2.978036   -0.245887    0.123816
     12          6           0       -1.957388   -0.969229   -0.755411
     13          6           0       -0.514495   -0.713015   -0.319282
     14          1           0       -2.772861    0.833333    0.099702
     15          1           0       -2.846346   -0.565810    1.166530
     16          1           0       -2.091649   -0.647691   -1.796182
     17          1           0       -2.165279   -2.046628   -0.730746
     18          1           0       -0.357535   -1.050565    0.710293
     19          1           0       -0.283486    0.356320   -0.361197
     20          1           0        0.198495   -1.239551   -0.961361
     21          6           0        1.712942    2.510097   -0.131204
     22          6           0        2.163976    1.851159   -1.279633
     23          6           0        2.818399    0.619692   -1.180807
     24          6           0        3.005781    0.073541    0.088011
     25          6           0        2.568002    0.705603    1.250826
     26          6           0        1.916037    1.936227    1.128140
     27          1           0        1.205525    3.466403   -0.217242
     28          1           0        2.007634    2.294465   -2.258961
     29          1           0        3.177808    0.087986   -2.053464
     30          1           0        2.738437    0.238735    2.213325
     31          1           0        1.566830    2.445706    2.021746
     32          7           0        3.697288   -1.229712    0.205264
     33          8           0        3.850057   -1.689799    1.334697
     34          8           0        4.073428   -1.766438   -0.834487
 ---------------------------------------------------------------------

 SCF Done:  E(RHF) =  -669.533905968     A.U. after   15 cycles
 E2 =    -0.2094186568D+01 EUMP2 =    -0.67162809253664D+03

 The electronic state is 1-A.
 Alpha  occ. eigenvalues --  -20.60777 -20.60772 -15.85826 -11.31182 -11.27759
 Alpha  occ. eigenvalues --  -11.27743 -11.27506 -11.26780 -11.26769 -11.21785
 Alpha  occ. eigenvalues --  -11.21619 -11.21554 -11.21498 -11.21230 -11.20893
 Alpha  occ. eigenvalues --   -1.59850  -1.39404  -1.19378  -1.08777  -1.08554
 Alpha  occ. eigenvalues --   -1.04775  -1.03613  -0.96065  -0.95604  -0.87087
 Alpha  occ. eigenvalues --   -0.86178  -0.82435  -0.79697  -0.78382  -0.77478
 Alpha  occ. eigenvalues --   -0.72048  -0.71167  -0.70494  -0.65194  -0.65027
 Alpha  occ. eigenvalues --   -0.64785  -0.62123  -0.61034  -0.59449  -0.57696
 Alpha  occ. eigenvalues --   -0.55468  -0.55288  -0.53644  -0.52872  -0.52649
 Alpha  occ. eigenvalues --   -0.52040  -0.49929  -0.48807  -0.48802  -0.47956
 Alpha  occ. eigenvalues --   -0.46708  -0.45898  -0.45842  -0.44807  -0.43885
 Alpha  occ. eigenvalues --   -0.37301  -0.36335
 Alpha virt. eigenvalues --    0.05037   0.11207   0.16515   0.21384   0.22740
 Alpha virt. eigenvalues --    0.24242   0.26511   0.27241   0.27415   0.27790
 Alpha virt. eigenvalues --    0.28325   0.30845   0.31365   0.31669   0.31790

 Mulliken charges:
               1
     1  C   -0.298135
     2  C   -0.299399
     3  C   -0.475698
     4  H    0.148932
     5  H    0.151184
     6  H    0.149796
     7  H    0.152159
     8  H    0.156219
     9  H    0.154947
    10  H    0.160145
    11  C   -0.297339
    12  C   -0.300314
    13  C   -0.479508
    14  H    0.144649
    15  H    0.149765
    16  H    0.148947
    17  H    0.153723
    18  H    0.153920
    19  H    0.158669
    20  H    0.159987
    21  C   -0.174463
    22  C   -0.216555
    23  C   -0.170036
    24  C    0.164375
    25  C   -0.169753
    26  C   -0.215845
    27  H    0.225498
    28  H    0.223364
    29  H    0.275312
    30  H    0.275496
    31  H    0.223618
    32  N    0.487588
    33  O   -0.460443
    34  O   -0.460806
 Sum of Mulliken charges =  -0.00000

 Dipole moment (field-independent basis, Debye):
    X=             -2.3406    Y=              4.5987    Z=             -0.3940  Tot=              5.1751
 Quadrupole moment (field-independent basis, Debye-Ang):
   XX=           -111.5157   YY=            -94.1013   ZZ=            -89.5457
   XY=             13.7308   XZ=             -2.3048   YZ=              0.0252

 Normal termination of Gaussian 16 at Thu May  6 18:41:08 2021.
