 Gaussian 16, Revision A.03,
 Gaussian 16:  EM64L-G16RevA.03 25-Dec-2016

 -------------
 #p 6-31g* mp2
 -------------

 ------------------------------------------------------
 Input file generated by CHIRIPA (05-May-2021 14:51:13)
 ------------------------------------------------------
 Symbolic Z-matrix:
 Charge =  0 Multiplicity = 1

                         Standard orientation:
 ---------------------------------------------------------------------
 Center     Atomic      Atomic             Coordinates (Angstroms)
 Number     Number       Type             X           Y           Z
 ---------------------------------------------------------------------
      1          6           0       -3.763390    0.004499    0.244721
      2          6           0       -5.199529   -0.177490   -0.247588
      3          6           0       -5.829645   -1.483489    0.237298
      4          1           0       -3.155736   -0.845570   -0.094521
      5          1           0       -3.753477   -0.022815    1.343152
      6          1           0       -5.206917   -0.148456   -1.344729
      7          1           0       -5.803791    0.673207    0.092703
      8          1           0       -5.851592   -1.517717    1.331349
      9          1           0       -5.251326   -2.344048   -0.114250
     10          1           0       -6.856133   -1.593208   -0.126219
     11          6           0       -3.119912    1.305509   -0.231765
     12          6           0       -1.683772    1.487498    0.260544
     13          6           0       -1.053656    2.793497   -0.224342
     14          1           0       -3.129825    1.332823   -1.330196
     15          1           0       -3.727565    2.155577    0.107477
     16          1           0       -1.079510    0.636801   -0.079747
     17          1           0       -1.676385    1.458464    1.357685
     18          1           0       -1.631975    3.654056    0.127206
     19          1           0       -1.031710    2.827725   -1.318393
     20          1           0       -0.027169    2.903216    0.139176
     21          6           0        3.861821   -0.060093    0.223672
     22          6           0        5.317501   -0.130706   -0.238926
     23          6           0        6.145330    1.066466    0.229338
     24          1           0        3.409657    0.868826   -0.149960
     25          1           0        3.835406   -0.001408    1.320601
     26          1           0        5.341116   -0.190635   -1.334584
     27          1           0        5.766198   -1.059658    0.135690
     28          1           0        6.151557    1.126599    1.322473
     29          1           0        5.724061    2.000559   -0.156155
     30          1           0        7.182643    0.995602   -0.112452
     31          6           0        3.021480   -1.249915   -0.236629
     32          6           0        1.565801   -1.179301    0.225970
     33          6           0        0.737972   -2.376474   -0.242294
     34          1           0        3.047895   -1.308600   -1.333557
     35          1           0        3.473645   -2.178833    0.137004
     36          1           0        1.117104   -0.250350   -0.148648
     37          1           0        1.542185   -1.119372    1.321627
     38          1           0        1.159240   -3.310567    0.143198
     39          1           0        0.731745   -2.436607   -1.335430
     40          1           0       -0.299341   -2.305610    0.099495
 ---------------------------------------------------------------------

 SCF Done:  E(RHF) =  -470.733257742     A.U. after   11 cycles
 E2 =    -0.1583076650D+01 EUMP2 =    -0.47231633439147D+03

 The electronic state is 1-A.
 Alpha  occ. eigenvalues --  -11.21604 -11.21601 -11.21588 -11.21558 -11.21409
 Alpha  occ. eigenvalues --  -11.21404 -11.21350 -11.21343 -11.21105 -11.21083
 Alpha  occ. eigenvalues --  -11.21072 -11.21068  -1.08450  -1.08413  -1.03567
 Alpha  occ. eigenvalues --   -1.03500  -0.95995  -0.95976  -0.87007  -0.86994
 Alpha  occ. eigenvalues --   -0.79687  -0.79514  -0.78316  -0.78170  -0.65151
 Alpha  occ. eigenvalues --   -0.64989  -0.61081  -0.60805  -0.59439  -0.59265
 Alpha  occ. eigenvalues --   -0.57641  -0.57547  -0.55300  -0.55248  -0.52710
 Alpha  occ. eigenvalues --   -0.52651  -0.52415  -0.52400  -0.49967  -0.49894
 Alpha  occ. eigenvalues --   -0.48058  -0.47801  -0.46846  -0.46456  -0.45924
 Alpha  occ. eigenvalues --   -0.45750  -0.45732  -0.45443  -0.43791  -0.43779
 Alpha virt. eigenvalues --    0.20905   0.22989   0.23703   0.24074   0.25990
 Alpha virt. eigenvalues --    0.26294   0.26982   0.27106   0.28655   0.28977
 Alpha virt. eigenvalues --    0.30812   0.31491   0.31549   0.31763   0.32158

 Mulliken charges:
               1
     1  C   -0.299730
     2  C   -0.299604
     3  C   -0.475777
     4  H    0.150490
     5  H    0.149550
     6  H    0.151983
     7  H    0.152032
     8  H    0.155152
     9  H    0.155295
    10  H    0.160275
    11  C   -0.297560
    12  C   -0.307173
    13  C   -0.476433
    14  H    0.149267
    15  H    0.149575
    16  H    0.160192
    17  H    0.151959
    18  H    0.155525
    19  H    0.154674
    20  H    0.160415
    21  C   -0.298402
    22  C   -0.299633
    23  C   -0.475740
    24  H    0.149601
    25  H    0.149568
    26  H    0.151938
    27  H    0.151970
    28  H    0.155176
    29  H    0.155234
    30  H    0.160275
    31  C   -0.297683
    32  C   -0.304602
    33  C   -0.478405
    34  H    0.149319
    35  H    0.149604
    36  H    0.156981
    37  H    0.152365
    38  H    0.155752
    39  H    0.154773
    40  H    0.161800
 Sum of Mulliken charges =  -0.00000

 Dipole moment (field-independent basis, Debye):
    X=              0.0054    Y=             -0.0030    Z=              0.0082  Tot=              0.0103
 Quadrupole moment (field-independent basis, Debye-Ang):
   XX=            -85.5287   YY=            -85.7894   ZZ=            -83.4824
   XY=             -1.4085   XZ=             -0.1040   YZ=             -0.0041

 Normal termination of Gaussian 16 at Thu May  6 02:21:55 2021.
