 Gaussian 16, Revision A.03,
 Gaussian 16:  EM64L-G16RevA.03 25-Dec-2016

 -------------
 #p 6-31g* mp2
 -------------

 ------------------------------------------------------
 Input file generated by CHIRIPA (05-May-2021 14:53:17)
 ------------------------------------------------------
 Symbolic Z-matrix:
 Charge =  0 Multiplicity = 1

                         Standard orientation:
 ---------------------------------------------------------------------
 Center     Atomic      Atomic             Coordinates (Angstroms)
 Number     Number       Type             X           Y           Z
 ---------------------------------------------------------------------
      1          6           0       -3.225622   -0.618488    0.615989
      2          6           0       -1.974298   -1.409206    0.232664
      3          6           0       -1.079473   -1.718313    1.433303
      4          1           0       -2.924279    0.319716    1.101696
      5          1           0       -3.796195   -1.187841    1.362768
      6          1           0       -1.406968   -0.839160   -0.514195
      7          1           0       -2.278653   -2.345548   -0.252359
      8          1           0       -1.624063   -2.307732    2.178023
      9          1           0       -0.747425   -0.792784    1.914699
     10          1           0       -0.190824   -2.284111    1.136592
     11          6           0       -4.130206   -0.301818   -0.573623
     12          6           0       -5.381530    0.488900   -0.190299
     13          6           0       -6.276356    0.798007   -1.390938
     14          1           0       -3.559633    0.267535   -1.320403
     15          1           0       -4.431549   -1.240021   -1.059330
     16          1           0       -5.077175    1.425242    0.294724
     17          1           0       -5.948860   -0.081146    0.556561
     18          1           0       -6.608403   -0.127521   -1.872334
     19          1           0       -5.731765    1.387426   -2.135658
     20          1           0       -7.165004    1.363805   -1.094226
     21          6           0        1.508020    1.971301    1.363241
     22          6           0        1.677337    0.651030    1.793050
     23          6           0        2.431782   -0.250700    1.036581
     24          6           0        3.005367    0.203671   -0.149942
     25          6           0        2.854901    1.512791   -0.604756
     26          6           0        2.096305    2.397217    0.167818
     27          1           0        0.920336    2.665066    1.957139
     28          1           0        1.221627    0.317481    2.721015
     29          1           0        2.578947   -1.278369    1.345867
     30          1           0        3.321394    1.816031   -1.534190
     31          1           0        1.966496    3.421975   -0.168436
     32          7           0        3.806262   -0.741791   -0.959306
     33          8           0        4.301275   -0.316789   -2.000926
     34          8           0        3.923824   -1.889944   -0.536741
 ---------------------------------------------------------------------

 SCF Done:  E(RHF) =  -669.534338578     A.U. after   15 cycles
 E2 =    -0.2092585553D+01 EUMP2 =    -0.67162692413054D+03

 The electronic state is 1-A.
 Alpha  occ. eigenvalues --  -20.60787 -20.60782 -15.85840 -11.31214 -11.27766
 Alpha  occ. eigenvalues --  -11.27760 -11.27518 -11.26801 -11.26770 -11.21920
 Alpha  occ. eigenvalues --  -11.21899 -11.21756 -11.21659 -11.21518 -11.21316
 Alpha  occ. eigenvalues --   -1.59862  -1.39415  -1.19387  -1.08792  -1.08749
 Alpha  occ. eigenvalues --   -1.04798  -1.03855  -0.96333  -0.95613  -0.87365
 Alpha  occ. eigenvalues --   -0.86190  -0.82448  -0.79932  -0.78568  -0.77487
 Alpha  occ. eigenvalues --   -0.72058  -0.71185  -0.70491  -0.65409  -0.65036
 Alpha  occ. eigenvalues --   -0.64814  -0.62186  -0.61233  -0.59689  -0.57931
 Alpha  occ. eigenvalues --   -0.55698  -0.55277  -0.53216  -0.53028  -0.52895
 Alpha  occ. eigenvalues --   -0.52615  -0.50238  -0.48819  -0.48812  -0.48237
 Alpha  occ. eigenvalues --   -0.46946  -0.46114  -0.46029  -0.44818  -0.44122
 Alpha  occ. eigenvalues --   -0.37364  -0.36312
 Alpha virt. eigenvalues --    0.05035   0.11139   0.16490   0.20834   0.22643
 Alpha virt. eigenvalues --    0.24087   0.25966   0.26440   0.26926   0.27895
 Alpha virt. eigenvalues --    0.28839   0.29607   0.31405   0.31416   0.32023

 Mulliken charges:
               1
     1  C   -0.297870
     2  C   -0.299396
     3  C   -0.477724
     4  H    0.145225
     5  H    0.149892
     6  H    0.154858
     7  H    0.155279
     8  H    0.154908
     9  H    0.148052
    10  H    0.161646
    11  C   -0.298627
    12  C   -0.299540
    13  C   -0.475830
    14  H    0.149961
    15  H    0.151624
    16  H    0.149918
    17  H    0.152338
    18  H    0.156443
    19  H    0.155256
    20  H    0.160497
    21  C   -0.173206
    22  C   -0.215856
    23  C   -0.168667
    24  C    0.157778
    25  C   -0.171393
    26  C   -0.218348
    27  H    0.225445
    28  H    0.225075
    29  H    0.275896
    30  H    0.275564
    31  H    0.223396
    32  N    0.488133
    33  O   -0.460301
    34  O   -0.460425
 Sum of Mulliken charges =  -0.00000

 Dipole moment (field-independent basis, Debye):
    X=             -2.8509    Y=              3.3020    Z=              2.7930  Tot=              5.1799
 Quadrupole moment (field-independent basis, Debye-Ang):
   XX=           -112.5923   YY=            -90.4068   ZZ=            -94.4421
   XY=             10.9606   XZ=              7.9206   YZ=             -2.5221

 Normal termination of Gaussian 16 at Thu May  6 17:17:11 2021.
