 Gaussian 16, Revision A.03,
 Gaussian 16:  EM64L-G16RevA.03 25-Dec-2016

 -------------
 #p 6-31g* mp2
 -------------

 ------------------------------------------------------
 Input file generated by CHIRIPA (05-May-2021 14:55:25)
 ------------------------------------------------------
 Symbolic Z-matrix:
 Charge =  0 Multiplicity = 1

                         Standard orientation:
 ---------------------------------------------------------------------
 Center     Atomic      Atomic             Coordinates (Angstroms)
 Number     Number       Type             X           Y           Z
 ---------------------------------------------------------------------
      1          6           0       -2.231852    2.670580    0.653797
      2          6           0       -1.683070    1.582187    1.339916
      3          6           0       -2.008291    0.273393    0.971357
      4          6           0       -2.889575    0.088677   -0.092837
      5          6           0       -3.452813    1.152456   -0.795991
      6          6           0       -3.113418    2.452625   -0.410091
      7          1           0       -1.973707    3.683933    0.946838
      8          1           0       -0.998161    1.748454    2.166536
      9          1           0       -1.597977   -0.587394    1.485271
     10          1           0       -4.132682    0.955100   -1.615898
     11          1           0       -3.541133    3.295979   -0.944749
     12          7           0       -3.241375   -1.292320   -0.492193
     13          8           0       -4.020221   -1.428365   -1.433218
     14          8           0       -2.731608   -2.212550    0.143378
     15          6           0        3.178441   -0.709707    0.574558
     16          6           0        1.877297   -1.296553    0.026271
     17          6           0        0.995711   -1.902727    1.118588
     18          1           0        3.734645   -1.496772    1.101920
     19          1           0        2.939327    0.058827    1.322605
     20          1           0        2.118781   -2.062780   -0.721524
     21          1           0        1.324217   -0.508045   -0.500012
     22          1           0        0.725909   -1.144521    1.860836
     23          1           0        1.524988   -2.708090    1.638065
     24          1           0        0.070870   -2.316389    0.704565
     25          6           0        4.070440   -0.099974   -0.505392
     26          6           0        5.371585    0.486872    0.042895
     27          6           0        6.253170    1.093046   -1.049421
     28          1           0        4.309555   -0.868508   -1.253440
     29          1           0        3.514237    0.687091   -1.032754
     30          1           0        5.924664   -0.301636    0.569178
     31          1           0        5.130100    1.253100    0.790690
     32          1           0        5.723893    1.898409   -1.568899
     33          1           0        6.522972    0.334841   -1.791670
     34          1           0        7.178010    1.506708   -0.635399
 ---------------------------------------------------------------------

 SCF Done:  E(RHF) =  -669.535406102     A.U. after   15 cycles
 E2 =    -0.2092654694D+01 EUMP2 =    -0.67162806079675D+03

 The electronic state is 1-A.
 Alpha  occ. eigenvalues --  -20.60891 -20.60879 -15.85916 -11.31196 -11.27787
 Alpha  occ. eigenvalues --  -11.27697 -11.27528 -11.26784 -11.26770 -11.21739
 Alpha  occ. eigenvalues --  -11.21610 -11.21512 -11.21454 -11.21199 -11.21005
 Alpha  occ. eigenvalues --   -1.59947  -1.39505  -1.19380  -1.08793  -1.08526
 Alpha  occ. eigenvalues --   -1.04777  -1.03605  -0.96079  -0.95624  -0.87098
 Alpha  occ. eigenvalues --   -0.86166  -0.82475  -0.79684  -0.78343  -0.77521
 Alpha  occ. eigenvalues --   -0.72144  -0.71260  -0.70504  -0.65190  -0.65036
 Alpha  occ. eigenvalues --   -0.64782  -0.62209  -0.60965  -0.59381  -0.57646
 Alpha  occ. eigenvalues --   -0.55502  -0.55179  -0.53097  -0.52992  -0.52560
 Alpha  occ. eigenvalues --   -0.52481  -0.50004  -0.48904  -0.48890  -0.47965
 Alpha  occ. eigenvalues --   -0.46716  -0.45879  -0.45817  -0.44928  -0.43796
 Alpha  occ. eigenvalues --   -0.37368  -0.36358
 Alpha virt. eigenvalues --    0.04961   0.11246   0.16414   0.20816   0.22856
 Alpha virt. eigenvalues --    0.24217   0.26055   0.26826   0.27463   0.27925
 Alpha virt. eigenvalues --    0.29341   0.30396   0.31547   0.31738   0.32289

 Mulliken charges:
               1
     1  C   -0.170363
     2  C   -0.221805
     3  C   -0.170364
     4  C    0.156019
     5  C   -0.170468
     6  C   -0.219055
     7  H    0.225595
     8  H    0.223286
     9  H    0.283326
    10  H    0.275471
    11  H    0.223446
    12  N    0.489243
    13  O   -0.459110
    14  O   -0.461821
    15  C   -0.297291
    16  C   -0.299961
    17  C   -0.491459
    18  H    0.150812
    19  H    0.144267
    20  H    0.156251
    21  H    0.150668
    22  H    0.138437
    23  H    0.157810
    24  H    0.187057
    25  C   -0.298227
    26  C   -0.299380
    27  C   -0.475645
    28  H    0.151347
    29  H    0.148550
    30  H    0.152696
    31  H    0.149830
    32  H    0.154397
    33  H    0.156273
    34  H    0.160171
 Sum of Mulliken charges =  -0.00000

 Dipole moment (field-independent basis, Debye):
    X=              1.1753    Y=              4.7465    Z=              1.3105  Tot=              5.0624
 Quadrupole moment (field-independent basis, Debye-Ang):
   XX=           -101.0717   YY=            -92.8338   ZZ=            -93.4422
   XY=            -16.1837   XZ=             -1.4155   YZ=             -1.3072

 Normal termination of Gaussian 16 at Thu May  6 12:43:15 2021.
