 Gaussian 16, Revision A.03,
 Gaussian 16:  EM64L-G16RevA.03 25-Dec-2016

 -------------
 #p 6-31g* mp2
 -------------

 ------------------------------------------------------
 Input file generated by CHIRIPA (05-May-2021 14:57:25)
 ------------------------------------------------------
 Symbolic Z-matrix:
 Charge =  0 Multiplicity = 1

                         Standard orientation:
 ---------------------------------------------------------------------
 Center     Atomic      Atomic             Coordinates (Angstroms)
 Number     Number       Type             X           Y           Z
 ---------------------------------------------------------------------
      1          6           0        2.883475    2.352336    0.220163
      2          6           0        3.872526    2.149931   -0.747996
      3          6           0        4.476929    0.897830   -0.894580
      4          6           0        4.066212   -0.134263   -0.052329
      5          6           0        3.083576    0.036055    0.921688
      6          6           0        2.492846    1.296613    1.050451
      7          1           0        2.419271    3.328283    0.327111
      8          1           0        4.177885    2.967993   -1.394198
      9          1           0        5.245072    0.713479   -1.635788
     10          1           0        2.800155   -0.798678    1.551221
     11          1           0        1.724993    1.450904    1.803207
     12          7           0        4.698829   -1.464283   -0.198078
     13          8           0        4.319279   -2.357306    0.556301
     14          8           0        5.562245   -1.588544   -1.063935
     15          6           0       -1.565166    0.328930    0.699177
     16          6           0       -2.396901    1.405469    0.373904
     17          6           0       -3.726575    1.187955    0.000807
     18          6           0       -4.193662   -0.124952   -0.036549
     19          6           0       -3.389723   -1.218382    0.281859
     20          6           0       -2.063353   -0.977257    0.652199
     21          1           0       -0.533528    0.507071    0.987936
     22          1           0       -2.012710    2.420937    0.409513
     23          1           0       -4.392306    2.002980   -0.256010
     24          1           0       -3.801230   -2.219422    0.237153
     25          1           0       -1.419706   -1.815239    0.904285
     26          7           0       -5.599579   -0.367722   -0.430072
     27          8           0       -5.986999   -1.533875   -0.455208
     28          8           0       -6.287495    0.612743   -0.705926
 ---------------------------------------------------------------------

 SCF Done:  E(RHF) =  -868.336819153     A.U. after   16 cycles
 E2 =    -0.2600027459D+01 EUMP2 =    -0.87093684661174D+03

 The electronic state is 1-A.
 Alpha  occ. eigenvalues --  -20.61529 -20.61514 -20.61019 -20.61011 -15.86587
 Alpha  occ. eigenvalues --  -15.86074 -11.32115 -11.31522 -11.28803 -11.28679
 Alpha  occ. eigenvalues --  -11.28519 -11.28122 -11.28072 -11.27915 -11.27881
 Alpha  occ. eigenvalues --  -11.27689 -11.27207 -11.27117  -1.60597  -1.60091
 Alpha  occ. eigenvalues --   -1.40146  -1.39642  -1.20326  -1.19711  -1.09686
 Alpha  occ. eigenvalues --   -1.09107  -1.05769  -1.05125  -0.96487  -0.95926
 Alpha  occ. eigenvalues --   -0.87155  -0.86530  -0.83333  -0.82749  -0.78347
 Alpha  occ. eigenvalues --   -0.77770  -0.72801  -0.72291  -0.71923  -0.71425
 Alpha  occ. eigenvalues --   -0.71415  -0.70884  -0.65982  -0.65788  -0.65372
 Alpha  occ. eigenvalues --   -0.65141  -0.63113  -0.62469  -0.56266  -0.55718
 Alpha  occ. eigenvalues --   -0.54038  -0.53831  -0.53450  -0.53227  -0.49572
 Alpha  occ. eigenvalues --   -0.49546  -0.49058  -0.49040  -0.45516  -0.45029
 Alpha  occ. eigenvalues --   -0.38302  -0.37724  -0.37359  -0.36722
 Alpha virt. eigenvalues --    0.04198   0.04763   0.10173   0.10924   0.15486
 Alpha virt. eigenvalues --    0.16214   0.18947   0.21909   0.25181   0.26520
 Alpha virt. eigenvalues --    0.27680   0.28846   0.29754   0.31366   0.32166

 Mulliken charges:
               1
     1  C   -0.170473
     2  C   -0.218065
     3  C   -0.168330
     4  C    0.159527
     5  C   -0.171625
     6  C   -0.223920
     7  H    0.226503
     8  H    0.227243
     9  H    0.279225
    10  H    0.274916
    11  H    0.218064
    12  N    0.488128
    13  O   -0.460094
    14  O   -0.456968
    15  C   -0.172198
    16  C   -0.219697
    17  C   -0.170302
    18  C    0.158767
    19  C   -0.169892
    20  C   -0.219928
    21  H    0.221128
    22  H    0.218710
    23  H    0.275967
    24  H    0.277787
    25  H    0.226461
    26  N    0.487956
    27  O   -0.458736
    28  O   -0.460154
 Sum of Mulliken charges =  -0.00000

 Dipole moment (field-independent basis, Debye):
    X=              2.9234    Y=              5.4797    Z=              1.7372  Tot=              6.4492
 Quadrupole moment (field-independent basis, Debye-Ang):
   XX=           -162.3076   YY=           -101.1245   ZZ=           -103.4316
   XY=             15.9864   XZ=             -6.5218   YZ=             -2.8871

 Normal termination of Gaussian 16 at Wed May  5 17:56:15 2021.
