 Gaussian 16, Revision A.03,
 Gaussian 16:  EM64L-G16RevA.03 25-Dec-2016

 -------------
 #p 6-31g* mp2
 -------------

 ------------------------------------------------------
 Input file generated by CHIRIPA (05-May-2021 14:51:12)
 ------------------------------------------------------
 Symbolic Z-matrix:
 Charge =  0 Multiplicity = 1

                         Standard orientation:
 ---------------------------------------------------------------------
 Center     Atomic      Atomic             Coordinates (Angstroms)
 Number     Number       Type             X           Y           Z
 ---------------------------------------------------------------------
      1          6           0        2.358904   -0.483413    0.946846
      2          6           0        1.026913    0.181313    1.296023
      3          6           0        0.247379   -0.583179    2.366384
      4          1           0        2.170218   -1.509430    0.602416
      5          1           0        2.968989   -0.566445    1.856954
      6          1           0        0.420080    0.264321    0.385265
      7          1           0        1.218775    1.205931    1.639480
      8          1           0        0.830207   -0.654186    3.290436
      9          1           0        0.026973   -1.601146    2.029094
     10          1           0       -0.701428   -0.090527    2.600731
     11          6           0        3.149766    0.269139   -0.121766
     12          6           0        4.481758   -0.395587   -0.470942
     13          6           0        5.261291    0.368905   -1.541304
     14          1           0        2.539681    0.352170   -1.031874
     15          1           0        3.338452    1.295155    0.222665
     16          1           0        4.289895   -1.420205   -0.814400
     17          1           0        5.088590   -0.478595    0.439815
     18          1           0        5.481697    1.386872   -1.204014
     19          1           0        4.678463    0.439912   -2.465355
     20          1           0        6.210098   -0.123748   -1.775651
     21          6           0       -2.439344   -0.585890   -0.349884
     22          6           0       -3.383067   -1.719549   -0.752611
     23          6           0       -2.738534   -3.099867   -0.621877
     24          1           0       -1.535728   -0.630713   -0.973113
     25          1           0       -2.111749   -0.741868    0.687298
     26          1           0       -3.709874   -1.560732   -1.788270
     27          1           0       -4.284626   -1.671906   -0.128481
     28          1           0       -2.428047   -3.283716    0.411757
     29          1           0       -1.850029   -3.171910   -1.257463
     30          1           0       -3.430642   -3.895495   -0.914832
     31          6           0       -3.069327    0.800164   -0.475196
     32          6           0       -2.125603    1.933823   -0.072469
     33          6           0       -2.770136    3.314142   -0.203204
     34          1           0       -3.396921    0.956143   -1.512378
     35          1           0       -3.972943    0.844987    0.148032
     36          1           0       -1.224044    1.886180   -0.696600
     37          1           0       -1.798796    1.775006    0.963190
     38          1           0       -3.658641    3.386184    0.432382
     39          1           0       -3.080623    3.497990   -1.236837
     40          1           0       -2.078028    4.109769    0.089752
 ---------------------------------------------------------------------

 SCF Done:  E(RHF) =  -470.731340235     A.U. after   11 cycles
 E2 =    -0.1585490218D+01 EUMP2 =    -0.47231683045246D+03

 The electronic state is 1-A.
 Alpha  occ. eigenvalues --  -11.21597 -11.21585 -11.21576 -11.21438 -11.21382
 Alpha  occ. eigenvalues --  -11.21368 -11.21298 -11.21293 -11.21098 -11.21064
 Alpha  occ. eigenvalues --  -11.21060 -11.21050  -1.08489  -1.08336  -1.03540
 Alpha  occ. eigenvalues --   -1.03485  -0.96028  -0.95920  -0.87030  -0.86951
 Alpha  occ. eigenvalues --   -0.79718  -0.79469  -0.78443  -0.78018  -0.65090
 Alpha  occ. eigenvalues --   -0.65020  -0.60999  -0.60850  -0.59474  -0.59236
 Alpha  occ. eigenvalues --   -0.57672  -0.57492  -0.55362  -0.55177  -0.52727
 Alpha  occ. eigenvalues --   -0.52625  -0.52422  -0.52365  -0.50007  -0.49842
 Alpha  occ. eigenvalues --   -0.48072  -0.47791  -0.46740  -0.46622  -0.46079
 Alpha  occ. eigenvalues --   -0.45731  -0.45564  -0.45115  -0.43772  -0.43731
 Alpha virt. eigenvalues --    0.21154   0.23089   0.23544   0.24055   0.24656
 Alpha virt. eigenvalues --    0.26458   0.26990   0.27600   0.28935   0.29625
 Alpha virt. eigenvalues --    0.30321   0.31317   0.31650   0.31976   0.32243

 Mulliken charges:
               1
     1  C   -0.298250
     2  C   -0.305814
     3  C   -0.480458
     4  H    0.149377
     5  H    0.148939
     6  H    0.163345
     7  H    0.150738
     8  H    0.155965
     9  H    0.155879
    10  H    0.159678
    11  C   -0.297955
    12  C   -0.299566
    13  C   -0.475663
    14  H    0.148359
    15  H    0.149622
    16  H    0.151866
    17  H    0.152015
    18  H    0.155154
    19  H    0.154946
    20  H    0.160218
    21  C   -0.307754
    22  C   -0.298508
    23  C   -0.476308
    24  H    0.148446
    25  H    0.161368
    26  H    0.151568
    27  H    0.151832
    28  H    0.155419
    29  H    0.154531
    30  H    0.160518
    31  C   -0.297507
    32  C   -0.304224
    33  C   -0.475322
    34  H    0.149045
    35  H    0.149138
    36  H    0.152816
    37  H    0.156343
    38  H    0.154878
    39  H    0.155034
    40  H    0.160290
 Sum of Mulliken charges =  -0.00000

 Dipole moment (field-independent basis, Debye):
    X=             -0.0231    Y=              0.0056    Z=              0.0086  Tot=              0.0253
 Quadrupole moment (field-independent basis, Debye-Ang):
   XX=            -85.1909   YY=            -85.8648   ZZ=            -83.9967
   XY=              0.3547   XZ=              0.4268   YZ=              0.7161

 Normal termination of Gaussian 16 at Thu May  6 07:04:28 2021.
