 Gaussian 16, Revision A.03,
 Gaussian 16:  EM64L-G16RevA.03 25-Dec-2016

 -------------
 #p 6-31g* mp2
 -------------

 ------------------------------------------------------
 Input file generated by CHIRIPA (05-May-2021 14:53:17)
 ------------------------------------------------------
 Symbolic Z-matrix:
 Charge =  0 Multiplicity = 1

                         Standard orientation:
 ---------------------------------------------------------------------
 Center     Atomic      Atomic             Coordinates (Angstroms)
 Number     Number       Type             X           Y           Z
 ---------------------------------------------------------------------
      1          6           0       -3.207305   -0.111143   -0.106032
      2          6           0       -4.656947   -0.410912   -0.488995
      3          6           0       -4.844251   -1.828391   -1.030720
      4          1           0       -2.564812   -0.257112   -0.985146
      5          1           0       -2.876334   -0.839316    0.647372
      6          1           0       -4.985529    0.318461   -1.240437
      7          1           0       -5.296089   -0.264027    0.391083
      8          1           0       -4.542976   -2.569409   -0.283239
      9          1           0       -4.230652   -1.983611   -1.924030
     10          1           0       -5.887840   -2.021300   -1.298239
     11          6           0       -3.004068    1.302116    0.437218
     12          6           0       -1.554426    1.601884    0.820182
     13          6           0       -1.367122    3.019363    1.361906
     14          1           0       -3.335040    2.030288   -0.316186
     15          1           0       -3.646561    1.448084    1.316332
     16          1           0       -0.915284    1.455000   -0.059897
     17          1           0       -1.225844    0.872511    1.571624
     18          1           0       -1.980722    3.174584    2.255216
     19          1           0       -1.668397    3.760382    0.614426
     20          1           0       -0.323533    3.212272    1.629426
     21          6           0        1.266835   -2.452771    0.905607
     22          6           0        0.575324   -1.624035    0.015927
     23          6           0        1.207736   -0.520016   -0.563508
     24          6           0        2.538412   -0.273074   -0.229427
     25          6           0        3.254210   -1.080139    0.653506
     26          6           0        2.601717   -2.178662    1.221000
     27          1           0        0.767762   -3.308265    1.351087
     28          1           0       -0.461429   -1.834492   -0.230848
     29          1           0        0.696062    0.138000   -1.255335
     30          1           0        4.287013   -0.844849    0.880162
     31          1           0        3.141234   -2.820547    1.911615
     32          7           0        3.218548    0.892791   -0.836529
     33          8           0        4.391452    1.088822   -0.525874
     34          8           0        2.565856    1.588490   -1.611534
 ---------------------------------------------------------------------

 SCF Done:  E(RHF) =  -669.534637159     A.U. after   15 cycles
 E2 =    -0.2093400257D+01 EUMP2 =    -0.67162803741545D+03

 The electronic state is 1-A.
 Alpha  occ. eigenvalues --  -20.60738 -20.60733 -15.85788 -11.31118 -11.27689
 Alpha  occ. eigenvalues --  -11.27671 -11.27421 -11.26701 -11.26627 -11.22262
 Alpha  occ. eigenvalues --  -11.22202 -11.21920 -11.21842 -11.21735 -11.21146
 Alpha  occ. eigenvalues --   -1.59813  -1.39368  -1.19292  -1.09018  -1.08690
 Alpha  occ. eigenvalues --   -1.04693  -1.03989  -0.96454  -0.95536  -0.87465
 Alpha  occ. eigenvalues --   -0.86090  -0.82375  -0.80095  -0.78901  -0.77381
 Alpha  occ. eigenvalues --   -0.72008  -0.71135  -0.70421  -0.65659  -0.64939
 Alpha  occ. eigenvalues --   -0.64690  -0.62083  -0.61347  -0.59831  -0.58072
 Alpha  occ. eigenvalues --   -0.55749  -0.55201  -0.53165  -0.53028  -0.52931
 Alpha  occ. eigenvalues --   -0.52673  -0.50388  -0.48769  -0.48765  -0.48374
 Alpha  occ. eigenvalues --   -0.47129  -0.46358  -0.46275  -0.44775  -0.44281
 Alpha  occ. eigenvalues --   -0.37276  -0.36218
 Alpha virt. eigenvalues --    0.05096   0.11267   0.16559   0.19974   0.22831
 Alpha virt. eigenvalues --    0.23609   0.24743   0.25803   0.27465   0.28302
 Alpha virt. eigenvalues --    0.29551   0.30478   0.31160   0.31523   0.31978

 Mulliken charges:
               1
     1  C   -0.301839
     2  C   -0.299234
     3  C   -0.476912
     4  H    0.143178
     5  H    0.145493
     6  H    0.155746
     7  H    0.154647
     8  H    0.152265
     9  H    0.154421
    10  H    0.164034
    11  C   -0.298135
    12  C   -0.303445
    13  C   -0.475520
    14  H    0.153156
    15  H    0.151588
    16  H    0.151127
    17  H    0.152101
    18  H    0.154069
    19  H    0.158177
    20  H    0.165255
    21  C   -0.172571
    22  C   -0.220648
    23  C   -0.169724
    24  C    0.157428
    25  C   -0.171551
    26  C   -0.218394
    27  H    0.225221
    28  H    0.230571
    29  H    0.275050
    30  H    0.275198
    31  H    0.222947
    32  N    0.488237
    33  O   -0.460537
    34  O   -0.461400
 Sum of Mulliken charges =  -0.00000

 Dipole moment (field-independent basis, Debye):
    X=             -2.5271    Y=             -3.9817    Z=              2.1708  Tot=              5.1916
 Quadrupole moment (field-independent basis, Debye-Ang):
   XX=           -103.2247   YY=            -93.5323   ZZ=            -94.4118
   XY=            -11.3389   XZ=              8.2168   YZ=             -1.0178

 Normal termination of Gaussian 16 at Thu May  6 10:40:07 2021.
