 Gaussian 16, Revision A.03,
 Gaussian 16:  EM64L-G16RevA.03 25-Dec-2016

 -------------
 #p 6-31g* mp2
 -------------

 ------------------------------------------------------
 Input file generated by CHIRIPA (05-May-2021 14:53:14)
 ------------------------------------------------------
 Symbolic Z-matrix:
 Charge =  0 Multiplicity = 1

                         Standard orientation:
 ---------------------------------------------------------------------
 Center     Atomic      Atomic             Coordinates (Angstroms)
 Number     Number       Type             X           Y           Z
 ---------------------------------------------------------------------
      1          6           0        2.950492   -0.325894    0.385168
      2          6           0        3.619366   -1.657554    0.042713
      3          6           0        3.528549   -2.674609    1.180757
      4          1           0        3.417232    0.089955    1.288588
      5          1           0        1.895433   -0.506611    0.633334
      6          1           0        4.672505   -1.474205   -0.206077
      7          1           0        3.151108   -2.070188   -0.860107
      8          1           0        2.482698   -2.886700    1.425327
      9          1           0        4.012740   -2.287331    2.083074
     10          1           0        4.013011   -3.619234    0.914595
     11          6           0        3.032991    0.701193   -0.742669
     12          6           0        2.364117    2.032853   -0.400214
     13          6           0        2.454934    3.049908   -1.538258
     14          1           0        4.088050    0.881910   -0.990835
     15          1           0        2.566251    0.285344   -1.646089
     16          1           0        2.832375    2.445487    0.502606
     17          1           0        1.310978    1.849504   -0.151424
     18          1           0        1.970744    2.662630   -2.440575
     19          1           0        3.500785    3.261999   -1.782828
     20          1           0        1.970473    3.994533   -1.272096
     21          6           0       -2.089599    1.975819    1.481252
     22          6           0       -1.089199    0.999195    1.525121
     23          6           0       -1.215851   -0.180650    0.785881
     24          6           0       -2.361245   -0.351788    0.009947
     25          6           0       -3.375283    0.602600   -0.054527
     26          6           0       -3.227443    1.774759    0.692959
     27          1           0       -1.982983    2.889365    2.058715
     28          1           0       -0.204449    1.152641    2.136446
     29          1           0       -0.456651   -0.953170    0.801517
     30          1           0       -4.245811    0.421199   -0.673149
     31          1           0       -4.005969    2.531493    0.656969
     32          7           0       -2.506541   -1.596769   -0.777017
     33          8           0       -3.525288   -1.723534   -1.452829
     34          8           0       -1.598926   -2.422246   -0.703128
 ---------------------------------------------------------------------

 SCF Done:  E(RHF) =  -669.535265071     A.U. after   15 cycles
 E2 =    -0.2093170311D+01 EUMP2 =    -0.67162843538209D+03

 The electronic state is 1-A.
 Alpha  occ. eigenvalues --  -20.60831 -20.60825 -15.85883 -11.31251 -11.27818
 Alpha  occ. eigenvalues --  -11.27812 -11.27555 -11.26834 -11.26815 -11.21937
 Alpha  occ. eigenvalues --  -11.21857 -11.21729 -11.21657 -11.21366 -11.21169
 Alpha  occ. eigenvalues --   -1.59905  -1.39459  -1.19430  -1.08822  -1.08744
 Alpha  occ. eigenvalues --   -1.04835  -1.03775  -0.96234  -0.95653  -0.87249
 Alpha  occ. eigenvalues --   -0.86223  -0.82490  -0.79851  -0.78623  -0.77514
 Alpha  occ. eigenvalues --   -0.72102  -0.71228  -0.70539  -0.65413  -0.65063
 Alpha  occ. eigenvalues --   -0.64825  -0.62173  -0.61159  -0.59611  -0.57851
 Alpha  occ. eigenvalues --   -0.55534  -0.55308  -0.53189  -0.52953  -0.52878
 Alpha  occ. eigenvalues --   -0.52637  -0.50166  -0.48860  -0.48857  -0.48164
 Alpha  occ. eigenvalues --   -0.46869  -0.46120  -0.46033  -0.44862  -0.44058
 Alpha  occ. eigenvalues --   -0.37398  -0.36377
 Alpha virt. eigenvalues --    0.04967   0.11167   0.16361   0.19899   0.22896
 Alpha virt. eigenvalues --    0.23658   0.25270   0.26326   0.27593   0.28086
 Alpha virt. eigenvalues --    0.29875   0.30665   0.31362   0.31615   0.31796

 Mulliken charges:
               1
     1  C   -0.301736
     2  C   -0.300536
     3  C   -0.476445
     4  H    0.147744
     5  H    0.141378
     6  H    0.152820
     7  H    0.159531
     8  H    0.155861
     9  H    0.152769
    10  H    0.163823
    11  C   -0.298064
    12  C   -0.307423
    13  C   -0.475083
    14  H    0.151305
    15  H    0.155010
    16  H    0.147628
    17  H    0.154700
    18  H    0.158192
    19  H    0.156209
    20  H    0.158030
    21  C   -0.171988
    22  C   -0.218517
    23  C   -0.176933
    24  C    0.160028
    25  C   -0.170602
    26  C   -0.218463
    27  H    0.226334
    28  H    0.227138
    29  H    0.280337
    30  H    0.275853
    31  H    0.223865
    32  N    0.487974
    33  O   -0.460026
    34  O   -0.460711
 Sum of Mulliken charges =  -0.00000

 Dipole moment (field-independent basis, Debye):
    X=              0.5124    Y=              4.3213    Z=              2.6869  Tot=              5.1143
 Quadrupole moment (field-independent basis, Debye-Ang):
   XX=            -92.3579   YY=            -98.4142   ZZ=            -95.0977
   XY=            -12.3637   XZ=             -4.8675   YZ=             -0.6973

 Normal termination of Gaussian 16 at Thu May  6 15:28:13 2021.
