 Gaussian 16, Revision A.03,
 Gaussian 16:  EM64L-G16RevA.03 25-Dec-2016

 -------------
 #p 6-31g* mp2
 -------------

 ------------------------------------------------------
 Input file generated by CHIRIPA (05-May-2021 14:51:10)
 ------------------------------------------------------
 Symbolic Z-matrix:
 Charge =  0 Multiplicity = 1

                         Standard orientation:
 ---------------------------------------------------------------------
 Center     Atomic      Atomic             Coordinates (Angstroms)
 Number     Number       Type             X           Y           Z
 ---------------------------------------------------------------------
      1          6           0       -2.235366   -1.642379   -0.147008
      2          6           0       -0.706824   -1.679561   -0.159720
      3          6           0       -0.151557   -3.086623   -0.382543
      4          1           0       -2.605583   -2.313149    0.640362
      5          1           0       -2.612799   -2.039961   -1.099304
      6          1           0       -0.332361   -1.280740    0.791771
      7          1           0       -0.340199   -1.008478   -0.947025
      8          1           0       -0.497005   -3.489951   -1.339931
      9          1           0       -0.489123   -3.763761    0.408744
     10          1           0        0.942891   -3.090107   -0.388021
     11          6           0       -2.805483   -0.242551    0.074748
     12          6           0       -4.334025   -0.205368    0.087460
     13          6           0       -4.889292    1.201694    0.310282
     14          1           0       -2.428051    0.155032    1.027044
     15          1           0       -2.435267    0.428220   -0.712622
     16          1           0       -4.700651   -0.876452    0.874765
     17          1           0       -4.708488   -0.604189   -0.864031
     18          1           0       -4.551727    1.878832   -0.481005
     19          1           0       -4.543845    1.605022    1.267671
     20          1           0       -5.983741    1.205178    0.315761
     21          6           0        2.342178    1.625220   -0.256284
     22          6           0        0.986987    2.152313    0.216594
     23          6           0        0.644475    3.519108   -0.377001
     24          1           0        3.123823    2.349226    0.011649
     25          1           0        2.339743    1.559463   -1.353128
     26          1           0        0.991497    2.215744    1.312300
     27          1           0        0.208501    1.426877   -0.052327
     28          1           0        0.612488    3.467305   -1.470113
     29          1           0        1.399933    4.260656   -0.097733
     30          1           0       -0.328340    3.876995   -0.025708
     31          6           0        2.698671    0.259710    0.328544
     32          6           0        4.053863   -0.267384   -0.144333
     33          6           0        4.396374   -1.634178    0.449261
     34          1           0        2.701106    0.325466    1.425388
     35          1           0        1.917026   -0.464298    0.060612
     36          1           0        4.832349    0.458052    0.124587
     37          1           0        4.049353   -0.330816   -1.240039
     38          1           0        3.640916   -2.375727    0.169993
     39          1           0        4.428362   -1.582377    1.542374
     40          1           0        5.369189   -1.992066    0.097968
 ---------------------------------------------------------------------

 SCF Done:  E(RHF) =  -470.732300245     A.U. after   11 cycles
 E2 =    -0.1585104453D+01 EUMP2 =    -0.47231740469808D+03

 The electronic state is 1-A.
 Alpha  occ. eigenvalues --  -11.21675 -11.21642 -11.21545 -11.21472 -11.21464
 Alpha  occ. eigenvalues --  -11.21403 -11.21306 -11.21214 -11.21171 -11.21097
 Alpha  occ. eigenvalues --  -11.21061 -11.21007  -1.08521  -1.08333  -1.03604
 Alpha  occ. eigenvalues --   -1.03464  -0.96053  -0.95914  -0.87062  -0.86936
 Alpha  occ. eigenvalues --   -0.79714  -0.79531  -0.78518  -0.77954  -0.65151
 Alpha  occ. eigenvalues --   -0.64984  -0.60998  -0.60880  -0.59437  -0.59277
 Alpha  occ. eigenvalues --   -0.57732  -0.57468  -0.55329  -0.55211  -0.52769
 Alpha  occ. eigenvalues --   -0.52609  -0.52470  -0.52339  -0.49983  -0.49871
 Alpha  occ. eigenvalues --   -0.48061  -0.47849  -0.46713  -0.46635  -0.46270
 Alpha  occ. eigenvalues --   -0.45808  -0.45625  -0.44977  -0.43841  -0.43700
 Alpha virt. eigenvalues --    0.20705   0.22156   0.23395   0.24576   0.25803
 Alpha virt. eigenvalues --    0.26174   0.26794   0.27228   0.27560   0.29573
 Alpha virt. eigenvalues --    0.30729   0.31189   0.31757   0.31885   0.32609

 Mulliken charges:
               1
     1  C   -0.297159
     2  C   -0.305253
     3  C   -0.480509
     4  H    0.149926
     5  H    0.149389
     6  H    0.156147
     7  H    0.152418
     8  H    0.155714
     9  H    0.156294
    10  H    0.163019
    11  C   -0.300405
    12  C   -0.299719
    13  C   -0.475773
    14  H    0.151003
    15  H    0.150479
    16  H    0.152137
    17  H    0.151979
    18  H    0.155323
    19  H    0.155317
    20  H    0.160406
    21  C   -0.297129
    22  C   -0.307711
    23  C   -0.475447
    24  H    0.149133
    25  H    0.148166
    26  H    0.150703
    27  H    0.161377
    28  H    0.154248
    29  H    0.154882
    30  H    0.160205
    31  C   -0.310227
    32  C   -0.298689
    33  C   -0.478348
    34  H    0.147965
    35  H    0.165111
    36  H    0.151671
    37  H    0.151270
    38  H    0.156492
    39  H    0.155263
    40  H    0.160333
 Sum of Mulliken charges =  -0.00000

 Dipole moment (field-independent basis, Debye):
    X=             -0.0757    Y=             -0.0495    Z=              0.0129  Tot=              0.0913
 Quadrupole moment (field-independent basis, Debye-Ang):
   XX=            -85.2012   YY=            -86.5440   ZZ=            -83.2656
   XY=              1.0832   XZ=              0.2971   YZ=              0.3899

 Normal termination of Gaussian 16 at Wed May  5 21:25:52 2021.
