 Gaussian 16, Revision A.03,
 Gaussian 16:  EM64L-G16RevA.03 25-Dec-2016

 -------------
 #p 6-31g* mp2
 -------------

 ------------------------------------------------------
 Input file generated by CHIRIPA (05-May-2021 14:53:14)
 ------------------------------------------------------
 Symbolic Z-matrix:
 Charge =  0 Multiplicity = 1

                         Standard orientation:
 ---------------------------------------------------------------------
 Center     Atomic      Atomic             Coordinates (Angstroms)
 Number     Number       Type             X           Y           Z
 ---------------------------------------------------------------------
      1          6           0        3.096032    0.547272    0.002591
      2          6           0        3.772382    1.913567   -0.114768
      3          6           0        2.771844    3.069702   -0.123214
      4          1           0        2.393558    0.420036   -0.832445
      5          1           0        2.495934    0.520796    0.922687
      6          1           0        4.372131    1.936971   -1.033664
      7          1           0        4.473469    2.037486    0.720539
      8          1           0        2.181141    3.074705    0.798548
      9          1           0        2.079227    2.973619   -0.965622
     10          1           0        3.276809    4.037025   -0.207812
     11          6           0        4.083207   -0.618541    0.012364
     12          6           0        3.406857   -1.984836    0.129724
     13          6           0        4.407395   -3.140970    0.138170
     14          1           0        4.683305   -0.592064   -0.907731
     15          1           0        4.785681   -0.491305    0.847401
     16          1           0        2.705770   -2.108755   -0.705583
     17          1           0        2.807108   -2.008240    1.048620
     18          1           0        5.100012   -3.044888    0.980578
     19          1           0        4.998098   -3.145974   -0.783592
     20          1           0        3.902430   -4.108294    0.222768
     21          6           0       -1.623107    2.255079    0.093631
     22          6           0       -3.015493    2.195271    0.212807
     23          6           0       -3.680575    0.966722    0.159145
     24          6           0       -2.918592   -0.187482   -0.015459
     25          6           0       -1.530169   -0.160570   -0.137311
     26          6           0       -0.886187    1.079041   -0.080741
     27          1           0       -1.114650    3.213742    0.136447
     28          1           0       -3.590362    3.106979    0.348306
     29          1           0       -4.757496    0.891589    0.248659
     30          1           0       -0.984178   -1.086473   -0.271533
     31          1           0        0.195265    1.122465   -0.173582
     32          7           0       -3.611516   -1.493947   -0.073808
     33          8           0       -2.917358   -2.496393   -0.228352
     34          8           0       -4.835667   -1.490771    0.036107
 ---------------------------------------------------------------------

 SCF Done:  E(RHF) =  -669.535457280     A.U. after   15 cycles
 E2 =    -0.2092365043D+01 EUMP2 =    -0.67162782232318D+03

 The electronic state is 1-A.
 Alpha  occ. eigenvalues --  -20.60665 -20.60660 -15.85715 -11.31046 -11.27616
 Alpha  occ. eigenvalues --  -11.27580 -11.27316 -11.26627 -11.26482 -11.22643
 Alpha  occ. eigenvalues --  -11.22514 -11.22331 -11.22196 -11.22122 -11.21450
 Alpha  occ. eigenvalues --   -1.59741  -1.39296  -1.19205  -1.09344  -1.08604
 Alpha  occ. eigenvalues --   -1.04603  -1.04361  -0.96844  -0.95449  -0.87859
 Alpha  occ. eigenvalues --   -0.86005  -0.82289  -0.80475  -0.79177  -0.77316
 Alpha  occ. eigenvalues --   -0.71934  -0.71064  -0.70313  -0.65959  -0.64851
 Alpha  occ. eigenvalues --   -0.64611  -0.61980  -0.61737  -0.60206  -0.58448
 Alpha  occ. eigenvalues --   -0.56140  -0.55101  -0.53494  -0.53293  -0.52939
 Alpha  occ. eigenvalues --   -0.52700  -0.50780  -0.48800  -0.48693  -0.48623
 Alpha  occ. eigenvalues --   -0.47495  -0.46618  -0.46559  -0.44709  -0.44629
 Alpha  occ. eigenvalues --   -0.37188  -0.36202
 Alpha virt. eigenvalues --    0.05183   0.11396   0.16664   0.19905   0.22446
 Alpha virt. eigenvalues --    0.23485   0.25105   0.25964   0.26083   0.28712
 Alpha virt. eigenvalues --    0.29692   0.30007   0.30644   0.31203   0.31798

 Mulliken charges:
               1
     1  C   -0.309038
     2  C   -0.298074
     3  C   -0.483692
     4  H    0.145827
     5  H    0.150230
     6  H    0.156569
     7  H    0.156849
     8  H    0.153222
     9  H    0.151965
    10  H    0.167050
    11  C   -0.296867
    12  C   -0.301758
    13  C   -0.476470
    14  H    0.152526
    15  H    0.152895
    16  H    0.151538
    17  H    0.153235
    18  H    0.156196
    19  H    0.156292
    20  H    0.164715
    21  C   -0.175418
    22  C   -0.218365
    23  C   -0.171708
    24  C    0.159009
    25  C   -0.175729
    26  C   -0.230152
    27  H    0.226814
    28  H    0.222663
    29  H    0.274939
    30  H    0.275489
    31  H    0.243006
    32  N    0.488068
    33  O   -0.460814
    34  O   -0.461012
 Sum of Mulliken charges =  -0.00000

 Dipole moment (field-independent basis, Debye):
    X=              2.7973    Y=              4.5568    Z=              0.2241  Tot=              5.3516
 Quadrupole moment (field-independent basis, Debye-Ang):
   XX=           -104.5350   YY=            -96.3886   ZZ=            -94.5437
   XY=            -15.7911   XZ=             -1.1786   YZ=              0.2790

 Normal termination of Gaussian 16 at Thu May  6 15:25:44 2021.
