 Gaussian 16, Revision A.03,
 Gaussian 16:  EM64L-G16RevA.03 25-Dec-2016

 -------------
 #p 6-31g* mp2
 -------------

 ------------------------------------------------------
 Input file generated by CHIRIPA (05-May-2021 14:53:15)
 ------------------------------------------------------
 Symbolic Z-matrix:
 Charge =  0 Multiplicity = 1

                         Standard orientation:
 ---------------------------------------------------------------------
 Center     Atomic      Atomic             Coordinates (Angstroms)
 Number     Number       Type             X           Y           Z
 ---------------------------------------------------------------------
      1          6           0        3.479737   -0.639216   -0.390707
      2          6           0        2.324430   -1.635073   -0.283376
      3          6           0        2.756701   -3.074504   -0.564399
      4          1           0        3.917655   -0.702376   -1.396283
      5          1           0        4.271462   -0.929457    0.313798
      6          1           0        1.534529   -1.342247   -0.986886
      7          1           0        1.889089   -1.569399    0.722000
      8          1           0        3.528459   -3.390431    0.144954
      9          1           0        3.171884   -3.161989   -1.573641
     10          1           0        1.915346   -3.769652   -0.482236
     11          6           0        3.063333    0.804017   -0.112471
     12          6           0        4.218640    1.799873   -0.219801
     13          6           0        3.786369    3.239305    0.061221
     14          1           0        2.271608    1.094257   -0.816976
     15          1           0        2.625415    0.867177    0.893105
     16          1           0        4.653981    1.734199   -1.225178
     17          1           0        5.008541    1.507048    0.483708
     18          1           0        3.371186    3.326790    1.070463
     19          1           0        3.014611    3.555232   -0.648132
     20          1           0        4.627724    3.934452   -0.020942
     21          6           0       -4.285713    1.280050   -1.054904
     22          6           0       -3.794393    0.089870   -1.601346
     23          6           0       -2.835809   -0.663153   -0.916788
     24          6           0       -2.388654   -0.194349    0.317540
     25          6           0       -2.858832    0.987410    0.888214
     26          6           0       -3.817190    1.724238    0.185945
     27          1           0       -5.030276    1.858726   -1.593564
     28          1           0       -4.156437   -0.257519   -2.564824
     29          1           0       -2.438386   -1.588121   -1.316671
     30          1           0       -2.478784    1.308124    1.850567
     31          1           0       -4.196967    2.648172    0.612746
     32          7           0       -1.373963   -0.982969    1.051627
     33          8           0       -0.996181   -0.548355    2.137458
     34          8           0       -0.975644   -2.020770    0.527272
 ---------------------------------------------------------------------

 SCF Done:  E(RHF) =  -669.536158219     A.U. after   15 cycles
 E2 =    -0.2092063063D+01 EUMP2 =    -0.67162822128273D+03

 The electronic state is 1-A.
 Alpha  occ. eigenvalues --  -20.60969 -20.60947 -15.85963 -11.31291 -11.27852
 Alpha  occ. eigenvalues --  -11.27847 -11.27588 -11.26858 -11.26848 -11.21028
 Alpha  occ. eigenvalues --  -11.20655 -11.20606 -11.20365 -11.20113 -11.19807
 Alpha  occ. eigenvalues --   -1.60002  -1.39561  -1.19456  -1.08862  -1.07525
 Alpha  occ. eigenvalues --   -1.04852  -1.02584  -0.95706  -0.95088  -0.86253
 Alpha  occ. eigenvalues --   -0.86121  -0.82543  -0.78694  -0.77598  -0.77271
 Alpha  occ. eigenvalues --   -0.72191  -0.71297  -0.70566  -0.65113  -0.64857
 Alpha  occ. eigenvalues --   -0.64167  -0.62200  -0.59993  -0.58483  -0.56645
 Alpha  occ. eigenvalues --   -0.55357  -0.54411  -0.53183  -0.52944  -0.51786
 Alpha  occ. eigenvalues --   -0.51511  -0.49118  -0.48958  -0.48952  -0.47013
 Alpha  occ. eigenvalues --   -0.45731  -0.45189  -0.44661  -0.44537  -0.42842
 Alpha  occ. eigenvalues --   -0.37431  -0.36453
 Alpha virt. eigenvalues --    0.04912   0.11198   0.16395   0.21320   0.23671
 Alpha virt. eigenvalues --    0.25219   0.27205   0.27508   0.28006   0.28552
 Alpha virt. eigenvalues --    0.28844   0.30881   0.32038   0.32442   0.32693

 Mulliken charges:
               1
     1  C   -0.298527
     2  C   -0.297900
     3  C   -0.477200
     4  H    0.143870
     5  H    0.147472
     6  H    0.145412
     7  H    0.171488
     8  H    0.151347
     9  H    0.146635
    10  H    0.167840
    11  C   -0.298692
    12  C   -0.298525
    13  C   -0.475143
    14  H    0.143828
    15  H    0.155140
    16  H    0.149757
    17  H    0.151908
    18  H    0.155423
    19  H    0.152137
    20  H    0.158076
    21  C   -0.170597
    22  C   -0.218578
    23  C   -0.171070
    24  C    0.159330
    25  C   -0.170589
    26  C   -0.218558
    27  H    0.225992
    28  H    0.223792
    29  H    0.275697
    30  H    0.275837
    31  H    0.223875
    32  N    0.488955
    33  O   -0.460654
    34  O   -0.457777
 Sum of Mulliken charges =  -0.00000

 Dipole moment (field-independent basis, Debye):
    X=             -3.8641    Y=              2.6785    Z=             -2.4239  Tot=              5.2897
 Quadrupole moment (field-independent basis, Debye-Ang):
   XX=            -79.2699   YY=            -95.3580   ZZ=            -93.1645
   XY=             -6.1390   XZ=              5.9141   YZ=              3.7884

 Normal termination of Gaussian 16 at Wed May  5 23:30:16 2021.
