 Gaussian 16, Revision A.03,
 Gaussian 16:  EM64L-G16RevA.03 25-Dec-2016

 -------------
 #p 6-31g* mp2
 -------------

 ------------------------------------------------------
 Input file generated by CHIRIPA (05-May-2021 14:53:12)
 ------------------------------------------------------
 Symbolic Z-matrix:
 Charge =  0 Multiplicity = 1

                         Standard orientation:
 ---------------------------------------------------------------------
 Center     Atomic      Atomic             Coordinates (Angstroms)
 Number     Number       Type             X           Y           Z
 ---------------------------------------------------------------------
      1          6           0        4.738249   -0.193846   -0.149109
      2          6           0        5.422475    0.292039    1.129068
      3          6           0        6.902027    0.616629    0.920831
      4          1           0        5.261715   -1.085007   -0.521615
      5          1           0        4.839803    0.576077   -0.926476
      6          1           0        5.318461   -0.477991    1.904213
      7          1           0        4.897202    1.182034    1.498679
      8          1           0        7.021883    1.401091    0.166607
      9          1           0        7.445536   -0.268366    0.574445
     10          1           0        7.371499    0.962068    1.847183
     11          6           0        3.258759   -0.522350    0.043044
     12          6           0        2.574532   -1.008235   -1.235132
     13          6           0        1.094981   -1.332825   -1.026896
     14          1           0        3.157205   -1.292273    0.820412
     15          1           0        2.735292    0.368810    0.415550
     16          1           0        3.099806   -1.898230   -1.604744
     17          1           0        2.678546   -0.238205   -2.010278
     18          1           0        0.551471   -0.447831   -0.680510
     19          1           0        0.975124   -2.117288   -0.272672
     20          1           0        0.625508   -1.678264   -1.953248
     21          6           0       -4.342064   -1.761070    0.888091
     22          6           0       -3.339232   -1.894983   -0.077786
     23          6           0       -2.657639   -0.771125   -0.554151
     24          6           0       -3.006056    0.477065   -0.040420
     25          6           0       -4.000508    0.642990    0.922296
     26          6           0       -4.668925   -0.494743    1.384174
     27          1           0       -4.866423   -2.639499    1.252515
     28          1           0       -3.083282   -2.877182   -0.464852
     29          1           0       -1.877138   -0.846115   -1.301555
     30          1           0       -4.233474    1.635235    1.289169
     31          1           0       -5.447303   -0.387738    2.134323
     32          7           0       -2.291460    1.674187   -0.537057
     33          8           0       -2.617141    2.762750   -0.068442
     34          8           0       -1.419209    1.501262   -1.385534
 ---------------------------------------------------------------------

 SCF Done:  E(RHF) =  -669.535801286     A.U. after   15 cycles
 E2 =    -0.2091939401D+01 EUMP2 =    -0.67162774068693D+03

 The electronic state is 1-A.
 Alpha  occ. eigenvalues --  -20.60873 -20.60864 -15.85895 -11.31166 -11.27752
 Alpha  occ. eigenvalues --  -11.27678 -11.27485 -11.26748 -11.26720 -11.21328
 Alpha  occ. eigenvalues --  -11.21305 -11.21097 -11.21034 -11.20873 -11.20826
 Alpha  occ. eigenvalues --   -1.59933  -1.39490  -1.19344  -1.08761  -1.08134
 Alpha  occ. eigenvalues --   -1.04733  -1.03265  -0.95766  -0.95584  -0.86791
 Alpha  occ. eigenvalues --   -0.86126  -0.82440  -0.79360  -0.77954  -0.77479
 Alpha  occ. eigenvalues --   -0.72122  -0.71247  -0.70458  -0.65005  -0.64791
 Alpha  occ. eigenvalues --   -0.64700  -0.62101  -0.60630  -0.59115  -0.57347
 Alpha  occ. eigenvalues --   -0.55271  -0.54989  -0.53086  -0.52911  -0.52383
 Alpha  occ. eigenvalues --   -0.52141  -0.49694  -0.48874  -0.48845  -0.47658
 Alpha  occ. eigenvalues --   -0.46347  -0.45506  -0.45407  -0.44817  -0.43536
 Alpha  occ. eigenvalues --   -0.37332  -0.36320
 Alpha virt. eigenvalues --    0.04997   0.11274   0.16472   0.21221   0.23213
 Alpha virt. eigenvalues --    0.24481   0.26461   0.26983   0.27824   0.27894
 Alpha virt. eigenvalues --    0.29106   0.30699   0.31567   0.31866   0.32113

 Mulliken charges:
               1
     1  C   -0.298510
     2  C   -0.299717
     3  C   -0.475641
     4  H    0.147968
     5  H    0.151672
     6  H    0.150329
     7  H    0.153632
     8  H    0.156019
     9  H    0.154156
    10  H    0.159589
    11  C   -0.299632
    12  C   -0.298231
    13  C   -0.487480
    14  H    0.146355
    15  H    0.154837
    16  H    0.148719
    17  H    0.158291
    18  H    0.173269
    19  H    0.148457
    20  H    0.152492
    21  C   -0.170382
    22  C   -0.220975
    23  C   -0.172376
    24  C    0.156508
    25  C   -0.170575
    26  C   -0.218956
    27  H    0.225490
    28  H    0.223806
    29  H    0.284431
    30  H    0.275266
    31  H    0.223258
    32  N    0.487888
    33  O   -0.459353
    34  O   -0.460604
 Sum of Mulliken charges =  -0.00000

 Dipole moment (field-independent basis, Debye):
    X=             -2.5567    Y=             -4.0795    Z=              1.7375  Tot=              5.1184
 Quadrupole moment (field-independent basis, Debye-Ang):
   XX=            -79.8845   YY=            -96.9367   ZZ=            -93.6287
   XY=              9.6060   XZ=             -7.2733   YZ=              2.6539

 Normal termination of Gaussian 16 at Thu May  6 12:00:27 2021.
