 Gaussian 16, Revision A.03,
 Gaussian 16:  EM64L-G16RevA.03 25-Dec-2016

 -------------
 #p 6-31g* mp2
 -------------

 ------------------------------------------------------
 Input file generated by CHIRIPA (05-May-2021 14:57:27)
 ------------------------------------------------------
 Symbolic Z-matrix:
 Charge =  0 Multiplicity = 1

                         Standard orientation:
 ---------------------------------------------------------------------
 Center     Atomic      Atomic             Coordinates (Angstroms)
 Number     Number       Type             X           Y           Z
 ---------------------------------------------------------------------
      1          6           0       -3.189402    2.517073    0.180898
      2          6           0       -2.655681    1.848159   -0.925546
      3          6           0       -2.802066    0.464016   -1.056948
      4          6           0       -3.491099   -0.222978   -0.058668
      5          6           0       -4.034244    0.414997    1.055456
      6          6           0       -3.875770    1.799621    1.166131
      7          1           0       -3.070991    3.592495    0.274923
      8          1           0       -2.122159    2.402768   -1.692233
      9          1           0       -2.398925   -0.078964   -1.903156
     10          1           0       -4.561030   -0.164978    1.803482
     11          1           0       -4.291317    2.316474    2.026496
     12          7           0       -3.652469   -1.688563   -0.186806
     13          8           0       -4.263777   -2.270915    0.706395
     14          8           0       -3.164589   -2.227186   -1.178014
     15          6           0        0.963572    0.187310   -0.224898
     16          6           0        1.513231   -0.123082    1.023322
     17          6           0        2.897531   -0.239666    1.180387
     18          6           0        3.706284   -0.038472    0.062921
     19          6           0        3.188782    0.271900   -1.193721
     20          6           0        1.801624    0.383465   -1.327492
     21          1           0       -0.112896    0.275925   -0.337861
     22          1           0        0.864813   -0.275951    1.881361
     23          1           0        3.349651   -0.478972    2.135237
     24          1           0        3.860709    0.418674   -2.030614
     25          1           0        1.377539    0.624623   -2.298078
     26          7           0        5.173294   -0.159237    0.216870
     27          8           0        5.864233    0.022754   -0.783190
     28          8           0        5.604417   -0.433598    1.334677
 ---------------------------------------------------------------------

 SCF Done:  E(RHF) =  -868.336902913     A.U. after   16 cycles
 E2 =    -0.2601309551D+01 EUMP2 =    -0.87093821246478D+03

 The electronic state is 1-A.
 Alpha  occ. eigenvalues --  -20.61754 -20.61747 -20.60767 -20.60761 -15.86815
 Alpha  occ. eigenvalues --  -15.85822 -11.32400 -11.31187 -11.28989 -11.28895
 Alpha  occ. eigenvalues --  -11.28640 -11.28029 -11.27916 -11.27796 -11.27759
 Alpha  occ. eigenvalues --  -11.27409 -11.26823 -11.26740  -1.60829  -1.59842
 Alpha  occ. eigenvalues --   -1.40375  -1.39396  -1.20579  -1.19367  -1.09895
 Alpha  occ. eigenvalues --   -1.08756  -1.06005  -1.04781  -0.96705  -0.95590
 Alpha  occ. eigenvalues --   -0.87352  -0.86180  -0.83530  -0.82431  -0.78563
 Alpha  occ. eigenvalues --   -0.77482  -0.73016  -0.72176  -0.72040  -0.71613
 Alpha  occ. eigenvalues --   -0.71166  -0.70478  -0.66190  -0.65939  -0.65021
 Alpha  occ. eigenvalues --   -0.64810  -0.63310  -0.62139  -0.56400  -0.55590
 Alpha  occ. eigenvalues --   -0.54054  -0.53987  -0.53097  -0.52880  -0.49794
 Alpha  occ. eigenvalues --   -0.49768  -0.48800  -0.48794  -0.45731  -0.44801
 Alpha  occ. eigenvalues --   -0.38530  -0.37609  -0.37310  -0.36392
 Alpha virt. eigenvalues --    0.03932   0.05060   0.09980   0.11258   0.15368
 Alpha virt. eigenvalues --    0.16573   0.19936   0.21741   0.25682   0.27122
 Alpha virt. eigenvalues --    0.27621   0.29081   0.29924   0.31208   0.31604

 Mulliken charges:
               1
     1  C   -0.170370
     2  C   -0.218723
     3  C   -0.191231
     4  C    0.162139
     5  C   -0.171652
     6  C   -0.217815
     7  H    0.230773
     8  H    0.226273
     9  H    0.276962
    10  H    0.279423
    11  H    0.228390
    12  N    0.487890
    13  O   -0.456471
    14  O   -0.458604
    15  C   -0.174781
    16  C   -0.222340
    17  C   -0.170053
    18  C    0.157889
    19  C   -0.169991
    20  C   -0.222859
    21  H    0.235044
    22  H    0.224322
    23  H    0.275791
    24  H    0.275246
    25  H    0.217685
    26  N    0.488045
    27  O   -0.460760
    28  O   -0.460220
 Sum of Mulliken charges =  -0.00000

 Dipole moment (field-independent basis, Debye):
    X=             -4.9419    Y=              5.6292    Z=              0.0530  Tot=              7.4909
 Quadrupole moment (field-independent basis, Debye-Ang):
   XX=           -145.9948   YY=           -107.8925   ZZ=            -96.6345
   XY=            -16.6546   XZ=             -7.4249   YZ=             -1.5233

 Normal termination of Gaussian 16 at Fri May  7 02:02:48 2021.
