 Gaussian 16, Revision A.03,
 Gaussian 16:  EM64L-G16RevA.03 25-Dec-2016

 -------------
 #p 6-31g* mp2
 -------------

 ------------------------------------------------------
 Input file generated by CHIRIPA (05-May-2021 14:57:22)
 ------------------------------------------------------
 Symbolic Z-matrix:
 Charge =  0 Multiplicity = 1

                         Standard orientation:
 ---------------------------------------------------------------------
 Center     Atomic      Atomic             Coordinates (Angstroms)
 Number     Number       Type             X           Y           Z
 ---------------------------------------------------------------------
      1          6           0        2.025249   -1.989148    1.412982
      2          6           0        2.547574   -2.122140    0.122242
      3          6           0        3.050840   -1.009356   -0.558186
      4          6           0        3.016014    0.226942    0.084968
      5          6           0        2.502097    0.391635    1.370291
      6          6           0        2.004215   -0.734896    2.031797
      7          1           0        1.636392   -2.858925    1.934205
      8          1           0        2.565192   -3.094974   -0.360799
      9          1           0        3.460931   -1.083910   -1.558028
     10          1           0        2.498051    1.374410    1.825873
     11          1           0        1.599172   -0.628636    3.034140
     12          7           0        3.545949    1.412273   -0.625354
     13          8           0        3.503856    2.490472   -0.036838
     14          8           0        3.993372    1.240693   -1.757172
     15          6           0       -4.783217    1.551656    0.445991
     16          6           0       -3.447805    1.946283    0.578140
     17          6           0       -2.412096    1.077296    0.222168
     18          6           0       -2.749384   -0.184646   -0.264686
     19          6           0       -4.070144   -0.606990   -0.407888
     20          6           0       -5.089585    0.278524   -0.045734
     21          1           0       -5.581462    2.233125    0.724920
     22          1           0       -3.206912    2.934412    0.959737
     23          1           0       -1.369666    1.357069    0.314292
     24          1           0       -4.279047   -1.598351   -0.791268
     25          1           0       -6.125783   -0.030647   -0.149429
     26          7           0       -1.661536   -1.113351   -0.644811
     27          8           0       -1.985055   -2.219768   -1.071208
     28          8           0       -0.505962   -0.717269   -0.509156
 ---------------------------------------------------------------------

 SCF Done:  E(RHF) =  -868.337864800     A.U. after   16 cycles
 E2 =    -0.2601118069D+01 EUMP2 =    -0.87093898286929D+03

 The electronic state is 1-A.
 Alpha  occ. eigenvalues --  -20.61160 -20.61110 -20.59939 -20.59911 -15.86164
 Alpha  occ. eigenvalues --  -15.84968 -11.31446 -11.29998 -11.28012 -11.27984
 Alpha  occ. eigenvalues --  -11.27723 -11.27002 -11.26975 -11.26633 -11.26469
 Alpha  occ. eigenvalues --  -11.26222 -11.25605 -11.25407  -1.60217  -1.59008
 Alpha  occ. eigenvalues --   -1.39770  -1.38573  -1.19611  -1.18113  -1.09024
 Alpha  occ. eigenvalues --   -1.07591  -1.04995  -1.03511  -0.95875  -0.94498
 Alpha  occ. eigenvalues --   -0.86397  -0.84958  -0.82708  -0.81371  -0.77768
 Alpha  occ. eigenvalues --   -0.76453  -0.72422  -0.71540  -0.71209  -0.70713
 Alpha  occ. eigenvalues --   -0.70311  -0.69319  -0.65264  -0.64993  -0.63826
 Alpha  occ. eigenvalues --   -0.63591  -0.62340  -0.60928  -0.55500  -0.54075
 Alpha  occ. eigenvalues --   -0.53339  -0.53083  -0.51791  -0.51675  -0.49176
 Alpha  occ. eigenvalues --   -0.49093  -0.47975  -0.47930  -0.45195  -0.44056
 Alpha  occ. eigenvalues --   -0.37596  -0.36599  -0.35978  -0.35012
 Alpha virt. eigenvalues --    0.04744   0.06096   0.11057   0.12577   0.16261
 Alpha virt. eigenvalues --    0.17681   0.21217   0.22469   0.27121   0.28019
 Alpha virt. eigenvalues --    0.28384   0.29332   0.30764   0.31916   0.32288

 Mulliken charges:
               1
     1  C   -0.161663
     2  C   -0.201826
     3  C   -0.163885
     4  C    0.162067
     5  C   -0.174158
     6  C   -0.215887
     7  H    0.221203
     8  H    0.222010
     9  H    0.272062
    10  H    0.266786
    11  H    0.214889
    12  N    0.487679
    13  O   -0.468011
    14  O   -0.461990
    15  C   -0.170533
    16  C   -0.218770
    17  C   -0.171646
    18  C    0.157284
    19  C   -0.171244
    20  C   -0.218621
    21  H    0.226695
    22  H    0.225562
    23  H    0.276871
    24  H    0.275040
    25  H    0.223940
    26  N    0.489016
    27  O   -0.464087
    28  O   -0.458784
 Sum of Mulliken charges =  -0.00000

 Dipole moment (field-independent basis, Debye):
    X=             -5.9149    Y=             -1.1047    Z=              3.6990  Tot=              7.0632
 Quadrupole moment (field-independent basis, Debye-Ang):
   XX=            -94.1494   YY=           -104.7212   ZZ=           -103.1921
   XY=            -20.4709   XZ=              4.2594   YZ=              2.7792

 Normal termination of Gaussian 16 at Fri May  7 04:49:27 2021.
