 Gaussian 16, Revision A.03,
 Gaussian 16:  EM64L-G16RevA.03 25-Dec-2016

 -------------
 #p 6-31g* mp2
 -------------

 ------------------------------------------------------
 Input file generated by CHIRIPA (05-May-2021 14:51:11)
 ------------------------------------------------------
 Symbolic Z-matrix:
 Charge =  0 Multiplicity = 1

                         Standard orientation:
 ---------------------------------------------------------------------
 Center     Atomic      Atomic             Coordinates (Angstroms)
 Number     Number       Type             X           Y           Z
 ---------------------------------------------------------------------
      1          6           0        3.004521    0.185866    0.569364
      2          6           0        1.711131   -0.610753    0.394640
      3          6           0        0.539591   -0.014597    1.175591
      4          1           0        3.258712    0.230567    1.637228
      5          1           0        2.835531    1.221916    0.244652
      6          1           0        1.882899   -1.645337    0.718287
      7          1           0        1.460092   -0.653726   -0.672950
      8          1           0        0.339748    1.010577    0.847444
      9          1           0        0.764957    0.013332    2.246587
     10          1           0       -0.374835   -0.599687    1.036467
     11          6           0        4.184803   -0.397723   -0.205288
     12          6           0        5.478192    0.398895   -0.030564
     13          6           0        6.649733   -0.197260   -0.811515
     14          1           0        4.353792   -1.433773    0.119424
     15          1           0        3.930611   -0.442424   -1.273152
     16          1           0        5.729231    0.441868    1.037026
     17          1           0        5.306425    1.433480   -0.354211
     18          1           0        6.424367   -0.225189   -1.882510
     19          1           0        6.849575   -1.222434   -0.483368
     20          1           0        7.564159    0.387829   -0.672390
     21          6           0       -3.880011    0.813904   -0.209936
     22          6           0       -2.808059    1.902561   -0.148866
     23          6           0       -3.394489    3.313470   -0.205687
     24          1           0       -4.462728    0.933401   -1.133574
     25          1           0       -4.582636    0.953771    0.623221
     26          1           0       -2.106874    1.759857   -0.981087
     27          1           0       -2.227703    1.780343    0.774641
     28          1           0       -4.078858    3.480246    0.632423
     29          1           0       -3.957342    3.459645   -1.133281
     30          1           0       -2.610760    4.076096   -0.160647
     31          6           0       -3.309312   -0.602047   -0.154140
     32          6           0       -4.381265   -1.690703   -0.215210
     33          6           0       -3.794834   -3.101613   -0.158390
     34          1           0       -2.606688   -0.741913   -0.987297
     35          1           0       -2.726596   -0.721544    0.769497
     36          1           0       -4.961621   -1.568485   -1.138717
     37          1           0       -5.082450   -1.548000    0.617011
     38          1           0       -3.231982   -3.247788    0.769205
     39          1           0       -3.110466   -3.268389   -0.996500
     40          1           0       -4.578564   -3.864239   -0.203428
 ---------------------------------------------------------------------

 SCF Done:  E(RHF) =  -470.732733660     A.U. after   11 cycles
 E2 =    -0.1583314254D+01 EUMP2 =    -0.47231604791447D+03

 The electronic state is 1-A.
 Alpha  occ. eigenvalues --  -11.21603 -11.21584 -11.21546 -11.21544 -11.21395
 Alpha  occ. eigenvalues --  -11.21374 -11.21336 -11.21313 -11.21083 -11.21058
 Alpha  occ. eigenvalues --  -11.21048 -11.20931  -1.08434  -1.08385  -1.03523
 Alpha  occ. eigenvalues --   -1.03483  -0.95986  -0.95926  -0.86990  -0.86961
 Alpha  occ. eigenvalues --   -0.79618  -0.79539  -0.78269  -0.78173  -0.65063
 Alpha  occ. eigenvalues --   -0.65023  -0.60938  -0.60867  -0.59353  -0.59323
 Alpha  occ. eigenvalues --   -0.57709  -0.57429  -0.55271  -0.55221  -0.52789
 Alpha  occ. eigenvalues --   -0.52589  -0.52461  -0.52250  -0.49943  -0.49869
 Alpha  occ. eigenvalues --   -0.48034  -0.47732  -0.46664  -0.46543  -0.45801
 Alpha  occ. eigenvalues --   -0.45734  -0.45716  -0.45614  -0.43793  -0.43627
 Alpha virt. eigenvalues --    0.22062   0.23073   0.24021   0.24095   0.25727
 Alpha virt. eigenvalues --    0.26505   0.27028   0.27376   0.27921   0.29319
 Alpha virt. eigenvalues --    0.30070   0.31398   0.31759   0.31775   0.32271

 Mulliken charges:
               1
     1  C   -0.298554
     2  C   -0.299144
     3  C   -0.483985
     4  H    0.149473
     5  H    0.149388
     6  H    0.151508
     7  H    0.151466
     8  H    0.157876
     9  H    0.153408
    10  H    0.167682
    11  C   -0.298162
    12  C   -0.299590
    13  C   -0.475672
    14  H    0.149474
    15  H    0.149474
    16  H    0.151890
    17  H    0.151852
    18  H    0.155114
    19  H    0.155162
    20  H    0.160179
    21  C   -0.297978
    22  C   -0.302905
    23  C   -0.475641
    24  H    0.149396
    25  H    0.149318
    26  H    0.151395
    27  H    0.157450
    28  H    0.155105
    29  H    0.154890
    30  H    0.159837
    31  C   -0.303048
    32  C   -0.298905
    33  C   -0.475977
    34  H    0.149588
    35  H    0.154273
    36  H    0.151941
    37  H    0.151893
    38  H    0.154831
    39  H    0.155234
    40  H    0.160465
 Sum of Mulliken charges =  -0.00000

 Dipole moment (field-independent basis, Debye):
    X=             -0.0321    Y=             -0.0016    Z=              0.0061  Tot=              0.0327
 Quadrupole moment (field-independent basis, Debye-Ang):
   XX=            -85.7944   YY=            -85.7756   ZZ=            -83.3457
   XY=              0.4653   XZ=              0.5385   YZ=             -0.5703

 Normal termination of Gaussian 16 at Thu May  6 05:27:40 2021.
