 Gaussian 16, Revision A.03,
 Gaussian 16:  EM64L-G16RevA.03 25-Dec-2016

 -------------
 #p 6-31g* mp2
 -------------

 ------------------------------------------------------
 Input file generated by CHIRIPA (05-May-2021 14:55:25)
 ------------------------------------------------------
 Symbolic Z-matrix:
 Charge =  0 Multiplicity = 1

                         Standard orientation:
 ---------------------------------------------------------------------
 Center     Atomic      Atomic             Coordinates (Angstroms)
 Number     Number       Type             X           Y           Z
 ---------------------------------------------------------------------
      1          6           0        1.202921   -2.010118    1.176865
      2          6           0        2.205482   -2.505648    0.336721
      3          6           0        3.115098   -1.636290   -0.272675
      4          6           0        2.992499   -0.271088   -0.018741
      5          6           0        2.004539    0.253196    0.813335
      6          6           0        1.105820   -0.634702    1.412076
      7          1           0        0.500542   -2.692657    1.646119
      8          1           0        2.283282   -3.573337    0.152241
      9          1           0        3.900879   -1.992936   -0.927480
     10          1           0        1.952181    1.322548    0.978145
     11          1           0        0.328228   -0.247038    2.064082
     12          7           0        3.949701    0.659076   -0.658241
     13          8           0        3.820419    1.857576   -0.418409
     14          8           0        4.811113    0.172025   -1.387205
     15          6           0       -3.829597   -0.176877   -0.267255
     16          6           0       -5.332051   -0.351876   -0.490845
     17          6           0       -5.718845   -1.797902   -0.802600
     18          1           0       -3.290116   -0.517574   -1.161587
     19          1           0       -3.510333   -0.828799    0.557646
     20          1           0       -5.648641    0.301212   -1.314169
     21          1           0       -5.868027   -0.010543    0.404050
     22          1           0       -5.430899   -2.459739    0.020602
     23          1           0       -5.210265   -2.146213   -1.707380
     24          1           0       -6.797254   -1.900250   -0.958864
     25          6           0       -3.427340    1.263316    0.045415
     26          6           0       -1.924886    1.438315    0.269005
     27          6           0       -1.538092    2.884342    0.580760
     28          1           0       -3.746604    1.915238   -0.779486
     29          1           0       -3.966821    1.604014    0.939747
     30          1           0       -1.388909    1.096983   -0.625890
     31          1           0       -1.608296    0.785228    1.092329
     32          1           0       -2.046671    3.232651    1.485541
     33          1           0       -1.826038    3.546178   -0.242442
     34          1           0       -0.459683    2.986688    0.737024
 ---------------------------------------------------------------------

 SCF Done:  E(RHF) =  -669.535045240     A.U. after   15 cycles
 E2 =    -0.2092080263D+01 EUMP2 =    -0.67162712550358D+03

 The electronic state is 1-A.
 Alpha  occ. eigenvalues --  -20.60754 -20.60749 -15.85807 -11.31168 -11.27730
 Alpha  occ. eigenvalues --  -11.27726 -11.27465 -11.26754 -11.26724 -11.22214
 Alpha  occ. eigenvalues --  -11.22043 -11.21928 -11.21867 -11.21611 -11.21497
 Alpha  occ. eigenvalues --   -1.59829  -1.39383  -1.19338  -1.08957  -1.08732
 Alpha  occ. eigenvalues --   -1.04745  -1.04043  -0.96484  -0.95569  -0.87495
 Alpha  occ. eigenvalues --   -0.86141  -0.82408  -0.80115  -0.78780  -0.77444
 Alpha  occ. eigenvalues --   -0.72025  -0.71152  -0.70446  -0.65616  -0.64990
 Alpha  occ. eigenvalues --   -0.64744  -0.62155  -0.61408  -0.59843  -0.58098
 Alpha  occ. eigenvalues --   -0.55762  -0.55238  -0.53194  -0.53053  -0.52980
 Alpha  occ. eigenvalues --   -0.52779  -0.50410  -0.48791  -0.48780  -0.48405
 Alpha  occ. eigenvalues --   -0.47135  -0.46303  -0.46228  -0.44789  -0.44299
 Alpha  occ. eigenvalues --   -0.37311  -0.36307
 Alpha virt. eigenvalues --    0.05065   0.11262   0.16501   0.19776   0.22646
 Alpha virt. eigenvalues --    0.23678   0.25369   0.25917   0.26678   0.28413
 Alpha virt. eigenvalues --    0.28778   0.29400   0.31174   0.31471   0.32118

 Mulliken charges:
               1
     1  C   -0.172067
     2  C   -0.218486
     3  C   -0.171072
     4  C    0.158538
     5  C   -0.173580
     6  C   -0.215260
     7  H    0.225399
     8  H    0.223333
     9  H    0.275437
    10  H    0.276920
    11  H    0.225162
    12  N    0.487985
    13  O   -0.460522
    14  O   -0.460497
    15  C   -0.297536
    16  C   -0.300010
    17  C   -0.475816
    18  H    0.151515
    19  H    0.144086
    20  H    0.154027
    21  H    0.152340
    22  H    0.153319
    23  H    0.155848
    24  H    0.161941
    25  C   -0.298668
    26  C   -0.301305
    27  C   -0.477660
    28  H    0.152887
    29  H    0.149781
    30  H    0.157862
    31  H    0.140895
    32  H    0.155534
    33  H    0.161307
    34  H    0.158363
 Sum of Mulliken charges =  -0.00000

 Dipole moment (field-independent basis, Debye):
    X=             -3.4773    Y=             -3.2319    Z=              2.1589  Tot=              5.2151
 Quadrupole moment (field-independent basis, Debye-Ang):
   XX=           -114.4815   YY=            -90.9842   ZZ=            -93.6045
   XY=            -11.5728   XZ=              5.6738   YZ=              0.8786

 Normal termination of Gaussian 16 at Thu May  6 11:04:48 2021.
