 Gaussian 16, Revision A.03,
 Gaussian 16:  EM64L-G16RevA.03 25-Dec-2016

 -------------
 #p 6-31g* mp2
 -------------

 ------------------------------------------------------
 Input file generated by CHIRIPA (05-May-2021 14:51:08)
 ------------------------------------------------------
 Symbolic Z-matrix:
 Charge =  0 Multiplicity = 1

                         Standard orientation:
 ---------------------------------------------------------------------
 Center     Atomic      Atomic             Coordinates (Angstroms)
 Number     Number       Type             X           Y           Z
 ---------------------------------------------------------------------
      1          6           0        3.846843   -0.327779   -0.220563
      2          6           0        3.310661   -1.625393   -0.826113
      3          6           0        4.270074   -2.802267   -0.646428
      4          1           0        4.814461   -0.087639   -0.682076
      5          1           0        4.041085   -0.483598    0.849664
      6          1           0        3.116183   -1.466771   -1.894585
      7          1           0        2.344116   -1.862371   -0.363241
      8          1           0        4.455962   -2.988981    0.416203
      9          1           0        5.232415   -2.591133   -1.123841
     10          1           0        3.866999   -3.719656   -1.086643
     11          6           0        2.898929    0.857857   -0.392186
     12          6           0        3.435112    2.155471    0.213364
     13          6           0        2.475699    3.332345    0.033679
     14          1           0        2.704688    1.013675   -1.462413
     15          1           0        1.931312    0.617716    0.069327
     16          1           0        4.401656    2.392448   -0.249508
     17          1           0        3.629590    1.996848    1.281836
     18          1           0        1.513358    3.121210    0.511092
     19          1           0        2.289811    3.519058   -1.028952
     20          1           0        2.878774    4.249733    0.473894
     21          6           0       -2.675293   -0.055642    0.536479
     22          6           0       -1.987180   -1.101230    1.414677
     23          6           0       -0.592439   -0.667849    1.867081
     24          1           0       -2.048644    0.144715   -0.343359
     25          1           0       -2.746212    0.889984    1.091596
     26          1           0       -1.918822   -2.044996    0.858574
     27          1           0       -2.615631   -1.299263    2.292430
     28          1           0       -0.645947    0.260842    2.444379
     29          1           0        0.054821   -0.489127    1.002376
     30          1           0       -0.118753   -1.430000    2.493663
     31          6           0       -4.070480   -0.474435    0.076271
     32          6           0       -4.758593    0.571153   -0.801929
     33          6           0       -6.153334    0.137770   -1.254332
     34          1           0       -3.999561   -1.420062   -0.478847
     35          1           0       -4.697129   -0.674793    0.956107
     36          1           0       -4.130142    0.769186   -1.679681
     37          1           0       -4.826950    1.514918   -0.245826
     38          1           0       -6.800594   -0.040950   -0.389627
     39          1           0       -6.099827   -0.790919   -1.831629
     40          1           0       -6.627020    0.899923   -1.880915
 ---------------------------------------------------------------------

 SCF Done:  E(RHF) =  -470.733321031     A.U. after   11 cycles
 E2 =    -0.1582860572D+01 EUMP2 =    -0.47231618160284D+03

 The electronic state is 1-A.
 Alpha  occ. eigenvalues --  -11.21651 -11.21610 -11.21589 -11.21563 -11.21428
 Alpha  occ. eigenvalues --  -11.21368 -11.21366 -11.21303 -11.21147 -11.21077
 Alpha  occ. eigenvalues --  -11.21060 -11.21034  -1.08460  -1.08400  -1.03565
 Alpha  occ. eigenvalues --   -1.03501  -0.96024  -0.95946  -0.87042  -0.86964
 Alpha  occ. eigenvalues --   -0.79637  -0.79562  -0.78294  -0.78193  -0.65141
 Alpha  occ. eigenvalues --   -0.64993  -0.60963  -0.60898  -0.59385  -0.59317
 Alpha  occ. eigenvalues --   -0.57659  -0.57540  -0.55391  -0.55168  -0.52714
 Alpha  occ. eigenvalues --   -0.52651  -0.52489  -0.52341  -0.50022  -0.49854
 Alpha  occ. eigenvalues --   -0.48001  -0.47866  -0.46730  -0.46596  -0.45928
 Alpha  occ. eigenvalues --   -0.45752  -0.45719  -0.45405  -0.43817  -0.43755
 Alpha virt. eigenvalues --    0.21005   0.23074   0.24146   0.24279   0.25497
 Alpha virt. eigenvalues --    0.26766   0.27155   0.27618   0.27939   0.29377
 Alpha virt. eigenvalues --    0.31189   0.31598   0.31747   0.31941   0.32145

 Mulliken charges:
               1
     1  C   -0.297480
     2  C   -0.301829
     3  C   -0.475620
     4  H    0.149530
     5  H    0.149812
     6  H    0.151534
     7  H    0.153472
     8  H    0.155340
     9  H    0.155207
    10  H    0.160050
    11  C   -0.307225
    12  C   -0.298904
    13  C   -0.475992
    14  H    0.148871
    15  H    0.158254
    16  H    0.151713
    17  H    0.152133
    18  H    0.155709
    19  H    0.154909
    20  H    0.160051
    21  C   -0.298603
    22  C   -0.299090
    23  C   -0.484672
    24  H    0.150100
    25  H    0.149496
    26  H    0.152154
    27  H    0.152203
    28  H    0.155192
    29  H    0.162806
    30  H    0.160526
    31  C   -0.298347
    32  C   -0.299721
    33  C   -0.475735
    34  H    0.149631
    35  H    0.149676
    36  H    0.152149
    37  H    0.151993
    38  H    0.155166
    39  H    0.155205
    40  H    0.160334
 Sum of Mulliken charges =  -0.00000

 Dipole moment (field-independent basis, Debye):
    X=             -0.0232    Y=             -0.0027    Z=              0.0106  Tot=              0.0257
 Quadrupole moment (field-independent basis, Debye-Ang):
   XX=            -85.8370   YY=            -85.5121   ZZ=            -83.4630
   XY=              0.2928   XZ=             -1.1502   YZ=              0.1437

 Normal termination of Gaussian 16 at Wed May  5 21:19:39 2021.
