 Gaussian 16, Revision A.03,
 Gaussian 16:  EM64L-G16RevA.03 25-Dec-2016

 -------------
 #p 6-31g* mp2
 -------------

 ------------------------------------------------------
 Input file generated by CHIRIPA (05-May-2021 14:51:12)
 ------------------------------------------------------
 Symbolic Z-matrix:
 Charge =  0 Multiplicity = 1

                         Standard orientation:
 ---------------------------------------------------------------------
 Center     Atomic      Atomic             Coordinates (Angstroms)
 Number     Number       Type             X           Y           Z
 ---------------------------------------------------------------------
      1          6           0        2.773278    1.171920   -0.263672
      2          6           0        1.894646    2.025341    0.651568
      3          6           0        2.322020    3.493091    0.680844
      4          1           0        3.817712    1.244611    0.069221
      5          1           0        2.740150    1.584792   -1.281431
      6          1           0        1.928325    1.610166    1.667005
      7          1           0        0.852155    1.950457    0.316574
      8          1           0        2.271044    3.929245   -0.322038
      9          1           0        3.353328    3.587021    1.036065
     10          1           0        1.680517    4.084924    1.341197
     11          6           0        2.358509   -0.297811   -0.303492
     12          6           0        3.237140   -1.151233   -1.218732
     13          6           0        2.809766   -2.618982   -1.248008
     14          1           0        2.391636   -0.710684    0.714267
     15          1           0        1.314074   -0.370503   -0.636384
     16          1           0        4.279631   -1.076348   -0.883738
     17          1           0        3.203462   -0.736058   -2.234168
     18          1           0        1.778458   -2.712913   -1.603229
     19          1           0        2.860742   -3.055137   -0.245126
     20          1           0        3.451269   -3.210816   -1.908361
     21          6           0       -1.831743   -0.551614    0.460589
     22          6           0       -1.620601   -1.678801    1.471949
     23          6           0       -0.146736   -1.895921    1.816011
     24          1           0       -1.269610   -0.779401   -0.455415
     25          1           0       -1.407720    0.378161    0.864469
     26          1           0       -2.046124   -2.605872    1.066873
     27          1           0       -2.183456   -1.448396    2.385581
     28          1           0        0.286995   -0.986344    2.243971
     29          1           0        0.425107   -2.150396    0.917770
     30          1           0       -0.018756   -2.706191    2.540541
     31          6           0       -3.300043   -0.322495    0.106574
     32          6           0       -3.511186    0.804693   -0.904786
     33          6           0       -4.985050    1.021812   -1.248847
     34          1           0       -3.724065   -1.252270   -0.297307
     35          1           0       -3.862176   -0.094707    1.022579
     36          1           0       -2.948331    0.574288   -1.818418
     37          1           0       -3.085662    1.731763   -0.499709
     38          1           0       -5.556893    1.276288   -0.350605
     39          1           0       -5.418781    0.112236   -1.676806
     40          1           0       -5.113030    1.832082   -1.973377
 ---------------------------------------------------------------------

 SCF Done:  E(RHF) =  -470.731231857     A.U. after   11 cycles
 E2 =    -0.1585535283D+01 EUMP2 =    -0.47231676714069D+03

 The electronic state is 1-A.
 Alpha  occ. eigenvalues --  -11.21628 -11.21580 -11.21564 -11.21545 -11.21406
 Alpha  occ. eigenvalues --  -11.21346 -11.21323 -11.21197 -11.21104 -11.21088
 Alpha  occ. eigenvalues --  -11.21062 -11.20866  -1.08468  -1.08346  -1.03547
 Alpha  occ. eigenvalues --   -1.03475  -0.95992  -0.95922  -0.87029  -0.86933
 Alpha  occ. eigenvalues --   -0.79726  -0.79511  -0.78508  -0.77887  -0.65092
 Alpha  occ. eigenvalues --   -0.64992  -0.60939  -0.60897  -0.59378  -0.59297
 Alpha  occ. eigenvalues --   -0.57694  -0.57463  -0.55253  -0.55231  -0.52699
 Alpha  occ. eigenvalues --   -0.52638  -0.52551  -0.52249  -0.49929  -0.49887
 Alpha  occ. eigenvalues --   -0.48192  -0.47797  -0.46655  -0.46597  -0.46288
 Alpha  occ. eigenvalues --   -0.45693  -0.45524  -0.44914  -0.43764  -0.43740
 Alpha virt. eigenvalues --    0.21125   0.22738   0.23270   0.24117   0.24714
 Alpha virt. eigenvalues --    0.25940   0.26832   0.27121   0.28640   0.30337
 Alpha virt. eigenvalues --    0.30654   0.30904   0.31660   0.31983   0.32267

 Mulliken charges:
               1
     1  C   -0.297393
     2  C   -0.303684
     3  C   -0.475525
     4  H    0.149088
     5  H    0.148803
     6  H    0.151406
     7  H    0.155463
     8  H    0.155311
     9  H    0.155206
    10  H    0.159774
    11  C   -0.306715
    12  C   -0.298598
    13  C   -0.478132
    14  H    0.155480
    15  H    0.155341
    16  H    0.151676
    17  H    0.151242
    18  H    0.153866
    19  H    0.156811
    20  H    0.160751
    21  C   -0.303719
    22  C   -0.299610
    23  C   -0.481943
    24  H    0.150024
    25  H    0.153409
    26  H    0.151372
    27  H    0.151299
    28  H    0.155747
    29  H    0.165064
    30  H    0.158058
    31  C   -0.297805
    32  C   -0.299684
    33  C   -0.475653
    34  H    0.149544
    35  H    0.149866
    36  H    0.151355
    37  H    0.151649
    38  H    0.155334
    39  H    0.155275
    40  H    0.160243
 Sum of Mulliken charges =  -0.00000

 Dipole moment (field-independent basis, Debye):
    X=              0.0149    Y=             -0.0101    Z=              0.0011  Tot=              0.0180
 Quadrupole moment (field-independent basis, Debye-Ang):
   XX=            -85.5210   YY=            -85.6593   ZZ=            -83.8290
   XY=             -0.2035   XZ=              0.1217   YZ=              0.3592

 Normal termination of Gaussian 16 at Thu May  6 03:53:09 2021.
