 Gaussian 16, Revision A.03,
 Gaussian 16:  EM64L-G16RevA.03 25-Dec-2016

 -------------
 #p 6-31g* mp2
 -------------

 ------------------------------------------------------
 Input file generated by CHIRIPA (05-May-2021 14:53:15)
 ------------------------------------------------------
 Symbolic Z-matrix:
 Charge =  0 Multiplicity = 1

                         Standard orientation:
 ---------------------------------------------------------------------
 Center     Atomic      Atomic             Coordinates (Angstroms)
 Number     Number       Type             X           Y           Z
 ---------------------------------------------------------------------
      1          6           0        3.640400    0.205768   -0.371511
      2          6           0        4.684530   -0.697975    0.285017
      3          6           0        5.390631   -1.610908   -0.717862
      4          1           0        2.897794   -0.417734   -0.887967
      5          1           0        4.127840    0.816112   -1.144347
      6          1           0        4.195525   -1.305441    1.057335
      7          1           0        5.424630   -0.072255    0.800132
      8          1           0        5.904035   -1.019026   -1.482514
      9          1           0        4.667947   -2.259219   -1.223849
     10          1           0        6.132810   -2.248288   -0.227171
     11          6           0        2.925936    1.124295    0.618225
     12          6           0        1.881807    2.028037   -0.038303
     13          6           0        1.175705    2.940970    0.964576
     14          1           0        2.438496    0.513950    1.391061
     15          1           0        3.668542    1.747796    1.134681
     16          1           0        1.141707    1.402318   -0.553418
     17          1           0        2.370811    2.635504   -0.810621
     18          1           0        1.898389    3.589281    1.470563
     19          1           0        0.662301    2.349088    1.729228
     20          1           0        0.433527    3.578350    0.473885
     21          6           0       -1.029674   -2.479492    0.312799
     22          6           0       -2.353788   -2.521898    0.761624
     23          6           0       -3.213375   -1.441735    0.540481
     24          6           0       -2.713402   -0.330076   -0.135930
     25          6           0       -1.399252   -0.257781   -0.595355
     26          6           0       -0.557465   -1.349562   -0.363067
     27          1           0       -0.368839   -3.323101    0.488918
     28          1           0       -2.723241   -3.398112    1.286792
     29          1           0       -4.242958   -1.448052    0.877138
     30          1           0       -1.059712    0.629433   -1.115916
     31          1           0        0.470389   -1.313849   -0.712764
     32          7           0       -3.613987    0.819593   -0.375944
     33          8           0       -3.149239    1.787349   -0.974355
     34          8           0       -4.767561    0.731180    0.038889
 ---------------------------------------------------------------------

 SCF Done:  E(RHF) =  -669.535002668     A.U. after   15 cycles
 E2 =    -0.2092889482D+01 EUMP2 =    -0.67162789215012D+03

 The electronic state is 1-A.
 Alpha  occ. eigenvalues --  -20.60771 -20.60765 -15.85824 -11.31195 -11.27773
 Alpha  occ. eigenvalues --  -11.27752 -11.27519 -11.26790 -11.26773 -11.22298
 Alpha  occ. eigenvalues --  -11.22186 -11.22151 -11.21968 -11.21719 -11.21250
 Alpha  occ. eigenvalues --   -1.59845  -1.39398  -1.19375  -1.09088  -1.08767
 Alpha  occ. eigenvalues --   -1.04788  -1.04082  -0.96512  -0.95601  -0.87518
 Alpha  occ. eigenvalues --   -0.86178  -0.82442  -0.80167  -0.78923  -0.77474
 Alpha  occ. eigenvalues --   -0.72043  -0.71167  -0.70496  -0.65799  -0.65025
 Alpha  occ. eigenvalues --   -0.64776  -0.62205  -0.61405  -0.59873  -0.58121
 Alpha  occ. eigenvalues --   -0.55821  -0.55283  -0.53160  -0.53101  -0.52953
 Alpha  occ. eigenvalues --   -0.52834  -0.50455  -0.48804  -0.48801  -0.48455
 Alpha  occ. eigenvalues --   -0.47219  -0.46450  -0.46351  -0.44801  -0.44351
 Alpha  occ. eigenvalues --   -0.37357  -0.36366
 Alpha virt. eigenvalues --    0.05029   0.11237   0.16420   0.18898   0.22788
 Alpha virt. eigenvalues --    0.23632   0.24781   0.26350   0.26601   0.28244
 Alpha virt. eigenvalues --    0.29188   0.31064   0.31349   0.31519   0.32040

 Mulliken charges:
               1
     1  C   -0.300890
     2  C   -0.299928
     3  C   -0.475521
     4  H    0.140250
     5  H    0.154105
     6  H    0.149987
     7  H    0.155724
     8  H    0.157830
     9  H    0.151613
    10  H    0.162339
    11  C   -0.299583
    12  C   -0.301490
    13  C   -0.477983
    14  H    0.149612
    15  H    0.153802
    16  H    0.141607
    17  H    0.155449
    18  H    0.156335
    19  H    0.156548
    20  H    0.169690
    21  C   -0.172519
    22  C   -0.218530
    23  C   -0.170966
    24  C    0.159068
    25  C   -0.175877
    26  C   -0.223718
    27  H    0.225950
    28  H    0.223532
    29  H    0.275674
    30  H    0.279436
    31  H    0.230924
    32  N    0.488374
    33  O   -0.460404
    34  O   -0.460441
 Sum of Mulliken charges =  -0.00000

 Dipole moment (field-independent basis, Debye):
    X=              3.2685    Y=             -3.9101    Z=              0.9211  Tot=              5.1788
 Quadrupole moment (field-independent basis, Debye-Ang):
   XX=           -108.7177   YY=            -90.9326   ZZ=            -94.9522
   XY=             13.2601   XZ=             -4.4056   YZ=             -1.5552

 Normal termination of Gaussian 16 at Thu May  6 01:05:37 2021.
