 Gaussian 16, Revision A.03,
 Gaussian 16:  EM64L-G16RevA.03 25-Dec-2016

 -------------
 #p 6-31g* mp2
 -------------

 ------------------------------------------------------
 Input file generated by CHIRIPA (05-May-2021 14:57:23)
 ------------------------------------------------------
 Symbolic Z-matrix:
 Charge =  0 Multiplicity = 1

                         Standard orientation:
 ---------------------------------------------------------------------
 Center     Atomic      Atomic             Coordinates (Angstroms)
 Number     Number       Type             X           Y           Z
 ---------------------------------------------------------------------
      1          6           0       -5.194884    1.796478    0.116663
      2          6           0       -3.922313    1.956302    0.674821
      3          6           0       -2.993045    0.912575    0.634305
      4          6           0       -3.371536   -0.282777    0.025069
      5          6           0       -4.631718   -0.472693   -0.539875
      6          6           0       -5.544908    0.584627   -0.487838
      7          1           0       -5.910517    2.612550    0.152612
      8          1           0       -3.647728    2.896328    1.144928
      9          1           0       -2.001058    1.009236    1.058614
     10          1           0       -4.876441   -1.421495   -1.001722
     11          1           0       -6.532490    0.457668   -0.922128
     12          7           0       -2.396272   -1.394919   -0.023922
     13          8           0       -2.754204   -2.438116   -0.566382
     14          8           0       -1.292395   -1.202362    0.481067
     15          6           0        4.127931    2.532581   -0.335046
     16          6           0        2.785905    2.141455   -0.284981
     17          6           0        2.444198    0.796125   -0.118035
     18          6           0        3.474685   -0.135740   -0.003957
     19          6           0        4.821053    0.222677   -0.049979
     20          6           0        5.139439    1.573635   -0.217592
     21          1           0        4.384320    3.579851   -0.464993
     22          1           0        1.998256    2.884007   -0.375924
     23          1           0        1.413429    0.465736   -0.075871
     24          1           0        5.584102   -0.540492    0.043548
     25          1           0        6.182533    1.874496   -0.256116
     26          7           0        3.125279   -1.562959    0.173134
     27          8           0        4.051814   -2.364552    0.271215
     28          8           0        1.931496   -1.852997    0.210504
 ---------------------------------------------------------------------

 SCF Done:  E(RHF) =  -868.335376591     A.U. after   16 cycles
 E2 =    -0.2600892250D+01 EUMP2 =    -0.87093626884156D+03

 The electronic state is 1-A.
 Alpha  occ. eigenvalues --  -20.60463 -20.60445 -20.59743 -20.59626 -15.85505
 Alpha  occ. eigenvalues --  -15.84737 -11.31157 -11.30495 -11.27805 -11.27719
 Alpha  occ. eigenvalues --  -11.27528 -11.27149 -11.27063 -11.26988 -11.26855
 Alpha  occ. eigenvalues --  -11.26794 -11.26258 -11.26240  -1.59514  -1.58778
 Alpha  occ. eigenvalues --   -1.39066  -1.38306  -1.19350  -1.18724  -1.08685
 Alpha  occ. eigenvalues --   -1.08058  -1.04798  -1.04186  -0.95473  -0.94814
 Alpha  occ. eigenvalues --   -0.86182  -0.85563  -0.82308  -0.81633  -0.77328
 Alpha  occ. eigenvalues --   -0.76597  -0.71725  -0.70920  -0.70822  -0.70453
 Alpha  occ. eigenvalues --   -0.70128  -0.69825  -0.64995  -0.64801  -0.64360
 Alpha  occ. eigenvalues --   -0.64203  -0.62151  -0.61511  -0.55275  -0.54694
 Alpha  occ. eigenvalues --   -0.53107  -0.52895  -0.52502  -0.52284  -0.48479
 Alpha  occ. eigenvalues --   -0.48451  -0.47763  -0.47649  -0.44399  -0.43630
 Alpha  occ. eigenvalues --   -0.37336  -0.36745  -0.36416  -0.35812
 Alpha virt. eigenvalues --    0.05200   0.05919   0.11231   0.11839   0.16625
 Alpha virt. eigenvalues --    0.17326   0.21004   0.21994   0.26401   0.27566
 Alpha virt. eigenvalues --    0.28168   0.29150   0.30621   0.31533   0.32146

 Mulliken charges:
               1
     1  C   -0.171585
     2  C   -0.218251
     3  C   -0.172851
     4  C    0.159642
     5  C   -0.170884
     6  C   -0.218149
     7  H    0.224972
     8  H    0.221065
     9  H    0.270585
    10  H    0.277003
    11  H    0.223703
    12  N    0.489089
    13  O   -0.456997
    14  O   -0.454807
    15  C   -0.171621
    16  C   -0.219595
    17  C   -0.175944
    18  C    0.157221
    19  C   -0.171184
    20  C   -0.219088
    21  H    0.221969
    22  H    0.217133
    23  H    0.287310
    24  H    0.274748
    25  H    0.220965
    26  N    0.485969
    27  O   -0.467404
    28  O   -0.443014
 Sum of Mulliken charges =  -0.00000

 Dipole moment (field-independent basis, Debye):
    X=             -2.4626    Y=              8.6129    Z=             -0.4452  Tot=              8.9691
 Quadrupole moment (field-independent basis, Debye-Ang):
   XX=            -67.7930   YY=           -107.9010   ZZ=           -105.2857
   XY=              5.9031   XZ=             -0.6875   YZ=              1.6663

 Normal termination of Gaussian 16 at Wed May  5 17:51:20 2021.
