 Gaussian 16, Revision A.03,
 Gaussian 16:  EM64L-G16RevA.03 25-Dec-2016

 -------------
 #p 6-31g* mp2
 -------------

 ------------------------------------------------------
 Input file generated by CHIRIPA (05-May-2021 14:53:11)
 ------------------------------------------------------
 Symbolic Z-matrix:
 Charge =  0 Multiplicity = 1

                         Standard orientation:
 ---------------------------------------------------------------------
 Center     Atomic      Atomic             Coordinates (Angstroms)
 Number     Number       Type             X           Y           Z
 ---------------------------------------------------------------------
      1          6           0        3.866918   -0.270070    0.314497
      2          6           0        4.626901   -1.197189   -0.634640
      3          6           0        4.959121   -2.548471   -0.001031
      4          1           0        4.466036   -0.113745    1.222002
      5          1           0        2.938990   -0.764390    0.633857
      6          1           0        5.552447   -0.700704   -0.953204
      7          1           0        4.025989   -1.351172   -1.540074
      8          1           0        4.043860   -3.067748    0.301046
      9          1           0        5.578991   -2.413584    0.891251
     10          1           0        5.502342   -3.195452   -0.696866
     11          6           0        3.527621    1.084691   -0.304559
     12          6           0        2.767638    2.011810    0.644578
     13          6           0        2.435419    3.363092    0.010968
     14          1           0        4.455549    1.579011   -0.623920
     15          1           0        2.928504    0.928365   -1.212064
     16          1           0        3.368550    2.165793    1.550011
     17          1           0        1.842092    1.515325    0.963141
     18          1           0        1.815548    3.228204   -0.881314
     19          1           0        3.350680    3.882368   -0.291109
     20          1           0        1.892197    4.010072    0.706804
     21          6           0       -5.285551    0.457297   -0.140338
     22          6           0       -4.998320   -0.896099    0.065427
     23          6           0       -3.673890   -1.337075    0.142699
     24          6           0       -2.656753   -0.393184    0.009310
     25          6           0       -2.910788    0.961963   -0.196442
     26          6           0       -4.242706    1.380380   -0.270386
     27          1           0       -6.317308    0.791097   -0.199073
     28          1           0       -5.806184   -1.615216    0.166777
     29          1           0       -3.423167   -2.378896    0.301338
     30          1           0       -2.084150    1.655230   -0.293752
     31          1           0       -4.462800    2.432068   -0.430254
     32          7           0       -1.250674   -0.848086    0.089353
     33          8           0       -0.372574    0.003394   -0.031304
     34          8           0       -1.053314   -2.047505    0.271233
 ---------------------------------------------------------------------

 SCF Done:  E(RHF) =  -669.536594590     A.U. after   15 cycles
 E2 =    -0.2091260030D+01 EUMP2 =    -0.67162785461990D+03

 The electronic state is 1-A.
 Alpha  occ. eigenvalues --  -20.61074 -20.61069 -15.86099 -11.31366 -11.27922
 Alpha  occ. eigenvalues --  -11.27918 -11.27651 -11.26918 -11.26908 -11.20406
 Alpha  occ. eigenvalues --  -11.20226 -11.20145 -11.20032 -11.19990 -11.19915
 Alpha  occ. eigenvalues --   -1.60129  -1.39687  -1.19529  -1.08944  -1.07098
 Alpha  occ. eigenvalues --   -1.04917  -1.02335  -0.95795  -0.94815  -0.86320
 Alpha  occ. eigenvalues --   -0.85840  -0.82632  -0.78396  -0.77689  -0.76907
 Alpha  occ. eigenvalues --   -0.72331  -0.71437  -0.70638  -0.65190  -0.64920
 Alpha  occ. eigenvalues --   -0.63680  -0.62264  -0.59709  -0.58199  -0.56435
 Alpha  occ. eigenvalues --   -0.55424  -0.54092  -0.53252  -0.53007  -0.51567
 Alpha  occ. eigenvalues --   -0.51258  -0.49093  -0.49079  -0.48730  -0.46733
 Alpha  occ. eigenvalues --   -0.45438  -0.45074  -0.44485  -0.44250  -0.42560
 Alpha  occ. eigenvalues --   -0.37505  -0.36516
 Alpha virt. eigenvalues --    0.04821   0.11140   0.16316   0.21204   0.24099
 Alpha virt. eigenvalues --    0.25267   0.27191   0.27711   0.28402   0.28955
 Alpha virt. eigenvalues --    0.29109   0.30858   0.32060   0.32666   0.32926

 Mulliken charges:
               1
     1  C   -0.302896
     2  C   -0.298448
     3  C   -0.476091
     4  H    0.142994
     5  H    0.167688
     6  H    0.146444
     7  H    0.153043
     8  H    0.160069
     9  H    0.151700
    10  H    0.155717
    11  C   -0.294576
    12  C   -0.306745
    13  C   -0.474828
    14  H    0.141520
    15  H    0.153708
    16  H    0.144773
    17  H    0.174121
    18  H    0.153417
    19  H    0.151074
    20  H    0.153223
    21  C   -0.170424
    22  C   -0.218607
    23  C   -0.170526
    24  C    0.157484
    25  C   -0.170733
    26  C   -0.218577
    27  H    0.226298
    28  H    0.224059
    29  H    0.275944
    30  H    0.276128
    31  H    0.224266
    32  N    0.493135
    33  O   -0.465621
    34  O   -0.458734
 Sum of Mulliken charges =  -0.00000

 Dipole moment (field-independent basis, Debye):
    X=             -5.3726    Y=              1.4234    Z=             -0.2665  Tot=              5.5644
 Quadrupole moment (field-independent basis, Debye-Ang):
   XX=            -69.2799   YY=            -93.3680   ZZ=            -95.6837
   XY=             -0.4409   XZ=              0.7080   YZ=             -0.2929

 Normal termination of Gaussian 16 at Wed May  5 21:41:53 2021.
