 Gaussian 16, Revision A.03,
 Gaussian 16:  EM64L-G16RevA.03 25-Dec-2016

 -------------
 #p 6-31g* mp2
 -------------

 ------------------------------------------------------
 Input file generated by CHIRIPA (05-May-2021 14:53:15)
 ------------------------------------------------------
 Symbolic Z-matrix:
 Charge =  0 Multiplicity = 1

                         Standard orientation:
 ---------------------------------------------------------------------
 Center     Atomic      Atomic             Coordinates (Angstroms)
 Number     Number       Type             X           Y           Z
 ---------------------------------------------------------------------
      1          6           0       -3.864424    0.474562    0.488648
      2          6           0       -2.622535   -0.269642    0.980437
      3          6           0       -1.523134    0.673658    1.469615
      4          1           0       -3.577528    1.157537   -0.322636
      5          1           0       -4.253623    1.101964    1.302457
      6          1           0       -2.236600   -0.896512    0.166371
      7          1           0       -2.912454   -0.951065    1.790515
      8          1           0       -1.885268    1.290219    2.298657
      9          1           0       -1.205574    1.345082    0.665285
     10          1           0       -0.644695    0.120650    1.816584
     11          6           0       -4.972358   -0.454894   -0.003615
     12          6           0       -6.214247    0.289311   -0.495405
     13          6           0       -7.313649   -0.653990   -0.984583
     14          1           0       -4.583159   -1.082295   -0.817425
     15          1           0       -5.259255   -1.137868    0.807668
     16          1           0       -5.924328    0.970733   -1.305483
     17          1           0       -6.600182    0.916181    0.318661
     18          1           0       -7.631208   -1.325414   -0.180253
     19          1           0       -6.951514   -1.270551   -1.813625
     20          1           0       -8.192087   -0.100982   -1.331552
     21          6           0        2.923516    2.452905   -0.369107
     22          6           0        1.888303    1.512272   -0.376914
     23          6           0        2.169343    0.146339   -0.277948
     24          6           0        3.502947   -0.245563   -0.172099
     25          6           0        4.556363    0.667394   -0.161514
     26          6           0        4.251901    2.028214   -0.261621
     27          1           0        2.696099    3.512009   -0.446430
     28          1           0        0.855727    1.839204   -0.460273
     29          1           0        1.387334   -0.603238   -0.281515
     30          1           0        5.575841    0.311058   -0.077207
     31          1           0        5.057896    2.756483   -0.255299
     32          7           0        3.812870   -1.688908   -0.066724
     33          8           0        4.996088   -2.008481    0.025509
     34          8           0        2.866703   -2.473298   -0.078358
 ---------------------------------------------------------------------

 SCF Done:  E(RHF) =  -669.535312980     A.U. after   15 cycles
 E2 =    -0.2091316273D+01 EUMP2 =    -0.67162662925296D+03

 The electronic state is 1-A.
 Alpha  occ. eigenvalues --  -20.60734 -20.60729 -15.85786 -11.31138 -11.27704
 Alpha  occ. eigenvalues --  -11.27686 -11.27436 -11.26724 -11.26676 -11.22140
 Alpha  occ. eigenvalues --  -11.21876 -11.21875 -11.21848 -11.21686 -11.21269
 Alpha  occ. eigenvalues --   -1.59810  -1.39363  -1.19306  -1.08846  -1.08705
 Alpha  occ. eigenvalues --   -1.04708  -1.03973  -0.96443  -0.95542  -0.87464
 Alpha  occ. eigenvalues --   -0.86105  -0.82375  -0.80037  -0.78632  -0.77422
 Alpha  occ. eigenvalues --   -0.72005  -0.71133  -0.70417  -0.65493  -0.64956
 Alpha  occ. eigenvalues --   -0.64725  -0.62135  -0.61318  -0.59800  -0.58032
 Alpha  occ. eigenvalues --   -0.55768  -0.55192  -0.53202  -0.53021  -0.52955
 Alpha  occ. eigenvalues --   -0.52651  -0.50367  -0.48764  -0.48760  -0.48342
 Alpha  occ. eigenvalues --   -0.47060  -0.46181  -0.46089  -0.44772  -0.44210
 Alpha  occ. eigenvalues --   -0.37289  -0.36293
 Alpha virt. eigenvalues --    0.05092   0.11322   0.16556   0.19854   0.22723
 Alpha virt. eigenvalues --    0.23806   0.25497   0.26387   0.26833   0.27980
 Alpha virt. eigenvalues --    0.29248   0.29673   0.31302   0.31622   0.32224

 Mulliken charges:
               1
     1  C   -0.298307
     2  C   -0.300529
     3  C   -0.481267
     4  H    0.146780
     5  H    0.150483
     6  H    0.152593
     7  H    0.157343
     8  H    0.159837
     9  H    0.144136
    10  H    0.165304
    11  C   -0.298862
    12  C   -0.299879
    13  C   -0.476001
    14  H    0.150939
    15  H    0.151608
    16  H    0.151247
    17  H    0.152086
    18  H    0.156158
    19  H    0.156040
    20  H    0.160789
    21  C   -0.171901
    22  C   -0.219591
    23  C   -0.173969
    24  C    0.158566
    25  C   -0.171194
    26  C   -0.218454
    27  H    0.225623
    28  H    0.228475
    29  H    0.276580
    30  H    0.275350
    31  H    0.223171
    32  N    0.488144
    33  O   -0.460593
    34  O   -0.460707
 Sum of Mulliken charges =  -0.00000

 Dipole moment (field-independent basis, Debye):
    X=             -1.2450    Y=              5.0385    Z=             -0.3048  Tot=              5.1990
 Quadrupole moment (field-independent basis, Debye-Ang):
   XX=            -97.7785   YY=            -98.0027   ZZ=            -94.6099
   XY=             19.1999   XZ=             -1.7156   YZ=             -1.0044

 Normal termination of Gaussian 16 at Wed May  5 23:29:30 2021.
