 Gaussian 16, Revision A.03,
 Gaussian 16:  EM64L-G16RevA.03 25-Dec-2016

 -------------
 #p 6-31g* mp2
 -------------

 ------------------------------------------------------
 Input file generated by CHIRIPA (05-May-2021 14:57:25)
 ------------------------------------------------------
 Symbolic Z-matrix:
 Charge =  0 Multiplicity = 1

                         Standard orientation:
 ---------------------------------------------------------------------
 Center     Atomic      Atomic             Coordinates (Angstroms)
 Number     Number       Type             X           Y           Z
 ---------------------------------------------------------------------
      1          6           0       -1.875640   -1.621037    1.751042
      2          6           0       -1.604066   -0.249156    1.777711
      3          6           0       -2.214175    0.613339    0.862060
      4          6           0       -3.094575    0.067534   -0.070829
      5          6           0       -3.385552   -1.294791   -0.122741
      6          6           0       -2.763950   -2.138564    0.802574
      7          1           0       -1.397229   -2.283772    2.466095
      8          1           0       -0.914623    0.155553    2.513186
      9          1           0       -2.021933    1.679387    0.860346
     10          1           0       -4.077350   -1.668812   -0.867685
     11          1           0       -2.976745   -3.203567    0.779518
     12          7           0       -3.746554    0.970708   -1.045303
     13          8           0       -4.518366    0.465020   -1.857228
     14          8           0       -3.473417    2.167203   -0.978719
     15          6           0        2.709919    2.331387    1.017600
     16          6           0        2.032561    1.215596    1.520308
     17          6           0        2.178681   -0.036004    0.914753
     18          6           0        3.013920   -0.136208   -0.196832
     19          6           0        3.702158    0.956809   -0.721172
     20          6           0        3.541089    2.198668   -0.099567
     21          1           0        2.590602    3.299876    1.494244
     22          1           0        1.386403    1.315705    2.387778
     23          1           0        1.666090   -0.916290    1.283216
     24          1           0        4.339338    0.825802   -1.587346
     25          1           0        4.068372    3.063479   -0.492147
     26          7           0        3.176523   -1.456063   -0.846403
     27          8           0        3.918232   -1.517990   -1.824498
     28          8           0        2.559185   -2.403648   -0.365141
 ---------------------------------------------------------------------

 SCF Done:  E(RHF) =  -868.336872346     A.U. after   16 cycles
 E2 =    -0.2600779286D+01 EUMP2 =    -0.87093765163167D+03

 The electronic state is 1-A.
 Alpha  occ. eigenvalues --  -20.61143 -20.61122 -20.60967 -20.60949 -15.86195
 Alpha  occ. eigenvalues --  -15.86019 -11.31596 -11.31437 -11.28263 -11.28153
 Alpha  occ. eigenvalues --  -11.28103 -11.27974 -11.27956 -11.27803 -11.27329
 Alpha  occ. eigenvalues --  -11.27201 -11.27145 -11.26965  -1.60207  -1.60034
 Alpha  occ. eigenvalues --   -1.39762  -1.39587  -1.19795  -1.19629  -1.09177
 Alpha  occ. eigenvalues --   -1.09018  -1.05246  -1.05038  -0.96002  -0.95836
 Alpha  occ. eigenvalues --   -0.86621  -0.86464  -0.82875  -0.82660  -0.77935
 Alpha  occ. eigenvalues --   -0.77679  -0.72416  -0.72239  -0.71527  -0.71355
 Alpha  occ. eigenvalues --   -0.70904  -0.70731  -0.65485  -0.65359  -0.65281
 Alpha  occ. eigenvalues --   -0.65028  -0.62713  -0.62270  -0.55712  -0.55547
 Alpha  occ. eigenvalues --   -0.53595  -0.53440  -0.53255  -0.53084  -0.49177
 Alpha  occ. eigenvalues --   -0.49162  -0.49002  -0.48987  -0.45159  -0.44981
 Alpha  occ. eigenvalues --   -0.37764  -0.37630  -0.37030  -0.36385
 Alpha virt. eigenvalues --    0.04623   0.04882   0.10707   0.11012   0.15953
 Alpha virt. eigenvalues --    0.16451   0.18692   0.22219   0.24886   0.26966
 Alpha virt. eigenvalues --    0.28193   0.29241   0.29399   0.31641   0.32573

 Mulliken charges:
               1
     1  C   -0.170329
     2  C   -0.221121
     3  C   -0.168641
     4  C    0.158689
     5  C   -0.168901
     6  C   -0.215909
     7  H    0.227557
     8  H    0.213351
     9  H    0.273171
    10  H    0.277875
    11  H    0.227552
    12  N    0.488319
    13  O   -0.458300
    14  O   -0.461729
    15  C   -0.169505
    16  C   -0.221553
    17  C   -0.165614
    18  C    0.158013
    19  C   -0.168988
    20  C   -0.218005
    21  H    0.227443
    22  H    0.214501
    23  H    0.270191
    24  H    0.277752
    25  H    0.226237
    26  N    0.488611
    27  O   -0.457996
    28  O   -0.462670
 Sum of Mulliken charges =  -0.00000

 Dipole moment (field-independent basis, Debye):
    X=              1.7041    Y=              1.3890    Z=              5.4775  Tot=              5.9022
 Quadrupole moment (field-independent basis, Debye-Ang):
   XX=           -119.5315   YY=           -102.9649   ZZ=           -104.5594
   XY=             28.5657   XZ=             -5.2425   YZ=             -0.6754

 Normal termination of Gaussian 16 at Wed May  5 22:46:24 2021.
