 Gaussian 16, Revision A.03,
 Gaussian 16:  EM64L-G16RevA.03 25-Dec-2016

 -------------
 #p 6-31g* mp2
 -------------

 ------------------------------------------------------
 Input file generated by CHIRIPA (05-May-2021 14:55:23)
 ------------------------------------------------------
 Symbolic Z-matrix:
 Charge =  0 Multiplicity = 1

                         Standard orientation:
 ---------------------------------------------------------------------
 Center     Atomic      Atomic             Coordinates (Angstroms)
 Number     Number       Type             X           Y           Z
 ---------------------------------------------------------------------
      1          6           0       -5.020683    0.817016    0.765342
      2          6           0       -3.808871    1.130625    1.389587
      3          6           0       -2.610080    0.575298    0.932359
      4          6           0       -2.660022   -0.293782   -0.156446
      5          6           0       -3.851476   -0.625728   -0.799515
      6          6           0       -5.038088   -0.058616   -0.325294
      7          1           0       -5.947203    1.252985    1.127129
      8          1           0       -3.792340    1.810344    2.236791
      9          1           0       -1.657902    0.800887    1.396994
     10          1           0       -3.836183   -1.306555   -1.641927
     11          1           0       -5.977726   -0.303972   -0.812043
     12          7           0       -1.397362   -0.887920   -0.649488
     13          8           0       -1.468186   -1.650836   -1.610519
     14          8           0       -0.360774   -0.579439   -0.065568
     15          6           0        3.826185    0.851816   -0.348815
     16          6           0        3.117770    2.132574    0.093668
     17          6           0        3.437773    3.326329   -0.806522
     18          1           0        4.911004    1.025063   -0.358638
     19          1           0        3.537300    0.619973   -1.383315
     20          1           0        3.406830    2.361173    1.127498
     21          1           0        2.034522    1.956200    0.102623
     22          1           0        3.133253    3.123302   -1.838340
     23          1           0        4.513358    3.530576   -0.807642
     24          1           0        2.920957    4.231267   -0.472084
     25          6           0        3.516211   -0.350413    0.541293
     26          6           0        4.224625   -1.631171    0.098811
     27          6           0        3.904623   -2.824926    0.999000
     28          1           0        3.805095   -0.118570    1.575793
     29          1           0        2.431391   -0.523659    0.551117
     30          1           0        5.307874   -1.454797    0.089855
     31          1           0        3.935565   -1.859770   -0.935018
     32          1           0        2.829038   -3.029173    1.000121
     33          1           0        4.209143   -2.621899    2.030818
     34          1           0        4.421439   -3.729864    0.664563
 ---------------------------------------------------------------------

 SCF Done:  E(RHF) =  -669.536489834     A.U. after   15 cycles
 E2 =    -0.2091139995D+01 EUMP2 =    -0.67162762982943D+03

 The electronic state is 1-A.
 Alpha  occ. eigenvalues --  -20.61048 -20.61039 -15.86082 -11.31352 -11.27909
 Alpha  occ. eigenvalues --  -11.27906 -11.27640 -11.26907 -11.26897 -11.20682
 Alpha  occ. eigenvalues --  -11.20394 -11.20383 -11.20269 -11.19960 -11.19930
 Alpha  occ. eigenvalues --   -1.60105  -1.39663  -1.19516  -1.08930  -1.07270
 Alpha  occ. eigenvalues --   -1.04905  -1.02495  -0.95780  -0.94944  -0.86308
 Alpha  occ. eigenvalues --   -0.85971  -0.82617  -0.78571  -0.77680  -0.77054
 Alpha  occ. eigenvalues --   -0.72309  -0.71415  -0.70625  -0.65176  -0.64908
 Alpha  occ. eigenvalues --   -0.63865  -0.62253  -0.59883  -0.58340  -0.56564
 Alpha  occ. eigenvalues --   -0.55412  -0.54215  -0.53240  -0.52997  -0.51702
 Alpha  occ. eigenvalues --   -0.51385  -0.49111  -0.49055  -0.48833  -0.46899
 Alpha  occ. eigenvalues --   -0.45593  -0.45075  -0.44630  -0.44416  -0.42705
 Alpha  occ. eigenvalues --   -0.37493  -0.36504
 Alpha virt. eigenvalues --    0.04847   0.11151   0.16349   0.21217   0.23973
 Alpha virt. eigenvalues --    0.25300   0.27010   0.27442   0.28093   0.28854
 Alpha virt. eigenvalues --    0.29091   0.30938   0.32172   0.32495   0.32658

 Mulliken charges:
               1
     1  C   -0.170444
     2  C   -0.218531
     3  C   -0.170773
     4  C    0.157145
     5  C   -0.170329
     6  C   -0.218622
     7  H    0.226248
     8  H    0.224182
     9  H    0.275995
    10  H    0.275942
    11  H    0.224013
    12  N    0.495750
    13  O   -0.458418
    14  O   -0.468326
    15  C   -0.295903
    16  C   -0.301269
    17  C   -0.475005
    18  H    0.143927
    19  H    0.152185
    20  H    0.146818
    21  H    0.158019
    22  H    0.155500
    23  H    0.153099
    24  H    0.155019
    25  C   -0.311520
    26  C   -0.297744
    27  C   -0.476582
    28  H    0.140852
    29  H    0.180014
    30  H    0.145622
    31  H    0.154953
    32  H    0.162223
    33  H    0.150034
    34  H    0.155927
 Sum of Mulliken charges =  -0.00000

 Dipole moment (field-independent basis, Debye):
    X=             -4.8439    Y=              1.9876    Z=              1.6677  Tot=              5.4950
 Quadrupole moment (field-independent basis, Debye-Ang):
   XX=            -70.9722   YY=            -96.9250   ZZ=            -93.2777
   XY=             -3.0916   XZ=             -1.7206   YZ=              2.0985

 Normal termination of Gaussian 16 at Thu May  6 20:49:59 2021.
