 Gaussian 16, Revision A.03,
 Gaussian 16:  EM64L-G16RevA.03 25-Dec-2016

 -------------
 #p 6-31g* mp2
 -------------

 ------------------------------------------------------
 Input file generated by CHIRIPA (05-May-2021 14:53:17)
 ------------------------------------------------------
 Symbolic Z-matrix:
 Charge =  0 Multiplicity = 1

                         Standard orientation:
 ---------------------------------------------------------------------
 Center     Atomic      Atomic             Coordinates (Angstroms)
 Number     Number       Type             X           Y           Z
 ---------------------------------------------------------------------
      1          6           0        4.621592    0.010343   -0.405810
      2          6           0        6.019594    0.337213    0.120242
      3          6           0        6.884018    1.064101   -0.910389
      4          1           0        4.712104   -0.606043   -1.310697
      5          1           0        4.125011    0.941960   -0.710590
      6          1           0        6.512871   -0.594601    0.425228
      7          1           0        5.925740    0.952733    1.024091
      8          1           0        6.416802    2.008517   -1.207691
      9          1           0        7.007269    0.452392   -1.809957
     10          1           0        7.879078    1.288045   -0.513446
     11          6           0        3.745530   -0.716406    0.613052
     12          6           0        2.347528   -1.043277    0.087000
     13          6           0        1.483104   -1.770164    1.117631
     14          1           0        4.242111   -1.648024    0.917832
     15          1           0        3.655018   -0.100020    1.517939
     16          1           0        2.441382   -1.658796   -0.816849
     17          1           0        1.854251   -0.111463   -0.217986
     18          1           0        1.359853   -1.158455    2.017199
     19          1           0        1.950320   -2.714580    1.414933
     20          1           0        0.488044   -1.994109    0.720688
     21          6           0       -2.490313    2.635352    0.358407
     22          6           0       -1.560530    1.592398    0.293047
     23          6           0       -1.980308    0.281161    0.050164
     24          6           0       -3.343630    0.047694   -0.123430
     25          6           0       -4.294326    1.065505   -0.064028
     26          6           0       -3.851843    2.369046    0.179974
     27          1           0       -2.155401    3.650962    0.547520
     28          1           0       -0.502519    1.796267    0.431233
     29          1           0       -1.281969   -0.545063   -0.005480
     30          1           0       -5.342380    0.831228   -0.205855
     31          1           0       -4.576175    3.177047    0.230205
     32          7           0       -3.800049   -1.336380   -0.381152
     33          8           0       -5.006730   -1.515851   -0.530648
     34          8           0       -2.942467   -2.215540   -0.428780
 ---------------------------------------------------------------------

 SCF Done:  E(RHF) =  -669.535575361     A.U. after   15 cycles
 E2 =    -0.2091385007D+01 EUMP2 =    -0.67162696036855D+03

 The electronic state is 1-A.
 Alpha  occ. eigenvalues --  -20.60758 -20.60753 -15.85808 -11.31150 -11.27730
 Alpha  occ. eigenvalues --  -11.27696 -11.27478 -11.26746 -11.26732 -11.22164
 Alpha  occ. eigenvalues --  -11.21929 -11.21834 -11.21754 -11.21510 -11.21355
 Alpha  occ. eigenvalues --   -1.59830  -1.39385  -1.19329  -1.08857  -1.08731
 Alpha  occ. eigenvalues --   -1.04732  -1.03947  -0.96382  -0.95566  -0.87391
 Alpha  occ. eigenvalues --   -0.86132  -0.82399  -0.80007  -0.78661  -0.77451
 Alpha  occ. eigenvalues --   -0.72029  -0.71151  -0.70453  -0.65496  -0.64983
 Alpha  occ. eigenvalues --   -0.64750  -0.62161  -0.61319  -0.59722  -0.57987
 Alpha  occ. eigenvalues --   -0.55662  -0.55234  -0.53163  -0.53058  -0.52897
 Alpha  occ. eigenvalues --   -0.52608  -0.50311  -0.48786  -0.48782  -0.48316
 Alpha  occ. eigenvalues --   -0.47055  -0.46199  -0.46130  -0.44794  -0.44188
 Alpha  occ. eigenvalues --   -0.37317  -0.36330
 Alpha virt. eigenvalues --    0.05082   0.11313   0.16572   0.19197   0.22734
 Alpha virt. eigenvalues --    0.23700   0.25530   0.26241   0.26837   0.28035
 Alpha virt. eigenvalues --    0.29128   0.29449   0.31279   0.31539   0.32172

 Mulliken charges:
               1
     1  C   -0.298112
     2  C   -0.299938
     3  C   -0.475841
     4  H    0.151886
     5  H    0.146666
     6  H    0.153508
     7  H    0.151342
     8  H    0.154330
     9  H    0.156354
    10  H    0.161248
    11  C   -0.298317
    12  C   -0.301526
    13  C   -0.485622
    14  H    0.153015
    15  H    0.148230
    16  H    0.158194
    17  H    0.141372
    18  H    0.153217
    19  H    0.162588
    20  H    0.168449
    21  C   -0.170480
    22  C   -0.223782
    23  C   -0.177157
    24  C    0.157521
    25  C   -0.169994
    26  C   -0.219042
    27  H    0.225417
    28  H    0.224643
    29  H    0.287845
    30  H    0.275516
    31  H    0.223298
    32  N    0.487297
    33  O   -0.460202
    34  O   -0.461921
 Sum of Mulliken charges =  -0.00000

 Dipole moment (field-independent basis, Debye):
    X=              1.7356    Y=              4.7618    Z=              0.9155  Tot=              5.1502
 Quadrupole moment (field-independent basis, Debye-Ang):
   XX=           -101.0126   YY=            -93.5056   ZZ=            -96.1620
   XY=            -19.1610   XZ=             -2.6688   YZ=             -0.0170

 Normal termination of Gaussian 16 at Thu May  6 12:17:46 2021.
