 Gaussian 16, Revision A.03,
 Gaussian 16:  EM64L-G16RevA.03 25-Dec-2016

 -------------
 #p 6-31g* mp2
 -------------

 ------------------------------------------------------
 Input file generated by CHIRIPA (05-May-2021 14:51:14)
 ------------------------------------------------------
 Symbolic Z-matrix:
 Charge =  0 Multiplicity = 1

                         Standard orientation:
 ---------------------------------------------------------------------
 Center     Atomic      Atomic             Coordinates (Angstroms)
 Number     Number       Type             X           Y           Z
 ---------------------------------------------------------------------
      1          6           0        3.053350   -0.143613   -0.055504
      2          6           0        2.506045   -1.559318   -0.240494
      3          6           0        0.978015   -1.602897   -0.272412
      4          1           0        2.653524    0.278320    0.876729
      5          1           0        2.684372    0.494081   -0.870732
      6          1           0        2.877067   -2.194484    0.574075
      7          1           0        2.907372   -1.978000   -1.172297
      8          1           0        0.592319   -0.992465   -1.095341
      9          1           0        0.561842   -1.210179    0.660954
     10          1           0        0.608211   -2.624369   -0.405453
     11          6           0        4.579453   -0.083713   -0.021596
     12          6           0        5.126758    1.331992    0.163395
     13          6           0        6.654788    1.375572    0.195313
     14          1           0        4.948431   -0.721407    0.793632
     15          1           0        4.979279   -0.505646   -0.953828
     16          1           0        4.725431    1.750675    1.095198
     17          1           0        4.755736    1.967158   -0.651175
     18          1           0        7.070962    0.982853   -0.738053
     19          1           0        7.040485    0.765140    1.018242
     20          1           0        7.024592    2.397044    0.328353
     21          6           0       -3.909421   -0.591977    0.315772
     22          6           0       -2.908747   -1.601572   -0.247567
     23          6           0       -3.107572   -3.008713    0.316542
     24          1           0       -3.817781   -0.566123    1.410249
     25          1           0       -4.929657   -0.935519    0.095563
     26          1           0       -1.890675   -1.255526   -0.027568
     27          1           0       -3.002647   -1.624886   -1.340843
     28          1           0       -4.111639   -3.378403    0.084635
     29          1           0       -2.993349   -3.006945    1.405372
     30          1           0       -2.381744   -3.714318   -0.099578
     31          6           0       -3.723383    0.819302   -0.238673
     32          6           0       -4.724057    1.828898    0.324666
     33          6           0       -4.525231    3.236039   -0.239443
     34          1           0       -2.703146    1.162845   -0.018463
     35          1           0       -3.815022    0.793449   -1.333149
     36          1           0       -4.630156    1.852211    1.417944
     37          1           0       -5.742128    1.482852    0.104667
     38          1           0       -4.639455    3.234271   -1.328273
     39          1           0       -3.521164    3.605729   -0.007536
     40          1           0       -5.251060    3.941643    0.176677
 ---------------------------------------------------------------------

 SCF Done:  E(RHF) =  -470.733055860     A.U. after   11 cycles
 E2 =    -0.1582760354D+01 EUMP2 =    -0.47231581621318D+03

 The electronic state is 1-A.
 Alpha  occ. eigenvalues --  -11.21624 -11.21620 -11.21558 -11.21431 -11.21406
 Alpha  occ. eigenvalues --  -11.21371 -11.21331 -11.21261 -11.21117 -11.21085
 Alpha  occ. eigenvalues --  -11.21040 -11.20980  -1.08458  -1.08346  -1.03571
 Alpha  occ. eigenvalues --   -1.03435  -0.96026  -0.95895  -0.87046  -0.86916
 Alpha  occ. eigenvalues --   -0.79710  -0.79439  -0.78288  -0.78130  -0.65088
 Alpha  occ. eigenvalues --   -0.64981  -0.60971  -0.60840  -0.59434  -0.59223
 Alpha  occ. eigenvalues --   -0.57624  -0.57514  -0.55309  -0.55190  -0.52737
 Alpha  occ. eigenvalues --   -0.52567  -0.52495  -0.52297  -0.49959  -0.49843
 Alpha  occ. eigenvalues --   -0.48089  -0.47717  -0.46670  -0.46510  -0.45892
 Alpha  occ. eigenvalues --   -0.45738  -0.45677  -0.45487  -0.43792  -0.43700
 Alpha virt. eigenvalues --    0.22027   0.22974   0.23629   0.24800   0.26065
 Alpha virt. eigenvalues --    0.26585   0.27040   0.27129   0.27874   0.29123
 Alpha virt. eigenvalues --    0.30223   0.31021   0.31364   0.31725   0.32372

 Mulliken charges:
               1
     1  C   -0.298416
     2  C   -0.300722
     3  C   -0.477078
     4  H    0.149362
     5  H    0.149638
     6  H    0.151994
     7  H    0.152094
     8  H    0.156605
     9  H    0.154137
    10  H    0.162017
    11  C   -0.298282
    12  C   -0.299647
    13  C   -0.475723
    14  H    0.149579
    15  H    0.149760
    16  H    0.151878
    17  H    0.151986
    18  H    0.155232
    19  H    0.155203
    20  H    0.160313
    21  C   -0.297583
    22  C   -0.309277
    23  C   -0.475485
    24  H    0.148837
    25  H    0.148880
    26  H    0.166228
    27  H    0.150549
    28  H    0.154563
    29  H    0.154426
    30  H    0.159813
    31  C   -0.298258
    32  C   -0.299518
    33  C   -0.475664
    34  H    0.149357
    35  H    0.149369
    36  H    0.151747
    37  H    0.151869
    38  H    0.155053
    39  H    0.155083
    40  H    0.160082
 Sum of Mulliken charges =  -0.00000

 Dipole moment (field-independent basis, Debye):
    X=              0.0556    Y=             -0.0025    Z=             -0.0085  Tot=              0.0563
 Quadrupole moment (field-independent basis, Debye-Ang):
   XX=            -85.8337   YY=            -85.9975   ZZ=            -83.2568
   XY=             -0.1418   XZ=              0.4366   YZ=              0.3787

 Normal termination of Gaussian 16 at Wed May  5 15:22:32 2021.
