 Gaussian 16, Revision A.03,
 Gaussian 16:  EM64L-G16RevA.03 25-Dec-2016

 -------------
 #p 6-31g* mp2
 -------------

 ------------------------------------------------------
 Input file generated by CHIRIPA (05-May-2021 14:57:24)
 ------------------------------------------------------
 Symbolic Z-matrix:
 Charge =  0 Multiplicity = 1

                         Standard orientation:
 ---------------------------------------------------------------------
 Center     Atomic      Atomic             Coordinates (Angstroms)
 Number     Number       Type             X           Y           Z
 ---------------------------------------------------------------------
      1          6           0       -1.638672   -2.083087    1.632617
      2          6           0       -1.677302   -2.309881    0.252910
      3          6           0       -2.127356   -1.313241   -0.618128
      4          6           0       -2.533125   -0.096175   -0.072792
      5          6           0       -2.506376    0.160107    1.297206
      6          6           0       -2.052603   -0.850989    2.149451
      7          1           0       -1.287615   -2.862917    2.301961
      8          1           0       -1.356453   -3.265773   -0.151282
      9          1           0       -2.167620   -1.462062   -1.690345
     10          1           0       -2.832686    1.123225    1.670495
     11          1           0       -2.023688   -0.672054    3.220521
     12          7           0       -3.011546    0.966576   -0.984973
     13          8           0       -3.363565    2.030170   -0.479516
     14          8           0       -3.025454    0.715842   -2.188126
     15          6           0        3.042388   -2.055959   -0.854576
     16          6           0        4.056655   -1.149844   -0.527863
     17          6           0        3.742457    0.142252   -0.096221
     18          6           0        2.397419    0.496323   -0.002426
     19          6           0        1.364261   -0.383779   -0.320694
     20          6           0        1.701792   -1.670714   -0.750133
     21          1           0        3.295529   -3.057686   -1.189030
     22          1           0        5.098646   -1.446278   -0.608024
     23          1           0        4.507707    0.863751    0.163103
     24          1           0        0.334682   -0.059276   -0.230780
     25          1           0        0.912008   -2.372317   -1.003193
     26          7           0        2.052441    1.861475    0.453367
     27          8           0        0.859753    2.148926    0.527555
     28          8           0        2.981267    2.618182    0.727801
 ---------------------------------------------------------------------

 SCF Done:  E(RHF) =  -868.335143599     A.U. after   16 cycles
 E2 =    -0.2605409739D+01 EUMP2 =    -0.87094055333847D+03

 The electronic state is 1-A.
 Alpha  occ. eigenvalues --  -20.60852 -20.60795 -20.60765 -20.60759 -15.85899
 Alpha  occ. eigenvalues --  -15.85815 -11.31604 -11.31184 -11.28299 -11.28124
 Alpha  occ. eigenvalues --  -11.28018 -11.27810 -11.27670 -11.27604 -11.27400
 Alpha  occ. eigenvalues --  -11.27182 -11.26833 -11.26811  -1.59892  -1.59836
 Alpha  occ. eigenvalues --   -1.39435  -1.39390  -1.19884  -1.19388  -1.09158
 Alpha  occ. eigenvalues --   -1.08803  -1.05338  -1.04770  -0.95927  -0.95620
 Alpha  occ. eigenvalues --   -0.86668  -0.86205  -0.82778  -0.82439  -0.77767
 Alpha  occ. eigenvalues --   -0.77489  -0.72109  -0.72047  -0.71238  -0.71160
 Alpha  occ. eigenvalues --   -0.70873  -0.70529  -0.65470  -0.65359  -0.65057
 Alpha  occ. eigenvalues --   -0.64790  -0.62633  -0.62220  -0.55726  -0.55439
 Alpha  occ. eigenvalues --   -0.53629  -0.53360  -0.53094  -0.52685  -0.48901
 Alpha  occ. eigenvalues --   -0.48835  -0.48792  -0.48792  -0.44791  -0.44761
 Alpha  occ. eigenvalues --   -0.37939  -0.37426  -0.36901  -0.36277
 Alpha virt. eigenvalues --    0.04781   0.05027   0.10667   0.11262   0.16071
 Alpha virt. eigenvalues --    0.16524   0.19966   0.22015   0.25518   0.27959
 Alpha virt. eigenvalues --    0.28240   0.28717   0.29861   0.31776   0.32239

 Mulliken charges:
               1
     1  C   -0.170170
     2  C   -0.222365
     3  C   -0.190094
     4  C    0.157700
     5  C   -0.161319
     6  C   -0.217158
     7  H    0.227482
     8  H    0.219193
     9  H    0.276312
    10  H    0.284338
    11  H    0.228719
    12  N    0.490027
    13  O   -0.451357
    14  O   -0.462557
    15  C   -0.171202
    16  C   -0.219784
    17  C   -0.169637
    18  C    0.155397
    19  C   -0.172260
    20  C   -0.222728
    21  H    0.223447
    22  H    0.223024
    23  H    0.275781
    24  H    0.288745
    25  H    0.213612
    26  N    0.487610
    27  O   -0.460543
    28  O   -0.460214
 Sum of Mulliken charges =  -0.00000

 Dipole moment (field-independent basis, Debye):
    X=              2.5843    Y=             -8.1901    Z=              1.8729  Tot=              8.7900
 Quadrupole moment (field-independent basis, Debye-Ang):
   XX=           -102.9787   YY=           -108.1803   ZZ=           -102.9107
   XY=             -1.3909   XZ=            -12.8708   YZ=              1.8043

 Normal termination of Gaussian 16 at Thu May  6 03:30:35 2021.
