 Gaussian 16, Revision A.03,
 Gaussian 16:  EM64L-G16RevA.03 25-Dec-2016

 -------------
 #p 6-31g* mp2
 -------------

 ------------------------------------------------------
 Input file generated by CHIRIPA (05-May-2021 14:57:21)
 ------------------------------------------------------
 Symbolic Z-matrix:
 Charge =  0 Multiplicity = 1

                         Standard orientation:
 ---------------------------------------------------------------------
 Center     Atomic      Atomic             Coordinates (Angstroms)
 Number     Number       Type             X           Y           Z
 ---------------------------------------------------------------------
      1          6           0        1.936455    2.629019    0.068827
      2          6           0        2.353498    1.987537    1.239766
      3          6           0        2.758315    0.649691    1.210817
      4          6           0        2.733468   -0.019482   -0.011836
      5          6           0        2.323220    0.592044   -1.195484
      6          6           0        1.922672    1.930456   -1.142925
      7          1           0        1.623641    3.668509    0.100485
      8          1           0        2.365230    2.527569    2.182248
      9          1           0        3.085818    0.128727    2.102308
     10          1           0        2.322357    0.027574   -2.120033
     11          1           0        1.599278    2.426087   -2.053865
     12          7           0        3.159770   -1.436099   -0.054980
     13          8           0        3.128735   -2.003572   -1.144773
     14          8           0        3.516870   -1.952147    1.001813
     15          6           0       -2.942850    2.292366   -0.071960
     16          6           0       -1.673147    1.724799   -0.221101
     17          6           0       -1.506389    0.337329   -0.180299
     18          6           0       -2.636174   -0.456300    0.012139
     19          6           0       -3.914253    0.079208    0.163911
     20          6           0       -4.057385    1.469211    0.119732
     21          1           0       -3.063215    3.371170   -0.104967
     22          1           0       -0.805795    2.361621   -0.370105
     23          1           0       -0.534937   -0.128513   -0.292955
     24          1           0       -4.760020   -0.581438    0.311032
     25          1           0       -5.044660    1.907219    0.235850
     26          7           0       -2.472140   -1.926493    0.057121
     27          8           0       -3.483398   -2.603874    0.227853
     28          8           0       -1.335418   -2.373613   -0.079206
 ---------------------------------------------------------------------

 SCF Done:  E(RHF) =  -868.335178243     A.U. after   16 cycles
 E2 =    -0.2604263297D+01 EUMP2 =    -0.87093944154029D+03

 The electronic state is 1-A.
 Alpha  occ. eigenvalues --  -20.60924 -20.60910 -20.60652 -20.60629 -15.85996
 Alpha  occ. eigenvalues --  -15.85696 -11.31862 -11.31193 -11.28458 -11.28405
 Alpha  occ. eigenvalues --  -11.28322 -11.27790 -11.27720 -11.27628 -11.27593
 Alpha  occ. eigenvalues --  -11.27539 -11.26850 -11.26748  -1.59978  -1.59717
 Alpha  occ. eigenvalues --   -1.39521  -1.39266  -1.20104  -1.19384  -1.09415
 Alpha  occ. eigenvalues --   -1.08770  -1.05540  -1.04794  -0.96149  -0.95578
 Alpha  occ. eigenvalues --   -0.86916  -0.86204  -0.82948  -0.82402  -0.77892
 Alpha  occ. eigenvalues --   -0.77432  -0.72207  -0.71909  -0.71305  -0.71181
 Alpha  occ. eigenvalues --   -0.71047  -0.70525  -0.65723  -0.65515  -0.65037
 Alpha  occ. eigenvalues --   -0.64822  -0.62823  -0.62226  -0.56047  -0.55416
 Alpha  occ. eigenvalues --   -0.53735  -0.53584  -0.53139  -0.52914  -0.48999
 Alpha  occ. eigenvalues --   -0.48926  -0.48680  -0.48661  -0.44815  -0.44640
 Alpha  occ. eigenvalues --   -0.38091  -0.37409  -0.37221  -0.36335
 Alpha virt. eigenvalues --    0.04557   0.05133   0.10300   0.11286   0.15838
 Alpha virt. eigenvalues --    0.16634   0.20188   0.21812   0.26291   0.27007
 Alpha virt. eigenvalues --    0.27842   0.28445   0.30368   0.31344   0.31865

 Mulliken charges:
               1
     1  C   -0.182652
     2  C   -0.215233
     3  C   -0.170090
     4  C    0.161802
     5  C   -0.178848
     6  C   -0.223633
     7  H    0.224883
     8  H    0.226897
     9  H    0.280814
    10  H    0.281812
    11  H    0.226188
    12  N    0.489965
    13  O   -0.454299
    14  O   -0.456281
    15  C   -0.172941
    16  C   -0.222093
    17  C   -0.177191
    18  C    0.158797
    19  C   -0.170608
    20  C   -0.218738
    21  H    0.221857
    22  H    0.220688
    23  H    0.279631
    24  H    0.276061
    25  H    0.222750
    26  N    0.487360
    27  O   -0.460651
    28  O   -0.456247
 Sum of Mulliken charges =  -0.00000

 Dipole moment (field-independent basis, Debye):
    X=             -1.6913    Y=              9.8263    Z=              0.0661  Tot=              9.9710
 Quadrupole moment (field-independent basis, Debye-Ang):
   XX=           -105.1281   YY=           -111.2398   ZZ=           -100.4810
   XY=              0.8075   XZ=              1.1564   YZ=              0.3020

 Normal termination of Gaussian 16 at Thu May  6 01:43:48 2021.
