 Gaussian 16, Revision A.03,
 Gaussian 16:  EM64L-G16RevA.03 25-Dec-2016

 -------------
 #p 6-31g* mp2
 -------------

 ------------------------------------------------------
 Input file generated by CHIRIPA (05-May-2021 14:55:22)
 ------------------------------------------------------
 Symbolic Z-matrix:
 Charge =  0 Multiplicity = 1

                         Standard orientation:
 ---------------------------------------------------------------------
 Center     Atomic      Atomic             Coordinates (Angstroms)
 Number     Number       Type             X           Y           Z
 ---------------------------------------------------------------------
      1          6           0        4.198834    0.703425   -0.282182
      2          6           0        3.451447    0.922795    0.879632
      3          6           0        2.282728    0.194247    1.120177
      4          6           0        1.888837   -0.750072    0.173392
      5          6           0        2.611959   -0.991544   -0.993688
      6          6           0        3.777448   -0.251361   -1.213492
      7          1           0        5.105468    1.273898   -0.460986
      8          1           0        3.776301    1.663651    1.604647
      9          1           0        1.685139    0.343863    2.011199
     10          1           0        2.262842   -1.736846   -1.698003
     11          1           0        4.355888   -0.423845   -2.116653
     12          7           0        0.653276   -1.527512    0.417067
     13          8           0        0.327606   -2.353734   -0.432600
     14          8           0        0.033910   -1.295927    1.453112
     15          6           0       -3.080543    0.257189    0.191786
     16          6           0       -3.395533   -0.955999   -0.683967
     17          6           0       -4.200593   -2.025428    0.054947
     18          1           0       -2.524784   -0.073933    1.079725
     19          1           0       -4.021639    0.691868    0.556184
     20          1           0       -2.454174   -1.387433   -1.047730
     21          1           0       -3.950439   -0.621923   -1.570019
     22          1           0       -5.154453   -1.616930    0.404059
     23          1           0       -3.649686   -2.386788    0.929316
     24          1           0       -4.414661   -2.883640   -0.589650
     25          6           0       -2.276186    1.334979   -0.532858
     26          6           0       -1.961196    2.548166    0.342894
     27          6           0       -1.156136    3.617596   -0.396019
     28          1           0       -1.335089    0.900300   -0.897256
     29          1           0       -2.831945    1.666101   -1.420797
     30          1           0       -1.406290    2.214092    1.228947
     31          1           0       -2.902556    2.979600    0.706658
     32          1           0       -1.707043    3.978956   -1.270388
     33          1           0       -0.202275    3.209097   -0.745132
     34          1           0       -0.942068    4.475808    0.248579
 ---------------------------------------------------------------------

 SCF Done:  E(RHF) =  -669.536930738     A.U. after   15 cycles
 E2 =    -0.2093278049D+01 EUMP2 =    -0.67163020878663D+03

 The electronic state is 1-A.
 Alpha  occ. eigenvalues --  -20.61164 -20.61159 -15.86160 -11.31413 -11.27961
 Alpha  occ. eigenvalues --  -11.27953 -11.27676 -11.26943 -11.26933 -11.21083
 Alpha  occ. eigenvalues --  -11.20807 -11.20617 -11.20117 -11.20011 -11.19642
 Alpha  occ. eigenvalues --   -1.60200  -1.39759  -1.19565  -1.08984  -1.07447
 Alpha  occ. eigenvalues --   -1.04946  -1.02557  -0.95837  -0.95048  -0.86351
 Alpha  occ. eigenvalues --   -0.86070  -0.82673  -0.78711  -0.77740  -0.77156
 Alpha  occ. eigenvalues --   -0.72378  -0.71528  -0.70669  -0.65221  -0.64948
 Alpha  occ. eigenvalues --   -0.64046  -0.62293  -0.59936  -0.58495  -0.56632
 Alpha  occ. eigenvalues --   -0.55451  -0.54338  -0.53279  -0.53035  -0.51796
 Alpha  occ. eigenvalues --   -0.51467  -0.49242  -0.49151  -0.48884  -0.47010
 Alpha  occ. eigenvalues --   -0.45778  -0.45391  -0.44706  -0.44243  -0.42803
 Alpha  occ. eigenvalues --   -0.37532  -0.36540
 Alpha virt. eigenvalues --    0.04717   0.11099   0.16191   0.21152   0.23432
 Alpha virt. eigenvalues --    0.25358   0.26922   0.27315   0.27985   0.28702
 Alpha virt. eigenvalues --    0.28862   0.31023   0.31927   0.32360   0.32585

 Mulliken charges:
               1
     1  C   -0.170192
     2  C   -0.218428
     3  C   -0.170780
     4  C    0.157758
     5  C   -0.170662
     6  C   -0.218535
     7  H    0.226634
     8  H    0.224557
     9  H    0.276064
    10  H    0.276266
    11  H    0.224387
    12  N    0.489430
    13  O   -0.458252
    14  O   -0.459455
    15  C   -0.306551
    16  C   -0.303499
    17  C   -0.475886
    18  H    0.171226
    19  H    0.142148
    20  H    0.167834
    21  H    0.142427
    22  H    0.147362
    23  H    0.165288
    24  H    0.156468
    25  C   -0.295244
    26  C   -0.299116
    27  C   -0.475327
    28  H    0.142010
    29  H    0.146597
    30  H    0.151047
    31  H    0.151561
    32  H    0.154972
    33  H    0.151577
    34  H    0.156317
 Sum of Mulliken charges =  -0.00000

 Dipole moment (field-independent basis, Debye):
    X=              4.6483    Y=              2.5082    Z=             -0.7433  Tot=              5.3339
 Quadrupole moment (field-independent basis, Debye-Ang):
   XX=            -79.1777   YY=            -99.2381   ZZ=            -91.5955
   XY=              1.0228   XZ=             -1.4793   YZ=              3.8008

 Normal termination of Gaussian 16 at Thu May  6 14:14:38 2021.
