 Gaussian 16, Revision A.03,
 Gaussian 16:  EM64L-G16RevA.03 25-Dec-2016

 -------------
 #p 6-31g* mp2
 -------------

 ------------------------------------------------------
 Input file generated by CHIRIPA (05-May-2021 14:51:12)
 ------------------------------------------------------
 Symbolic Z-matrix:
 Charge =  0 Multiplicity = 1

                         Standard orientation:
 ---------------------------------------------------------------------
 Center     Atomic      Atomic             Coordinates (Angstroms)
 Number     Number       Type             X           Y           Z
 ---------------------------------------------------------------------
      1          6           0        3.005315    0.532031   -0.971262
      2          6           0        1.888804    1.539615   -0.695284
      3          6           0        1.694782    2.535105   -1.839465
      4          1           0        3.943817    1.074275   -1.150512
      5          1           0        2.777242   -0.012802   -1.897833
      6          1           0        2.118227    2.081420    0.231230
      7          1           0        0.952891    0.994902   -0.516481
      8          1           0        1.441533    2.011421   -2.766946
      9          1           0        2.613490    3.104112   -2.014987
     10          1           0        0.891839    3.246092   -1.621200
     11          6           0        3.211337   -0.469817    0.163456
     12          6           0        4.327848   -1.477401   -0.112522
     13          6           0        4.521870   -2.472891    1.031659
     14          1           0        3.439410    0.075017    1.090027
     15          1           0        2.272835   -1.012061    0.342706
     16          1           0        5.263761   -0.932688   -0.291325
     17          1           0        4.098425   -2.019206   -1.039036
     18          1           0        3.603162   -3.041898    1.207181
     19          1           0        4.775119   -1.949207    1.959140
     20          1           0        5.324813   -3.183877    0.813394
     21          6           0       -3.750738   -0.142032    0.005866
     22          6           0       -3.890000   -1.564871   -0.536463
     23          6           0       -5.180228   -1.771204   -1.330523
     24          1           0       -4.615799    0.086937    0.643195
     25          1           0       -3.783762    0.567370   -0.832616
     26          1           0       -3.855334   -2.271465    0.302667
     27          1           0       -3.024412   -1.790547   -1.172422
     28          1           0       -5.219248   -1.089254   -2.186106
     29          1           0       -6.054892   -1.572904   -0.702636
     30          1           0       -5.259357   -2.795125   -1.708921
     31          6           0       -2.465913    0.079817    0.801940
     32          6           0       -2.326653    1.502656    1.344269
     33          6           0       -1.036423    1.708990    2.138329
     34          1           0       -2.432889   -0.629585    1.640423
     35          1           0       -1.600853   -0.149153    0.164610
     36          1           0       -3.192240    1.728333    1.980228
     37          1           0       -2.361318    2.209250    0.505140
     38          1           0       -0.161760    1.510690    1.510442
     39          1           0       -0.997403    1.027039    2.993912
     40          1           0       -0.957295    2.732910    2.516727
 ---------------------------------------------------------------------

 SCF Done:  E(RHF) =  -470.732922542     A.U. after   11 cycles
 E2 =    -0.1583342887D+01 EUMP2 =    -0.47231626542991D+03

 The electronic state is 1-A.
 Alpha  occ. eigenvalues --  -11.21674 -11.21620 -11.21614 -11.21557 -11.21445
 Alpha  occ. eigenvalues --  -11.21409 -11.21382 -11.21350 -11.21138 -11.21080
 Alpha  occ. eigenvalues --  -11.21077 -11.20902  -1.08483  -1.08415  -1.03593
 Alpha  occ. eigenvalues --   -1.03487  -0.96023  -0.95943  -0.87046  -0.86955
 Alpha  occ. eigenvalues --   -0.79725  -0.79508  -0.78342  -0.78187  -0.65161
 Alpha  occ. eigenvalues --   -0.65006  -0.61044  -0.60858  -0.59404  -0.59301
 Alpha  occ. eigenvalues --   -0.57660  -0.57536  -0.55305  -0.55232  -0.52722
 Alpha  occ. eigenvalues --   -0.52635  -0.52469  -0.52348  -0.49966  -0.49923
 Alpha  occ. eigenvalues --   -0.48138  -0.47746  -0.46762  -0.46567  -0.45992
 Alpha  occ. eigenvalues --   -0.45756  -0.45732  -0.45382  -0.43823  -0.43762
 Alpha virt. eigenvalues --    0.20695   0.23205   0.23682   0.24882   0.25583
 Alpha virt. eigenvalues --    0.26372   0.27034   0.27861   0.28117   0.29147
 Alpha virt. eigenvalues --    0.30883   0.30933   0.31555   0.31822   0.32100

 Mulliken charges:
               1
     1  C   -0.297361
     2  C   -0.307402
     3  C   -0.475492
     4  H    0.149935
     5  H    0.149383
     6  H    0.154274
     7  H    0.156622
     8  H    0.155070
     9  H    0.155690
    10  H    0.160575
    11  C   -0.299035
    12  C   -0.299595
    13  C   -0.475757
    14  H    0.150019
    15  H    0.149868
    16  H    0.152010
    17  H    0.151901
    18  H    0.155385
    19  H    0.155342
    20  H    0.160274
    21  C   -0.298186
    22  C   -0.299601
    23  C   -0.475704
    24  H    0.149897
    25  H    0.149589
    26  H    0.151947
    27  H    0.151492
    28  H    0.155220
    29  H    0.155277
    30  H    0.160212
    31  C   -0.300941
    32  C   -0.298888
    33  C   -0.484456
    34  H    0.149748
    35  H    0.150364
    36  H    0.151731
    37  H    0.151296
    38  H    0.166014
    39  H    0.154213
    40  H    0.159072
 Sum of Mulliken charges =  -0.00000

 Dipole moment (field-independent basis, Debye):
    X=              0.0508    Y=              0.0015    Z=             -0.0181  Tot=              0.0539
 Quadrupole moment (field-independent basis, Debye-Ang):
   XX=            -84.8956   YY=            -85.0292   ZZ=            -84.8436
   XY=              0.5841   XZ=             -0.7985   YZ=              0.3726

 Normal termination of Gaussian 16 at Wed May  5 21:31:01 2021.
