 Gaussian 16, Revision A.03,
 Gaussian 16:  EM64L-G16RevA.03 25-Dec-2016

 -------------
 #p 6-31g* mp2
 -------------

 ------------------------------------------------------
 Input file generated by CHIRIPA (05-May-2021 14:51:13)
 ------------------------------------------------------
 Symbolic Z-matrix:
 Charge =  0 Multiplicity = 1

                         Standard orientation:
 ---------------------------------------------------------------------
 Center     Atomic      Atomic             Coordinates (Angstroms)
 Number     Number       Type             X           Y           Z
 ---------------------------------------------------------------------
      1          6           0       -3.145867    0.310437   -0.043984
      2          6           0       -1.877641   -0.503656   -0.302519
      3          6           0       -0.609283    0.349262   -0.262636
      4          1           0       -3.217901    1.112365   -0.791425
      5          1           0       -3.064254    0.802243    0.935230
      6          1           0       -1.962214   -0.994892   -1.280349
      7          1           0       -1.808718   -1.303857    0.445507
      8          1           0       -0.497530    0.827926    0.715625
      9          1           0       -0.651898    1.138646   -1.020037
     10          1           0        0.285367   -0.252708   -0.449971
     11          6           0       -4.422145   -0.528311   -0.080627
     12          6           0       -5.690371    0.285782    0.177908
     13          6           0       -6.958730   -0.567136    0.138025
     14          1           0       -4.503759   -1.020117   -1.059841
     15          1           0       -4.350111   -1.330239    0.666814
     16          1           0       -5.759295    1.085983   -0.570118
     17          1           0       -5.605799    0.777018    1.155738
     18          1           0       -6.916114   -1.356520    0.895426
     19          1           0       -7.070483   -1.045800   -0.840236
     20          1           0       -7.853380    0.034834    0.325360
     21          6           0        3.839660    0.811400   -0.232450
     22          6           0        2.985608    1.846140    0.500961
     23          6           0        3.107568    3.246596   -0.100406
     24          1           0        4.890529    1.131016   -0.210884
     25          1           0        3.542799    0.784432   -1.290061
     26          1           0        3.283046    1.870160    1.557166
     27          1           0        1.936676    1.523927    0.477812
     28          1           0        2.791497    3.244613   -1.148593
     29          1           0        4.145519    3.592814   -0.063105
     30          1           0        2.488883    3.970466    0.439132
     31          6           0        3.728352   -0.593526    0.357062
     32          6           0        4.582405   -1.628266   -0.376350
     33          6           0        4.460445   -3.028722    0.225017
     34          1           0        4.025214   -0.566558    1.414672
     35          1           0        2.677484   -0.913142    0.335495
     36          1           0        5.631337   -1.306052   -0.353201
     37          1           0        4.284965   -1.652285   -1.432554
     38          1           0        3.422494   -3.374939    0.187717
     39          1           0        4.776515   -3.026739    1.273204
     40          1           0        5.079130   -3.752593   -0.314521
 ---------------------------------------------------------------------

 SCF Done:  E(RHF) =  -470.732816225     A.U. after   11 cycles
 E2 =    -0.1583296902D+01 EUMP2 =    -0.47231611312680D+03

 The electronic state is 1-A.
 Alpha  occ. eigenvalues --  -11.21673 -11.21630 -11.21571 -11.21452 -11.21403
 Alpha  occ. eigenvalues --  -11.21391 -11.21342 -11.21270 -11.21183 -11.21093
 Alpha  occ. eigenvalues --  -11.21054 -11.20966  -1.08484  -1.08355  -1.03598
 Alpha  occ. eigenvalues --   -1.03445  -0.96051  -0.95911  -0.87086  -0.86918
 Alpha  occ. eigenvalues --   -0.79714  -0.79477  -0.78304  -0.78149  -0.65115
 Alpha  occ. eigenvalues --   -0.65006  -0.60998  -0.60852  -0.59424  -0.59268
 Alpha  occ. eigenvalues --   -0.57690  -0.57491  -0.55334  -0.55206  -0.52811
 Alpha  occ. eigenvalues --   -0.52572  -0.52492  -0.52317  -0.50010  -0.49841
 Alpha  occ. eigenvalues --   -0.48040  -0.47775  -0.46730  -0.46502  -0.45868
 Alpha  occ. eigenvalues --   -0.45772  -0.45684  -0.45582  -0.43772  -0.43689
 Alpha virt. eigenvalues --    0.21242   0.22966   0.24066   0.24432   0.25939
 Alpha virt. eigenvalues --    0.26573   0.27155   0.27270   0.27882   0.29093
 Alpha virt. eigenvalues --    0.30186   0.31240   0.31735   0.32018   0.32295

 Mulliken charges:
               1
     1  C   -0.298745
     2  C   -0.300165
     3  C   -0.481916
     4  H    0.149786
     5  H    0.149818
     6  H    0.151992
     7  H    0.152351
     8  H    0.156415
     9  H    0.156092
    10  H    0.164273
    11  C   -0.298338
    12  C   -0.299666
    13  C   -0.475738
    14  H    0.149591
    15  H    0.149779
    16  H    0.152001
    17  H    0.152023
    18  H    0.155243
    19  H    0.155215
    20  H    0.160371
    21  C   -0.297301
    22  C   -0.310992
    23  C   -0.474899
    24  H    0.149228
    25  H    0.148922
    26  H    0.150461
    27  H    0.167297
    28  H    0.154617
    29  H    0.154447
    30  H    0.159574
    31  C   -0.302916
    32  C   -0.299395
    33  C   -0.475630
    34  H    0.149567
    35  H    0.152747
    36  H    0.152034
    37  H    0.151658
    38  H    0.154852
    39  H    0.155173
    40  H    0.160176
 Sum of Mulliken charges =  -0.00000

 Dipole moment (field-independent basis, Debye):
    X=             -0.0703    Y=             -0.0081    Z=              0.0027  Tot=              0.0708
 Quadrupole moment (field-independent basis, Debye-Ang):
   XX=            -85.3752   YY=            -86.2120   ZZ=            -83.4809
   XY=             -0.4094   XZ=              0.5791   YZ=              0.2763

 Normal termination of Gaussian 16 at Wed May  5 18:23:01 2021.
