 Gaussian 16, Revision A.03,
 Gaussian 16:  EM64L-G16RevA.03 25-Dec-2016

 -------------
 #p 6-31g* mp2
 -------------

 ------------------------------------------------------
 Input file generated by CHIRIPA (05-May-2021 14:53:15)
 ------------------------------------------------------
 Symbolic Z-matrix:
 Charge =  0 Multiplicity = 1

                         Standard orientation:
 ---------------------------------------------------------------------
 Center     Atomic      Atomic             Coordinates (Angstroms)
 Number     Number       Type             X           Y           Z
 ---------------------------------------------------------------------
      1          6           0        3.504628   -0.516702   -0.068480
      2          6           0        3.158348   -1.500246    1.049875
      3          6           0        3.708077   -2.903843    0.793928
      4          1           0        3.109541   -0.898967   -1.019650
      5          1           0        4.596706   -0.469032   -0.180235
      6          1           0        2.067296   -1.545005    1.160417
      7          1           0        3.554140   -1.115501    1.998524
      8          1           0        4.798991   -2.879983    0.704838
      9          1           0        3.303700   -3.311927   -0.138031
     10          1           0        3.448920   -3.590695    1.605674
     11          6           0        2.961945    0.890747    0.172993
     12          6           0        3.308226    1.874291   -0.945362
     13          6           0        2.758497    3.277888   -0.689415
     14          1           0        1.869868    0.843077    0.284748
     15          1           0        3.357033    1.273012    1.124163
     16          1           0        2.912434    1.489546   -1.894011
     17          1           0        4.399277    1.919050   -1.055904
     18          1           0        3.162874    3.685972    0.242545
     19          1           0        1.667583    3.254028   -0.600325
     20          1           0        3.017653    3.964740   -1.501161
     21          6           0       -3.102080    2.143555    0.848833
     22          6           0       -1.771748    1.816770    0.566077
     23          6           0       -1.440956    0.551156    0.072775
     24          6           0       -2.470313   -0.367468   -0.126834
     25          6           0       -3.805165   -0.071872    0.145346
     26          6           0       -4.112760    1.199855    0.637937
     27          1           0       -3.350038    3.129088    1.231766
     28          1           0       -0.984769    2.547660    0.728890
     29          1           0       -0.419361    0.271709   -0.154540
     30          1           0       -4.567842   -0.821518   -0.027197
     31          1           0       -5.146783    1.450868    0.856646
     32          7           0       -2.132396   -1.710551   -0.648695
     33          8           0       -3.057685   -2.502082   -0.815901
     34          8           0       -0.948647   -1.946299   -0.880640
 ---------------------------------------------------------------------

 SCF Done:  E(RHF) =  -669.535758007     A.U. after   15 cycles
 E2 =    -0.2092019881D+01 EUMP2 =    -0.67162777788841D+03

 The electronic state is 1-A.
 Alpha  occ. eigenvalues --  -20.60835 -20.60829 -15.85880 -11.31210 -11.27778
 Alpha  occ. eigenvalues --  -11.27764 -11.27516 -11.26790 -11.26775 -11.21951
 Alpha  occ. eigenvalues --  -11.21766 -11.21651 -11.21336 -11.21274 -11.20623
 Alpha  occ. eigenvalues --   -1.59903  -1.39459  -1.19382  -1.08783  -1.08549
 Alpha  occ. eigenvalues --   -1.04783  -1.03578  -0.96062  -0.95624  -0.87073
 Alpha  occ. eigenvalues --   -0.86182  -0.82459  -0.79695  -0.78325  -0.77502
 Alpha  occ. eigenvalues --   -0.72101  -0.71222  -0.70503  -0.65230  -0.65033
 Alpha  occ. eigenvalues --   -0.64763  -0.62131  -0.60951  -0.59465  -0.57653
 Alpha  occ. eigenvalues --   -0.55402  -0.55257  -0.53111  -0.52900  -0.52728
 Alpha  occ. eigenvalues --   -0.52457  -0.49995  -0.48857  -0.48854  -0.47996
 Alpha  occ. eigenvalues --   -0.46741  -0.45857  -0.45719  -0.44865  -0.43851
 Alpha  occ. eigenvalues --   -0.37361  -0.36382
 Alpha virt. eigenvalues --    0.05009   0.11257   0.16501   0.18558   0.22905
 Alpha virt. eigenvalues --    0.23636   0.25119   0.26322   0.27218   0.28431
 Alpha virt. eigenvalues --    0.29473   0.31167   0.31588   0.32128   0.32754

 Mulliken charges:
               1
     1  C   -0.299470
     2  C   -0.301110
     3  C   -0.476361
     4  H    0.157572
     5  H    0.149476
     6  H    0.157987
     7  H    0.148082
     8  H    0.152022
     9  H    0.162911
    10  H    0.160780
    11  C   -0.301010
    12  C   -0.300587
    13  C   -0.475588
    14  H    0.138914
    15  H    0.150574
    16  H    0.155675
    17  H    0.155384
    18  H    0.155973
    19  H    0.145317
    20  H    0.163541
    21  C   -0.170721
    22  C   -0.223695
    23  C   -0.181761
    24  C    0.160317
    25  C   -0.170211
    26  C   -0.218823
    27  H    0.226045
    28  H    0.226380
    29  H    0.286839
    30  H    0.275628
    31  H    0.223609
    32  N    0.487728
    33  O   -0.459744
    34  O   -0.461673
 Sum of Mulliken charges =  -0.00000

 Dipole moment (field-independent basis, Debye):
    X=             -1.1181    Y=              4.6133    Z=              1.7686  Tot=              5.0657
 Quadrupole moment (field-independent basis, Debye-Ang):
   XX=            -83.0763   YY=            -99.4351   ZZ=            -95.8468
   XY=             -9.5388   XZ=             -4.5451   YZ=             -1.1685

 Normal termination of Gaussian 16 at Thu May  6 04:16:05 2021.
