 Gaussian 16, Revision A.03,
 Gaussian 16:  EM64L-G16RevA.03 25-Dec-2016

 -------------
 #p 6-31g* mp2
 -------------

 ------------------------------------------------------
 Input file generated by CHIRIPA (05-May-2021 14:57:22)
 ------------------------------------------------------
 Symbolic Z-matrix:
 Charge =  0 Multiplicity = 1

                         Standard orientation:
 ---------------------------------------------------------------------
 Center     Atomic      Atomic             Coordinates (Angstroms)
 Number     Number       Type             X           Y           Z
 ---------------------------------------------------------------------
      1          6           0        1.842041    2.350295    0.690832
      2          6           0        3.236423    2.305303    0.589861
      3          6           0        3.880213    1.139651    0.164024
      4          6           0        3.095137    0.032553   -0.154219
      5          6           0        1.704118    0.046213   -0.063834
      6          6           0        1.081679    1.222594    0.364238
      7          1           0        1.350222    3.259968    1.022500
      8          1           0        3.829474    3.179567    0.842836
      9          1           0        4.958143    1.077320    0.076843
     10          1           0        1.139745   -0.841336   -0.322980
     11          1           0       -0.001379    1.254653    0.441709
     12          7           0        3.765387   -1.207150   -0.606217
     13          8           0        3.051099   -2.168963   -0.880708
     14          8           0        4.992326   -1.193542   -0.677443
     15          6           0       -3.823477    1.725066   -1.266800
     16          6           0       -3.965185    0.424529   -1.761817
     17          6           0       -3.504126   -0.670044   -1.024334
     18          6           0       -2.903578   -0.426544    0.209902
     19          6           0       -2.747854    0.857382    0.730070
     20          6           0       -3.216335    1.936969   -0.024626
     21          1           0       -4.184522    2.569537   -1.846380
     22          1           0       -4.436297    0.256969   -2.726194
     23          1           0       -3.601004   -1.687318   -1.383763
     24          1           0       -2.273973    0.992860    1.694695
     25          1           0       -3.104938    2.945888    0.362306
     26          7           0       -2.411548   -1.577387    0.999753
     27          8           0       -1.886056   -1.336222    2.084343
     28          8           0       -2.560702   -2.698791    0.519294
 ---------------------------------------------------------------------

 SCF Done:  E(RHF) =  -868.336417592     A.U. after   16 cycles
 E2 =    -0.2601747497D+01 EUMP2 =    -0.87093816508861D+03

 The electronic state is 1-A.
 Alpha  occ. eigenvalues --  -20.61483 -20.61461 -20.60449 -20.60428 -15.86532
 Alpha  occ. eigenvalues --  -15.85495 -11.32098 -11.30925 -11.28702 -11.28577
 Alpha  occ. eigenvalues --  -11.28351 -11.27747 -11.27606 -11.27521 -11.27470
 Alpha  occ. eigenvalues --  -11.27326 -11.26580 -11.26484  -1.60555  -1.59516
 Alpha  occ. eigenvalues --   -1.40098  -1.39066  -1.20270  -1.19111  -1.09603
 Alpha  occ. eigenvalues --   -1.08514  -1.05694  -1.04519  -0.96413  -0.95333
 Alpha  occ. eigenvalues --   -0.87065  -0.85932  -0.83230  -0.82161  -0.78273
 Alpha  occ. eigenvalues --   -0.77185  -0.72724  -0.71911  -0.71715  -0.71322
 Alpha  occ. eigenvalues --   -0.70838  -0.70263  -0.65891  -0.65664  -0.64772
 Alpha  occ. eigenvalues --   -0.64576  -0.63014  -0.61870  -0.56115  -0.55106
 Alpha  occ. eigenvalues --   -0.54053  -0.53748  -0.52847  -0.52538  -0.49507
 Alpha  occ. eigenvalues --   -0.49480  -0.48484  -0.48462  -0.45449  -0.44457
 Alpha  occ. eigenvalues --   -0.38219  -0.37281  -0.37124  -0.36105
 Alpha virt. eigenvalues --    0.04214   0.05352   0.10248   0.11526   0.15689
 Alpha virt. eigenvalues --    0.16811   0.20356   0.21807   0.26132   0.27192
 Alpha virt. eigenvalues --    0.27961   0.28615   0.30227   0.31128   0.31932

 Mulliken charges:
               1
     1  C   -0.174166
     2  C   -0.218270
     3  C   -0.171367
     4  C    0.158442
     5  C   -0.171156
     6  C   -0.219944
     7  H    0.220128
     8  H    0.221737
     9  H    0.275045
    10  H    0.278257
    11  H    0.226358
    12  N    0.487939
    13  O   -0.457340
    14  O   -0.462055
    15  C   -0.170020
    16  C   -0.216711
    17  C   -0.170036
    18  C    0.159976
    19  C   -0.189000
    20  C   -0.218069
    21  H    0.228959
    22  H    0.228171
    23  H    0.280446
    24  H    0.276127
    25  H    0.223733
    26  N    0.486261
    27  O   -0.459970
    28  O   -0.453477
 Sum of Mulliken charges =  -0.00000

 Dipole moment (field-independent basis, Debye):
    X=             -4.4015    Y=              8.1842    Z=             -1.3347  Tot=              9.3881
 Quadrupole moment (field-independent basis, Debye-Ang):
   XX=           -104.8380   YY=           -105.9045   ZZ=           -104.8391
   XY=              5.7070   XZ=             15.4453   YZ=              4.1077

 Normal termination of Gaussian 16 at Wed May  5 19:19:58 2021.
