 Gaussian 16, Revision A.03,
 Gaussian 16:  EM64L-G16RevA.03 25-Dec-2016

 -------------
 #p 6-31g* mp2
 -------------

 ------------------------------------------------------
 Input file generated by CHIRIPA (05-May-2021 14:53:17)
 ------------------------------------------------------
 Symbolic Z-matrix:
 Charge =  0 Multiplicity = 1

                         Standard orientation:
 ---------------------------------------------------------------------
 Center     Atomic      Atomic             Coordinates (Angstroms)
 Number     Number       Type             X           Y           Z
 ---------------------------------------------------------------------
      1          6           0       -1.920160    1.024685    0.338354
      2          6           0       -1.459525    2.470498    0.150139
      3          6           0       -0.134803    2.765307    0.854408
      4          1           0       -2.019555    0.815071    1.412192
      5          1           0       -1.143043    0.347183   -0.041744
      6          1           0       -2.237878    3.145096    0.529216
      7          1           0       -1.361399    2.676752   -0.923381
      8          1           0        0.658591    2.116087    0.470165
      9          1           0       -0.222868    2.587092    1.931016
     10          1           0        0.175799    3.804346    0.706815
     11          6           0       -3.243050    0.714573   -0.359874
     12          6           0       -3.703685   -0.731239   -0.171659
     13          6           0       -5.028407   -1.026048   -0.875927
     14          1           0       -4.020167    1.392075    0.020224
     15          1           0       -3.143655    0.924188   -1.433712
     16          1           0       -3.801811   -0.937494    0.901862
     17          1           0       -2.925332   -1.405838   -0.550736
     18          1           0       -4.940342   -0.847834   -1.952535
     19          1           0       -5.821801   -0.376829   -0.491685
     20          1           0       -5.339009   -2.065088   -0.728335
     21          6           0        0.275168   -1.997994    1.270813
     22          6           0        0.304876   -2.036165   -0.127107
     23          6           0        1.265438   -1.309553   -0.836970
     24          6           0        2.185261   -0.551921   -0.113639
     25          6           0        2.181447   -0.493546    1.279152
     26          6           0        1.211897   -1.228164    1.968252
     27          1           0       -0.474510   -2.565553    1.814187
     28          1           0       -0.421355   -2.633158   -0.671379
     29          1           0        1.311188   -1.321152   -1.919185
     30          1           0        2.918511    0.110697    1.793978
     31          1           0        1.191211   -1.196638    3.053896
     32          7           0        3.206922    0.221548   -0.854148
     33          8           0        4.006211    0.881315   -0.193479
     34          8           0        3.189067    0.153380   -2.081206
 ---------------------------------------------------------------------

 SCF Done:  E(RHF) =  -669.533801825     A.U. after   15 cycles
 E2 =    -0.2096139533D+01 EUMP2 =    -0.67162994135803D+03

 The electronic state is 1-A.
 Alpha  occ. eigenvalues --  -20.60862 -20.60852 -15.85913 -11.31301 -11.27871
 Alpha  occ. eigenvalues --  -11.27865 -11.27574 -11.26857 -11.26842 -11.22222
 Alpha  occ. eigenvalues --  -11.21690 -11.21606 -11.21584 -11.21370 -11.21003
 Alpha  occ. eigenvalues --   -1.59936  -1.39487  -1.19492  -1.08880  -1.08671
 Alpha  occ. eigenvalues --   -1.04888  -1.03792  -0.96213  -0.95689  -0.87236
 Alpha  occ. eigenvalues --   -0.86274  -0.82520  -0.79900  -0.78491  -0.77569
 Alpha  occ. eigenvalues --   -0.72126  -0.71269  -0.70558  -0.65367  -0.65122
 Alpha  occ. eigenvalues --   -0.64861  -0.62229  -0.61205  -0.59612  -0.57838
 Alpha  occ. eigenvalues --   -0.55519  -0.55351  -0.53411  -0.52979  -0.52881
 Alpha  occ. eigenvalues --   -0.52636  -0.50189  -0.48891  -0.48881  -0.48187
 Alpha  occ. eigenvalues --   -0.46959  -0.45999  -0.45767  -0.44878  -0.44010
 Alpha  occ. eigenvalues --   -0.37378  -0.36402
 Alpha virt. eigenvalues --    0.04939   0.11018   0.16389   0.20468   0.22905
 Alpha virt. eigenvalues --    0.23785   0.25619   0.26580   0.27486   0.28070
 Alpha virt. eigenvalues --    0.28861   0.29680   0.31506   0.31563   0.31891

 Mulliken charges:
               1
     1  C   -0.305855
     2  C   -0.299890
     3  C   -0.475833
     4  H    0.143180
     5  H    0.162018
     6  H    0.150656
     7  H    0.153626
     8  H    0.156365
     9  H    0.149944
    10  H    0.163279
    11  C   -0.297760
    12  C   -0.299502
    13  C   -0.475546
    14  H    0.150400
    15  H    0.150547
    16  H    0.148861
    17  H    0.142847
    18  H    0.156819
    19  H    0.157810
    20  H    0.158504
    21  C   -0.165487
    22  C   -0.222085
    23  C   -0.173736
    24  C    0.159868
    25  C   -0.170140
    26  C   -0.216143
    27  H    0.227048
    28  H    0.225078
    29  H    0.276097
    30  H    0.276583
    31  H    0.224058
    32  N    0.488326
    33  O   -0.459547
    34  O   -0.460390
 Sum of Mulliken charges =  -0.00000

 Dipole moment (field-independent basis, Debye):
    X=             -3.4825    Y=             -2.7479    Z=              2.6172  Tot=              5.1506
 Quadrupole moment (field-independent basis, Debye-Ang):
   XX=           -111.2222   YY=            -91.9405   ZZ=            -91.2251
   XY=             -3.8128   XZ=              7.3148   YZ=              0.3785

 Normal termination of Gaussian 16 at Thu May  6 17:19:07 2021.
