 Gaussian 16, Revision A.03,
 Gaussian 16:  EM64L-G16RevA.03 25-Dec-2016

 -------------
 #p 6-31g* mp2
 -------------

 ------------------------------------------------------
 Input file generated by CHIRIPA (05-May-2021 14:51:10)
 ------------------------------------------------------
 Symbolic Z-matrix:
 Charge =  0 Multiplicity = 1

                         Standard orientation:
 ---------------------------------------------------------------------
 Center     Atomic      Atomic             Coordinates (Angstroms)
 Number     Number       Type             X           Y           Z
 ---------------------------------------------------------------------
      1          6           0       -2.975933   -0.732969   -0.274070
      2          6           0       -4.240081   -0.918999    0.565756
      3          6           0       -4.512713   -2.384246    0.907103
      4          1           0       -3.070037   -1.315451   -1.200787
      5          1           0       -2.117461   -1.149304    0.270986
      6          1           0       -5.095695   -0.501195    0.019880
      7          1           0       -4.143037   -0.335855    1.490494
      8          1           0       -3.677795   -2.809703    1.473230
      9          1           0       -4.635866   -2.975983   -0.005740
     10          1           0       -5.420952   -2.494238    1.507823
     11          6           0       -2.690003    0.726468   -0.623378
     12          6           0       -1.425855    0.912498   -1.463204
     13          6           0       -1.153223    2.377745   -1.804551
     14          1           0       -3.548475    1.142803   -1.168434
     15          1           0       -2.595899    1.308949    0.303339
     16          1           0       -1.522899    0.329353   -2.387942
     17          1           0       -0.570241    0.494694   -0.917328
     18          1           0       -1.030070    2.969482   -0.891708
     19          1           0       -1.988141    2.803202   -2.370678
     20          1           0       -0.244984    2.487737   -2.405270
     21          6           0        3.088207   -0.716280    0.425056
     22          6           0        3.988785   -1.000960   -0.777400
     23          6           0        4.491471   -2.444560   -0.810855
     24          1           0        3.640870   -0.935107    1.348974
     25          1           0        2.231134   -1.403555    0.403288
     26          1           0        4.843183   -0.312427   -0.754129
     27          1           0        3.433978   -0.781248   -1.698558
     28          1           0        3.650753   -3.144233   -0.858329
     29          1           0        5.067965   -2.672748    0.091466
     30          1           0        5.133377   -2.626140   -1.678522
     31          6           0        2.577729    0.722781    0.472392
     32          6           0        1.677151    1.007461    1.674848
     33          6           0        1.174466    2.451062    1.708303
     34          1           0        3.434802    1.410056    0.494160
     35          1           0        2.025066    0.941608   -0.451526
     36          1           0        2.231958    0.787749    2.596007
     37          1           0        0.822753    0.318928    1.651577
     38          1           0        0.597971    2.679250    0.805981
     39          1           0        2.015182    3.150734    1.755777
     40          1           0        0.532559    2.632642    2.575970
 ---------------------------------------------------------------------

 SCF Done:  E(RHF) =  -470.733031373     A.U. after   11 cycles
 E2 =    -0.1583997827D+01 EUMP2 =    -0.47231702919986D+03

 The electronic state is 1-A.
 Alpha  occ. eigenvalues --  -11.21669 -11.21641 -11.21633 -11.21608 -11.21453
 Alpha  occ. eigenvalues --  -11.21420 -11.21394 -11.21361 -11.21136 -11.21095
 Alpha  occ. eigenvalues --  -11.21073 -11.21066  -1.08501  -1.08432  -1.03619
 Alpha  occ. eigenvalues --   -1.03515  -0.96051  -0.95979  -0.87078  -0.86985
 Alpha  occ. eigenvalues --   -0.79666  -0.79593  -0.78297  -0.78260  -0.65358
 Alpha  occ. eigenvalues --   -0.64887  -0.61289  -0.60643  -0.59411  -0.59347
 Alpha  occ. eigenvalues --   -0.57682  -0.57578  -0.55502  -0.55116  -0.52724
 Alpha  occ. eigenvalues --   -0.52689  -0.52513  -0.52363  -0.50203  -0.49723
 Alpha  occ. eigenvalues --   -0.48034  -0.47852  -0.46753  -0.46535  -0.45947
 Alpha  occ. eigenvalues --   -0.45781  -0.45717  -0.45623  -0.43835  -0.43802
 Alpha virt. eigenvalues --    0.19112   0.23170   0.23369   0.24947   0.25687
 Alpha virt. eigenvalues --    0.26336   0.26439   0.28161   0.28976   0.29176
 Alpha virt. eigenvalues --    0.30316   0.31564   0.31606   0.31752   0.32239

 Mulliken charges:
               1
     1  C   -0.298613
     2  C   -0.299710
     3  C   -0.475767
     4  H    0.149755
     5  H    0.149030
     6  H    0.152093
     7  H    0.152198
     8  H    0.155230
     9  H    0.155188
    10  H    0.160428
    11  C   -0.298360
    12  C   -0.305908
    13  C   -0.479885
    14  H    0.149862
    15  H    0.150513
    16  H    0.152360
    17  H    0.156759
    18  H    0.158649
    19  H    0.156194
    20  H    0.160412
    21  C   -0.298399
    22  C   -0.299674
    23  C   -0.475750
    24  H    0.149772
    25  H    0.149256
    26  H    0.151944
    27  H    0.152161
    28  H    0.155321
    29  H    0.155142
    30  H    0.160297
    31  C   -0.302302
    32  C   -0.299991
    33  C   -0.483317
    34  H    0.149963
    35  H    0.153282
    36  H    0.152381
    37  H    0.151261
    38  H    0.163002
    39  H    0.155573
    40  H    0.159652
 Sum of Mulliken charges =  -0.00000

 Dipole moment (field-independent basis, Debye):
    X=             -0.0127    Y=              0.0139    Z=             -0.0183  Tot=              0.0263
 Quadrupole moment (field-independent basis, Debye-Ang):
   XX=            -84.0181   YY=            -86.7075   ZZ=            -83.9108
   XY=              0.3847   XZ=              1.1073   YZ=              0.3759

 Normal termination of Gaussian 16 at Thu May  6 00:38:35 2021.
