 Gaussian 16, Revision A.03,
 Gaussian 16:  EM64L-G16RevA.03 25-Dec-2016

 -------------
 #p 6-31g* mp2
 -------------

 ------------------------------------------------------
 Input file generated by CHIRIPA (05-May-2021 14:51:13)
 ------------------------------------------------------
 Symbolic Z-matrix:
 Charge =  0 Multiplicity = 1

                         Standard orientation:
 ---------------------------------------------------------------------
 Center     Atomic      Atomic             Coordinates (Angstroms)
 Number     Number       Type             X           Y           Z
 ---------------------------------------------------------------------
      1          6           0        3.316532    0.977262    0.182238
      2          6           0        4.076258    2.224863   -0.269752
      3          6           0        3.295118    3.515382   -0.020406
      4          1           0        2.353065    0.931809   -0.343700
      5          1           0        3.084469    1.065496    1.252638
      6          1           0        4.308028    2.133677   -1.338669
      7          1           0        5.038110    2.267249    0.257182
      8          1           0        3.076384    3.633397    1.045816
      9          1           0        2.342153    3.499065   -0.559102
     10          1           0        3.856641    4.394772   -0.350901
     11          6           0        4.084529   -0.320815   -0.060462
     12          6           0        3.324803   -1.568415    0.391527
     13          6           0        4.105943   -2.858935    0.142182
     14          1           0        4.316591   -0.409049   -1.130863
     15          1           0        5.047995   -0.275361    0.465476
     16          1           0        2.362950   -1.610802   -0.135406
     17          1           0        3.093032   -1.477230    1.460444
     18          1           0        5.058907   -2.842618    0.680878
     19          1           0        4.324677   -2.976950   -0.924040
     20          1           0        3.544420   -3.738324    0.472677
     21          6           0       -3.315049   -0.984700   -0.123142
     22          6           0       -1.801800   -0.791772   -0.227262
     23          6           0       -1.044408   -2.114187   -0.351229
     24          1           0       -3.538449   -1.619630    0.745133
     25          1           0       -3.669940   -1.529956   -1.008661
     26          1           0       -1.450071   -0.245829    0.657525
     27          1           0       -1.581989   -0.157070   -1.095278
     28          1           0       -1.367083   -2.660785   -1.243257
     29          1           0       -1.234416   -2.750048    0.519506
     30          1           0        0.035642   -1.952928   -0.424349
     31          6           0       -4.086011    0.328253    0.001367
     32          6           0       -5.599260    0.135324    0.105487
     33          6           0       -6.356652    1.457741    0.229453
     34          1           0       -3.731121    0.873509    0.886885
     35          1           0       -3.862611    0.963183   -0.866907
     36          1           0       -5.819071   -0.499378    0.973502
     37          1           0       -5.950990   -0.410619   -0.779301
     38          1           0       -6.166645    2.093601   -0.641282
     39          1           0       -6.033977    2.004338    1.121481
     40          1           0       -7.436702    1.296481    0.302574
 ---------------------------------------------------------------------

 SCF Done:  E(RHF) =  -470.733344694     A.U. after   11 cycles
 E2 =    -0.1582512684D+01 EUMP2 =    -0.47231585737720D+03

 The electronic state is 1-A.
 Alpha  occ. eigenvalues --  -11.21603 -11.21601 -11.21601 -11.21600 -11.21406
 Alpha  occ. eigenvalues --  -11.21403 -11.21347 -11.21344 -11.21069 -11.21067
 Alpha  occ. eigenvalues --  -11.21065 -11.21052  -1.08437  -1.08423  -1.03543
 Alpha  occ. eigenvalues --   -1.03514  -0.95986  -0.95967  -0.87014  -0.86974
 Alpha  occ. eigenvalues --   -0.79637  -0.79550  -0.78248  -0.78240  -0.65072
 Alpha  occ. eigenvalues --   -0.65057  -0.60953  -0.60921  -0.59452  -0.59248
 Alpha  occ. eigenvalues --   -0.57640  -0.57535  -0.55265  -0.55259  -0.52738
 Alpha  occ. eigenvalues --   -0.52640  -0.52432  -0.52367  -0.49919  -0.49912
 Alpha  occ. eigenvalues --   -0.48022  -0.47806  -0.46624  -0.46614  -0.45785
 Alpha  occ. eigenvalues --   -0.45777  -0.45710  -0.45705  -0.43802  -0.43721
 Alpha virt. eigenvalues --    0.21493   0.23066   0.23656   0.24577   0.26054
 Alpha virt. eigenvalues --    0.26652   0.27044   0.27498   0.28027   0.28925
 Alpha virt. eigenvalues --    0.30273   0.31417   0.31637   0.31878   0.32027

 Mulliken charges:
               1
     1  C   -0.298590
     2  C   -0.299647
     3  C   -0.475723
     4  H    0.149795
     5  H    0.149477
     6  H    0.151909
     7  H    0.151963
     8  H    0.155141
     9  H    0.155363
    10  H    0.160214
    11  C   -0.297552
    12  C   -0.308369
    13  C   -0.475236
    14  H    0.149404
    15  H    0.149755
    16  H    0.159475
    17  H    0.152042
    18  H    0.155192
    19  H    0.155080
    20  H    0.160716
    21  C   -0.298492
    22  C   -0.298986
    23  C   -0.483794
    24  H    0.149721
    25  H    0.149468
    26  H    0.152584
    27  H    0.151181
    28  H    0.154974
    29  H    0.155436
    30  H    0.167427
    31  C   -0.298241
    32  C   -0.299649
    33  C   -0.475704
    34  H    0.149643
    35  H    0.149545
    36  H    0.151953
    37  H    0.151896
    38  H    0.155162
    39  H    0.155224
    40  H    0.160242
 Sum of Mulliken charges =  -0.00000

 Dipole moment (field-independent basis, Debye):
    X=              0.0085    Y=             -0.0022    Z=              0.0079  Tot=              0.0118
 Quadrupole moment (field-independent basis, Debye-Ang):
   XX=            -85.2939   YY=            -86.5839   ZZ=            -82.8717
   XY=              1.0496   XZ=              0.5875   YZ=             -0.1939

 Normal termination of Gaussian 16 at Thu May  6 05:34:37 2021.
