 Gaussian 16, Revision A.03,
 Gaussian 16:  EM64L-G16RevA.03 25-Dec-2016

 -------------
 #p 6-31g* mp2
 -------------

 ------------------------------------------------------
 Input file generated by CHIRIPA (05-May-2021 14:51:09)
 ------------------------------------------------------
 Symbolic Z-matrix:
 Charge =  0 Multiplicity = 1

                         Standard orientation:
 ---------------------------------------------------------------------
 Center     Atomic      Atomic             Coordinates (Angstroms)
 Number     Number       Type             X           Y           Z
 ---------------------------------------------------------------------
      1          6           0       -3.047597   -0.648836    0.816701
      2          6           0       -1.634245   -1.173317    1.072316
      3          6           0       -1.612227   -2.379708    2.011428
      4          1           0       -3.510105   -0.377397    1.775530
      5          1           0       -3.659676   -1.456523    0.391970
      6          1           0       -1.024637   -0.364488    1.495151
      7          1           0       -1.174979   -1.443360    0.112749
      8          1           0       -2.197026   -3.204901    1.592299
      9          1           0       -2.045830   -2.119899    2.982555
     10          1           0       -0.592096   -2.738373    2.180398
     11          6           0       -3.086025    0.557113   -0.120282
     12          6           0       -4.499377    1.081595   -0.375897
     13          6           0       -4.521395    2.287985   -1.315009
     14          1           0       -2.473946    1.364801    0.304449
     15          1           0       -2.623517    0.285675   -1.079111
     16          1           0       -4.958644    1.351637    0.583670
     17          1           0       -5.108985    0.272766   -0.798732
     18          1           0       -4.087792    2.028177   -2.286136
     19          1           0       -3.936596    3.113178   -0.895880
     20          1           0       -5.541526    2.646651   -1.483979
     21          6           0        3.019898    0.780089   -0.142927
     22          6           0        4.234137    1.267214    0.648475
     23          6           0        4.125519    2.737989    1.051984
     24          1           0        2.903054    1.400741   -1.041862
     25          1           0        2.113717    0.929826    0.460240
     26          1           0        5.137913    1.115326    0.044541
     27          1           0        4.348218    0.645208    1.545532
     28          1           0        3.240761    2.902042    1.675596
     29          1           0        4.034943    3.374831    0.166078
     30          1           0        5.004051    3.065291    1.616707
     31          6           0        3.113724   -0.688366   -0.553492
     32          6           0        1.899485   -1.175492   -1.344894
     33          6           0        2.008103   -2.646266   -1.748402
     34          1           0        4.019905   -0.838103   -1.156659
     35          1           0        3.230568   -1.309019    0.345442
     36          1           0        1.785405   -0.553485   -2.241950
     37          1           0        0.995709   -1.023604   -0.740961
     38          1           0        2.098679   -3.283109   -0.862498
     39          1           0        2.892861   -2.810319   -2.372016
     40          1           0        1.129571   -2.973569   -2.313126
 ---------------------------------------------------------------------

 SCF Done:  E(RHF) =  -470.733272865     A.U. after   11 cycles
 E2 =    -0.1582939480D+01 EUMP2 =    -0.47231621234509D+03

 The electronic state is 1-A.
 Alpha  occ. eigenvalues --  -11.21659 -11.21617 -11.21585 -11.21514 -11.21437
 Alpha  occ. eigenvalues --  -11.21375 -11.21374 -11.21314 -11.21129 -11.21078
 Alpha  occ. eigenvalues --  -11.21064 -11.21057  -1.08471  -1.08395  -1.03578
 Alpha  occ. eigenvalues --   -1.03494  -0.96013  -0.95957  -0.87030  -0.86971
 Alpha  occ. eigenvalues --   -0.79704  -0.79514  -0.78335  -0.78153  -0.65129
 Alpha  occ. eigenvalues --   -0.65006  -0.61056  -0.60833  -0.59412  -0.59292
 Alpha  occ. eigenvalues --   -0.57638  -0.57553  -0.55310  -0.55231  -0.52711
 Alpha  occ. eigenvalues --   -0.52651  -0.52439  -0.52381  -0.49981  -0.49882
 Alpha  occ. eigenvalues --   -0.48124  -0.47799  -0.46826  -0.46475  -0.45994
 Alpha  occ. eigenvalues --   -0.45749  -0.45727  -0.45354  -0.43817  -0.43754
 Alpha virt. eigenvalues --    0.21263   0.23153   0.23633   0.24792   0.25702
 Alpha virt. eigenvalues --    0.26293   0.26996   0.27936   0.28058   0.29045
 Alpha virt. eigenvalues --    0.30661   0.31093   0.31675   0.31790   0.32342

 Mulliken charges:
               1
     1  C   -0.297544
     2  C   -0.306294
     3  C   -0.475445
     4  H    0.149742
     5  H    0.149665
     6  H    0.151367
     7  H    0.158344
     8  H    0.155602
     9  H    0.155432
    10  H    0.159928
    11  C   -0.298576
    12  C   -0.299670
    13  C   -0.475729
    14  H    0.149556
    15  H    0.150011
    16  H    0.151956
    17  H    0.151946
    18  H    0.155291
    19  H    0.155290
    20  H    0.160280
    21  C   -0.298681
    22  C   -0.299649
    23  C   -0.475634
    24  H    0.149656
    25  H    0.149863
    26  H    0.151927
    27  H    0.151838
    28  H    0.154924
    29  H    0.155202
    30  H    0.160194
    31  C   -0.297408
    32  C   -0.308982
    33  C   -0.475364
    34  H    0.149242
    35  H    0.149195
    36  H    0.151358
    37  H    0.161609
    38  H    0.154956
    39  H    0.155240
    40  H    0.159359
 Sum of Mulliken charges =  -0.00000

 Dipole moment (field-independent basis, Debye):
    X=             -0.0386    Y=              0.0000    Z=              0.0060  Tot=              0.0391
 Quadrupole moment (field-independent basis, Debye-Ang):
   XX=            -84.6521   YY=            -86.2120   ZZ=            -83.9725
   XY=              0.3064   XZ=             -0.4573   YZ=              0.4326

 Normal termination of Gaussian 16 at Wed May  5 21:21:51 2021.
