 Gaussian 16, Revision A.03,
 Gaussian 16:  EM64L-G16RevA.03 25-Dec-2016

 -------------
 #p 6-31g* mp2
 -------------

 ------------------------------------------------------
 Input file generated by CHIRIPA (05-May-2021 14:55:20)
 ------------------------------------------------------
 Symbolic Z-matrix:
 Charge =  0 Multiplicity = 1

                         Standard orientation:
 ---------------------------------------------------------------------
 Center     Atomic      Atomic             Coordinates (Angstroms)
 Number     Number       Type             X           Y           Z
 ---------------------------------------------------------------------
      1          6           0       -2.275723    2.333891   -0.623819
      2          6           0       -1.303497    1.330531   -0.556248
      3          6           0       -1.661693    0.014253   -0.250215
      4          6           0       -3.007383   -0.264573   -0.016413
      5          6           0       -3.999274    0.713104   -0.076326
      6          6           0       -3.618142    2.022524   -0.384065
      7          1           0       -1.988558    3.353744   -0.862216
      8          1           0       -0.260197    1.569439   -0.741975
      9          1           0       -0.929533   -0.781923   -0.191365
     10          1           0       -5.031291    0.444351    0.113758
     11          1           0       -4.375335    2.799713   -0.435856
     12          7           0       -3.398731   -1.654428    0.308474
     13          8           0       -4.591036   -1.874242    0.510282
     14          8           0       -2.505753   -2.497665    0.355161
     15          6           0        3.946592    0.785374    0.029086
     16          6           0        2.919921    1.713753    0.678734
     17          6           0        3.293363    3.190789    0.549511
     18          1           0        4.929721    0.957991    0.488002
     19          1           0        4.047170    1.047521   -1.033250
     20          1           0        2.820292    1.449028    1.739211
     21          1           0        1.939083    1.538768    0.218350
     22          1           0        3.373436    3.477147   -0.504144
     23          1           0        4.259652    3.386896    1.025359
     24          1           0        2.545865    3.836591    1.020729
     25          6           0        3.587193   -0.694471    0.150007
     26          6           0        4.613864   -1.622851   -0.499642
     27          6           0        4.240421   -3.099887   -0.370419
     28          1           0        3.486615   -0.956618    1.212343
     29          1           0        2.604064   -0.867089   -0.308910
     30          1           0        5.594701   -1.447867   -0.039257
     31          1           0        4.713492   -1.358125   -1.560118
     32          1           0        3.274133   -3.295995   -0.846265
     33          1           0        4.160349   -3.386245    0.683236
     34          1           0        4.987919   -3.745689   -0.841636
 ---------------------------------------------------------------------

 SCF Done:  E(RHF) =  -669.535466705     A.U. after   15 cycles
 E2 =    -0.2091224282D+01 EUMP2 =    -0.67162669098687D+03

 The electronic state is 1-A.
 Alpha  occ. eigenvalues --  -20.60744 -20.60739 -15.85798 -11.31165 -11.27738
 Alpha  occ. eigenvalues --  -11.27732 -11.27479 -11.26753 -11.26729 -11.22449
 Alpha  occ. eigenvalues --  -11.22000 -11.21925 -11.21860 -11.21838 -11.21204
 Alpha  occ. eigenvalues --   -1.59820  -1.39373  -1.19339  -1.08995  -1.08733
 Alpha  occ. eigenvalues --   -1.04744  -1.04055  -0.96480  -0.95568  -0.87496
 Alpha  occ. eigenvalues --   -0.86143  -0.82404  -0.80145  -0.78785  -0.77446
 Alpha  occ. eigenvalues --   -0.72016  -0.71143  -0.70447  -0.65667  -0.64991
 Alpha  occ. eigenvalues --   -0.64747  -0.62129  -0.61424  -0.59873  -0.58087
 Alpha  occ. eigenvalues --   -0.55761  -0.55246  -0.53183  -0.53070  -0.52933
 Alpha  occ. eigenvalues --   -0.52813  -0.50419  -0.48783  -0.48771  -0.48427
 Alpha  occ. eigenvalues --   -0.47181  -0.46323  -0.46227  -0.44779  -0.44310
 Alpha  occ. eigenvalues --   -0.37320  -0.36342
 Alpha virt. eigenvalues --    0.05086   0.11286   0.16539   0.19148   0.22856
 Alpha virt. eigenvalues --    0.23627   0.24742   0.26580   0.27236   0.28140
 Alpha virt. eigenvalues --    0.29456   0.29951   0.31241   0.31296   0.32048

 Mulliken charges:
               1
     1  C   -0.172075
     2  C   -0.223580
     3  C   -0.173422
     4  C    0.158567
     5  C   -0.170919
     6  C   -0.218574
     7  H    0.226025
     8  H    0.231760
     9  H    0.275959
    10  H    0.275546
    11  H    0.223322
    12  N    0.488102
    13  O   -0.460598
    14  O   -0.460361
    15  C   -0.298480
    16  C   -0.303778
    17  C   -0.476421
    18  H    0.153075
    19  H    0.149262
    20  H    0.157314
    21  H    0.142389
    22  H    0.154280
    23  H    0.159806
    24  H    0.159319
    25  C   -0.297558
    26  C   -0.300279
    27  C   -0.476412
    28  H    0.152982
    29  H    0.143689
    30  H    0.153015
    31  H    0.151830
    32  H    0.157394
    33  H    0.157242
    34  H    0.161581
 Sum of Mulliken charges =  -0.00000

 Dipole moment (field-independent basis, Debye):
    X=              1.5482    Y=              4.8556    Z=             -1.0859  Tot=              5.2109
 Quadrupole moment (field-independent basis, Debye-Ang):
   XX=            -97.4673   YY=            -98.5291   ZZ=            -94.7413
   XY=            -17.1021   XZ=              3.7336   YZ=              0.3393

 Normal termination of Gaussian 16 at Wed May  5 18:55:25 2021.
