 Gaussian 16, Revision A.03,
 Gaussian 16:  EM64L-G16RevA.03 25-Dec-2016

 -------------
 #p 6-31g* mp2
 -------------

 ------------------------------------------------------
 Input file generated by CHIRIPA (05-May-2021 14:57:26)
 ------------------------------------------------------
 Symbolic Z-matrix:
 Charge =  0 Multiplicity = 1

                         Standard orientation:
 ---------------------------------------------------------------------
 Center     Atomic      Atomic             Coordinates (Angstroms)
 Number     Number       Type             X           Y           Z
 ---------------------------------------------------------------------
      1          6           0       -5.886016    1.391068   -0.688696
      2          6           0       -6.068532    0.546824    0.411513
      3          6           0       -5.028116   -0.273933    0.856979
      4          6           0       -3.812900   -0.224881    0.175704
      5          6           0       -3.600153    0.605573   -0.923557
      6          6           0       -4.654580    1.417701   -1.351552
      7          1           0       -6.699679    2.025300   -1.027959
      8          1           0       -7.023800    0.524058    0.928224
      9          1           0       -5.142146   -0.936948    1.705994
     10          1           0       -2.636497    0.606324   -1.418315
     11          1           0       -4.509978    2.072363   -2.206275
     12          7           0       -2.704042   -1.089212    0.638050
     13          8           0       -1.643058   -1.027470    0.020686
     14          8           0       -2.916899   -1.812050    1.609046
     15          6           0        3.175302   -2.145422   -0.953685
     16          6           0        4.502835   -2.001129   -0.537326
     17          6           0        4.968280   -0.771405   -0.062259
     18          6           0        4.074962    0.297809   -0.016925
     19          6           0        2.746609    0.185583   -0.424566
     20          6           0        2.302963   -1.053530   -0.896077
     21          1           0        2.822201   -3.104349   -1.321347
     22          1           0        5.182542   -2.847380   -0.580950
     23          1           0        5.990983   -0.631871    0.266413
     24          1           0        2.092613    1.047358   -0.369326
     25          1           0        1.271456   -1.162674   -1.218762
     26          7           0        4.556168    1.604633    0.484126
     27          8           0        3.749255    2.531255    0.514142
     28          8           0        5.731139    1.677556    0.837344
 ---------------------------------------------------------------------

 SCF Done:  E(RHF) =  -868.339609622     A.U. after   16 cycles
 E2 =    -0.2598268027D+01 EUMP2 =    -0.87093787764820D+03

 The electronic state is 1-A.
 Alpha  occ. eigenvalues --  -20.61504 -20.61444 -20.60145 -20.60140 -15.86527
 Alpha  occ. eigenvalues --  -15.85189 -11.31679 -11.30373 -11.28248 -11.28201
 Alpha  occ. eigenvalues --  -11.27910 -11.27190 -11.27171 -11.26937 -11.26844
 Alpha  occ. eigenvalues --  -11.26572 -11.25943 -11.25716  -1.60537  -1.59223
 Alpha  occ. eigenvalues --   -1.40103  -1.38782  -1.19827  -1.18505  -1.09257
 Alpha  occ. eigenvalues --   -1.07933  -1.05202  -1.03863  -0.96131  -0.94807
 Alpha  occ. eigenvalues --   -0.86609  -0.85271  -0.82979  -0.81633  -0.78051
 Alpha  occ. eigenvalues --   -0.76708  -0.72764  -0.71843  -0.71415  -0.70935
 Alpha  occ. eigenvalues --   -0.70541  -0.69621  -0.65488  -0.65201  -0.64150
 Alpha  occ. eigenvalues --   -0.63833  -0.62557  -0.61205  -0.55702  -0.54377
 Alpha  occ. eigenvalues --   -0.53536  -0.53292  -0.52220  -0.51931  -0.49518
 Alpha  occ. eigenvalues --   -0.49468  -0.48179  -0.48151  -0.45554  -0.44228
 Alpha  occ. eigenvalues --   -0.37787  -0.36794  -0.36479  -0.35455
 Alpha virt. eigenvalues --    0.04482   0.05793   0.10864   0.12195   0.16023
 Alpha virt. eigenvalues --    0.17347   0.20944   0.22343   0.26859   0.27442
 Alpha virt. eigenvalues --    0.28578   0.29149   0.30593   0.31641   0.32456

 Mulliken charges:
               1
     1  C   -0.169972
     2  C   -0.218306
     3  C   -0.170296
     4  C    0.158329
     5  C   -0.169889
     6  C   -0.218050
     7  H    0.227674
     8  H    0.225295
     9  H    0.276590
    10  H    0.271391
    11  H    0.225128
    12  N    0.493224
    13  O   -0.473956
    14  O   -0.455814
    15  C   -0.171736
    16  C   -0.218492
    17  C   -0.172916
    18  C    0.158101
    19  C   -0.172114
    20  C   -0.218413
    21  H    0.225420
    22  H    0.220453
    23  H    0.272553
    24  H    0.273264
    25  H    0.239876
    26  N    0.488277
    27  O   -0.462789
    28  O   -0.462831
 Sum of Mulliken charges =  -0.00000

 Dipole moment (field-independent basis, Debye):
    X=             -6.0877    Y=             -1.6133    Z=             -3.3870  Tot=              7.1509
 Quadrupole moment (field-independent basis, Debye-Ang):
   XX=            -83.6156   YY=           -108.7594   ZZ=           -103.6873
   XY=            -31.4980   XZ=             -3.4122   YZ=             -1.5459

 Normal termination of Gaussian 16 at Fri May  7 06:36:50 2021.
