 Gaussian 16, Revision A.03,
 Gaussian 16:  EM64L-G16RevA.03 25-Dec-2016

 -------------
 #p 6-31g* mp2
 -------------

 ------------------------------------------------------
 Input file generated by CHIRIPA (05-May-2021 14:55:21)
 ------------------------------------------------------
 Symbolic Z-matrix:
 Charge =  0 Multiplicity = 1

                         Standard orientation:
 ---------------------------------------------------------------------
 Center     Atomic      Atomic             Coordinates (Angstroms)
 Number     Number       Type             X           Y           Z
 ---------------------------------------------------------------------
      1          6           0       -5.109061   -0.176625   -0.637786
      2          6           0       -4.105902   -0.474229   -1.566024
      3          6           0       -2.768976   -0.554995   -1.165207
      4          6           0       -2.469520   -0.331412    0.177784
      5          6           0       -3.446430   -0.032981    1.126402
      6          6           0       -4.776709    0.042663    0.703100
      7          1           0       -6.145035   -0.115873   -0.957884
      8          1           0       -4.361081   -0.645003   -2.608024
      9          1           0       -1.972457   -0.783696   -1.862825
     10          1           0       -3.161187    0.132283    2.158265
     11          1           0       -5.553689    0.273964    1.426182
     12          7           0       -1.057695   -0.414204    0.614013
     13          8           0       -0.819935   -0.213030    1.802977
     14          8           0       -0.215600   -0.678703   -0.241296
     15          6           0        3.849398   -0.147451   -0.487324
     16          6           0        4.317922   -1.253530    0.458752
     17          6           0        5.097842   -2.354984   -0.259802
     18          1           0        3.222922   -0.588276   -1.274817
     19          1           0        4.723021    0.289292   -0.990745
     20          1           0        3.443799   -1.687121    0.961270
     21          1           0        4.943199   -0.809993    1.244194
     22          1           0        5.987127   -1.942209   -0.747030
     23          1           0        4.479208   -2.824321   -1.031563
     24          1           0        5.423185   -3.135328    0.435233
     25          6           0        3.068249    0.960935    0.216249
     26          6           0        2.599726    2.067014   -0.729826
     27          6           0        1.819806    3.168468   -0.011273
     28          1           0        2.194626    0.524193    0.719670
     29          1           0        3.694726    1.401760    1.003742
     30          1           0        1.974449    1.623477   -1.515269
     31          1           0        3.473849    2.500605   -1.232345
     32          1           0        2.438440    3.637805    0.760488
     33          1           0        0.930521    2.755694    0.475955
     34          1           0        1.494463    3.948812   -0.706308
 ---------------------------------------------------------------------

 SCF Done:  E(RHF) =  -669.537096869     A.U. after   15 cycles
 E2 =    -0.2092125494D+01 EUMP2 =    -0.67162922236304D+03

 The electronic state is 1-A.
 Alpha  occ. eigenvalues --  -20.61200 -20.61194 -15.86191 -11.31427 -11.27975
 Alpha  occ. eigenvalues --  -11.27970 -11.27696 -11.26960 -11.26950 -11.20236
 Alpha  occ. eigenvalues --  -11.20229 -11.20000 -11.19966 -11.19878 -11.19540
 Alpha  occ. eigenvalues --   -1.60234  -1.39791  -1.19582  -1.09005  -1.06922
 Alpha  occ. eigenvalues --   -1.04964  -1.02225  -0.95860  -0.94675  -0.86369
 Alpha  occ. eigenvalues --   -0.85708  -0.82695  -0.78282  -0.77763  -0.76714
 Alpha  occ. eigenvalues --   -0.72403  -0.71538  -0.70690  -0.65239  -0.64969
 Alpha  occ. eigenvalues --   -0.63511  -0.62310  -0.59618  -0.58065  -0.56302
 Alpha  occ. eigenvalues --   -0.55474  -0.53957  -0.53299  -0.53053  -0.51457
 Alpha  occ. eigenvalues --   -0.51131  -0.49243  -0.49166  -0.48571  -0.46615
 Alpha  occ. eigenvalues --   -0.45296  -0.45190  -0.44293  -0.44029  -0.42409
 Alpha  occ. eigenvalues --   -0.37555  -0.36559
 Alpha virt. eigenvalues --    0.04742   0.11098   0.16249   0.21222   0.24339
 Alpha virt. eigenvalues --    0.25461   0.27165   0.27859   0.28379   0.28875
 Alpha virt. eigenvalues --    0.29349   0.30852   0.32336   0.32532   0.32944

 Mulliken charges:
               1
     1  C   -0.170203
     2  C   -0.218570
     3  C   -0.170408
     4  C    0.158898
     5  C   -0.170483
     6  C   -0.218600
     7  H    0.226547
     8  H    0.224344
     9  H    0.275878
    10  H    0.276210
    11  H    0.224356
    12  N    0.488766
    13  O   -0.458864
    14  O   -0.460150
    15  C   -0.296223
    16  C   -0.300497
    17  C   -0.474920
    18  H    0.153067
    19  H    0.140979
    20  H    0.161089
    21  H    0.147459
    22  H    0.151155
    23  H    0.153967
    24  H    0.156315
    25  C   -0.306290
    26  C   -0.297885
    27  C   -0.475342
    28  H    0.179203
    29  H    0.140551
    30  H    0.153145
    31  H    0.144375
    32  H    0.152578
    33  H    0.157162
    34  H    0.152388
 Sum of Mulliken charges =  -0.00000

 Dipole moment (field-independent basis, Debye):
    X=             -5.4564    Y=              0.1156    Z=             -1.4420  Tot=              5.6449
 Quadrupole moment (field-independent basis, Debye-Ang):
   XX=            -71.3777   YY=            -97.0389   ZZ=            -91.1214
   XY=              1.2937   XZ=              2.1406   YZ=              1.6233

 Normal termination of Gaussian 16 at Thu May  6 02:59:41 2021.
