 Gaussian 16, Revision A.03,
 Gaussian 16:  EM64L-G16RevA.03 25-Dec-2016

 -------------
 #p 6-31g* mp2
 -------------

 ------------------------------------------------------
 Input file generated by CHIRIPA (05-May-2021 14:57:22)
 ------------------------------------------------------
 Symbolic Z-matrix:
 Charge =  0 Multiplicity = 1

                         Standard orientation:
 ---------------------------------------------------------------------
 Center     Atomic      Atomic             Coordinates (Angstroms)
 Number     Number       Type             X           Y           Z
 ---------------------------------------------------------------------
      1          6           0       -2.024180    2.639962    0.142775
      2          6           0       -3.399241    2.409682    0.255468
      3          6           0       -3.921056    1.125116    0.076173
      4          6           0       -3.035033    0.089338   -0.216086
      5          6           0       -1.660205    0.286929   -0.334815
      6          6           0       -1.160573    1.579720   -0.151488
      7          1           0       -1.627438    3.641038    0.283621
      8          1           0       -4.072296    3.231178    0.483911
      9          1           0       -4.981329    0.918745    0.157724
     10          1           0       -1.014210   -0.552023   -0.563438
     11          1           0       -0.092237    1.755613   -0.239603
     12          7           0       -3.575713   -1.274928   -0.408031
     13          8           0       -2.774070   -2.170528   -0.664752
     14          8           0       -4.790904   -1.422808   -0.298123
     15          6           0        4.569520    1.349614   -0.796173
     16          6           0        4.539757    0.035407   -1.274183
     17          6           0        3.644313   -0.894928   -0.738267
     18          6           0        2.788959   -0.475035    0.279253
     19          6           0        2.794605    0.827179    0.776745
     20          6           0        3.698386    1.740617    0.225964
     21          1           0        5.268360    2.065758   -1.218260
     22          1           0        5.215128   -0.271055   -2.067908
     23          1           0        3.600088   -1.918665   -1.089586
     24          1           0        2.109104    1.103119    1.568807
     25          1           0        3.719280    2.760585    0.599156
     26          7           0        1.836580   -1.450995    0.854474
     27          8           0        1.093361   -1.056115    1.750202
     28          8           0        1.851359   -2.592353    0.398708
 ---------------------------------------------------------------------

 SCF Done:  E(RHF) =  -868.336715623     A.U. after   16 cycles
 E2 =    -0.2601479344D+01 EUMP2 =    -0.87093819496749D+03

 The electronic state is 1-A.
 Alpha  occ. eigenvalues --  -20.61338 -20.61308 -20.60072 -20.60024 -15.86364
 Alpha  occ. eigenvalues --  -15.85108 -11.31905 -11.30588 -11.28508 -11.28402
 Alpha  occ. eigenvalues --  -11.28178 -11.27538 -11.27436 -11.27233 -11.27173
 Alpha  occ. eigenvalues --  -11.27063 -11.26288 -11.26267  -1.60405  -1.59124
 Alpha  occ. eigenvalues --   -1.39946  -1.38672  -1.20074  -1.18804  -1.09426
 Alpha  occ. eigenvalues --   -1.08197  -1.05486  -1.04233  -0.96232  -0.95002
 Alpha  occ. eigenvalues --   -0.86866  -0.85640  -0.83049  -0.81837  -0.78091
 Alpha  occ. eigenvalues --   -0.76845  -0.72553  -0.71792  -0.71323  -0.71134
 Alpha  occ. eigenvalues --   -0.70445  -0.69944  -0.65701  -0.65462  -0.64472
 Alpha  occ. eigenvalues --   -0.64285  -0.62813  -0.61578  -0.55936  -0.54800
 Alpha  occ. eigenvalues --   -0.53833  -0.53553  -0.52544  -0.52328  -0.49337
 Alpha  occ. eigenvalues --   -0.49312  -0.48109  -0.48067  -0.45296  -0.44050
 Alpha  occ. eigenvalues --   -0.38045  -0.37102  -0.36823  -0.35798
 Alpha virt. eigenvalues --    0.04382   0.05726   0.10450   0.11821   0.15873
 Alpha virt. eigenvalues --    0.17135   0.20632   0.21793   0.26355   0.27204
 Alpha virt. eigenvalues --    0.28099   0.28583   0.30491   0.30971   0.32076

 Mulliken charges:
               1
     1  C   -0.171877
     2  C   -0.218952
     3  C   -0.170664
     4  C    0.156687
     5  C   -0.160900
     6  C   -0.220173
     7  H    0.220120
     8  H    0.220744
     9  H    0.274525
    10  H    0.278685
    11  H    0.216934
    12  N    0.487847
    13  O   -0.454161
    14  O   -0.464050
    15  C   -0.170599
    16  C   -0.217533
    17  C   -0.170287
    18  C    0.155311
    19  C   -0.180157
    20  C   -0.220221
    21  H    0.227959
    22  H    0.226998
    23  H    0.279841
    24  H    0.276242
    25  H    0.223759
    26  N    0.484061
    27  O   -0.458870
    28  O   -0.451273
 Sum of Mulliken charges =  -0.00000

 Dipole moment (field-independent basis, Debye):
    X=              5.5353    Y=              7.8943    Z=             -1.3731  Tot=              9.7388
 Quadrupole moment (field-independent basis, Debye-Ang):
   XX=            -92.9179   YY=           -105.1285   ZZ=           -105.4525
   XY=             -9.5201   XZ=             -9.7850   YZ=              3.8159

 Normal termination of Gaussian 16 at Thu May  6 01:47:47 2021.
