 Gaussian 16, Revision A.03,
 Gaussian 16:  EM64L-G16RevA.03 25-Dec-2016

 -------------
 #p 6-31g* mp2
 -------------

 ------------------------------------------------------
 Input file generated by CHIRIPA (05-May-2021 14:57:24)
 ------------------------------------------------------
 Symbolic Z-matrix:
 Charge =  0 Multiplicity = 1

                         Standard orientation:
 ---------------------------------------------------------------------
 Center     Atomic      Atomic             Coordinates (Angstroms)
 Number     Number       Type             X           Y           Z
 ---------------------------------------------------------------------
      1          6           0       -5.158762    0.599076   -0.004356
      2          6           0       -4.546654    0.079119   -1.149558
      3          6           0       -3.276744   -0.500772   -1.074716
      4          6           0       -2.644815   -0.544150    0.167087
      5          6           0       -3.228522   -0.034714    1.325988
      6          6           0       -4.498906    0.540604    1.227590
      7          1           0       -6.145444    1.047773   -0.071644
      8          1           0       -5.056749    0.123153   -2.107634
      9          1           0       -2.779794   -0.910903   -1.945493
     10          1           0       -2.695180   -0.093111    2.267027
     11          1           0       -4.971858    0.943613    2.118626
     12          7           0       -1.300167   -1.155633    0.258787
     13          8           0       -0.764421   -1.181607    1.364653
     14          8           0       -0.807438   -1.597362   -0.776940
     15          6           0        4.343824   -1.563771    0.241237
     16          6           0        3.445912   -1.554865   -0.831235
     17          6           0        2.622473   -0.448167   -1.058652
     18          6           0        2.723600    0.637413   -0.189987
     19          6           0        3.608197    0.658597    0.887199
     20          6           0        4.421964   -0.458959    1.095525
     21          1           0        4.979734   -2.427698    0.410485
     22          1           0        3.383075   -2.411472   -1.496306
     23          1           0        1.918502   -0.414750   -1.881286
     24          1           0        3.648153    1.527291    1.533103
     25          1           0        5.118368   -0.463096    1.929220
     26          7           0        1.856983    1.814772   -0.420639
     27          8           0        1.965227    2.758687    0.359069
     28          8           0        1.085894    1.771377   -1.376764
 ---------------------------------------------------------------------

 SCF Done:  E(RHF) =  -868.339776047     A.U. after   16 cycles
 E2 =    -0.2599363656D+01 EUMP2 =    -0.87093913970292D+03

 The electronic state is 1-A.
 Alpha  occ. eigenvalues --  -20.60712 -20.60702 -20.59881 -20.59874 -15.85739
 Alpha  occ. eigenvalues --  -15.84922 -11.30867 -11.29943 -11.27429 -11.27422
 Alpha  occ. eigenvalues --  -11.27160 -11.26599 -11.26445 -11.26412 -11.26401
 Alpha  occ. eigenvalues --  -11.26311 -11.25566 -11.25443  -1.59764  -1.58959
 Alpha  occ. eigenvalues --   -1.39328  -1.38521  -1.19026  -1.18123  -1.08473
 Alpha  occ. eigenvalues --   -1.07608  -1.04409  -1.03491  -0.95350  -0.94488
 Alpha  occ. eigenvalues --   -0.85823  -0.84930  -0.82201  -0.81341  -0.77263
 Alpha  occ. eigenvalues --   -0.76402  -0.71992  -0.71179  -0.71064  -0.70238
 Alpha  occ. eigenvalues --   -0.70165  -0.69295  -0.64702  -0.64433  -0.63813
 Alpha  occ. eigenvalues --   -0.63544  -0.61770  -0.60860  -0.54946  -0.54089
 Alpha  occ. eigenvalues --   -0.52731  -0.52517  -0.51818  -0.51624  -0.48734
 Alpha  occ. eigenvalues --   -0.48706  -0.47919  -0.47891  -0.44794  -0.43996
 Alpha  occ. eigenvalues --   -0.36997  -0.36112  -0.35989  -0.35021
 Alpha virt. eigenvalues --    0.05257   0.06136   0.11669   0.12607   0.16790
 Alpha virt. eigenvalues --    0.17659   0.21737   0.22565   0.27654   0.28417
 Alpha virt. eigenvalues --    0.28650   0.29454   0.31277   0.32055   0.32820

 Mulliken charges:
               1
     1  C   -0.169668
     2  C   -0.218145
     3  C   -0.166434
     4  C    0.161252
     5  C   -0.168987
     6  C   -0.218158
     7  H    0.225096
     8  H    0.222933
     9  H    0.274335
    10  H    0.274758
    11  H    0.222912
    12  N    0.490197
    13  O   -0.461452
    14  O   -0.466782
    15  C   -0.169217
    16  C   -0.216371
    17  C   -0.154250
    18  C    0.157305
    19  C   -0.169351
    20  C   -0.218820
    21  H    0.221461
    22  H    0.221865
    23  H    0.278576
    24  H    0.270842
    25  H    0.218412
    26  N    0.488035
    27  O   -0.465369
    28  O   -0.464972
 Sum of Mulliken charges =  -0.00000

 Dipole moment (field-independent basis, Debye):
    X=             -1.9150    Y=             -2.1009    Z=              0.4228  Tot=              2.8740
 Quadrupole moment (field-independent basis, Debye-Ang):
   XX=            -64.1609   YY=           -113.0393   ZZ=            -97.6085
   XY=            -12.2001   XZ=              3.5493   YZ=              5.1140

 Normal termination of Gaussian 16 at Wed May  5 17:53:55 2021.
