 Gaussian 16, Revision A.03,
 Gaussian 16:  EM64L-G16RevA.03 25-Dec-2016

 -------------
 #p 6-31g* mp2
 -------------

 ------------------------------------------------------
 Input file generated by CHIRIPA (05-May-2021 14:53:12)
 ------------------------------------------------------
 Symbolic Z-matrix:
 Charge =  0 Multiplicity = 1

                         Standard orientation:
 ---------------------------------------------------------------------
 Center     Atomic      Atomic             Coordinates (Angstroms)
 Number     Number       Type             X           Y           Z
 ---------------------------------------------------------------------
      1          6           0        2.862206   -0.825527   -0.467310
      2          6           0        2.015327   -1.750002    0.407977
      3          6           0        0.720778   -2.189873   -0.276458
      4          1           0        2.269025    0.059207   -0.736248
      5          1           0        3.100497   -1.340005   -1.408545
      6          1           0        1.779867   -1.234450    1.347860
      7          1           0        2.610657   -2.632547    0.675021
      8          1           0        0.939270   -2.727301   -1.204916
      9          1           0        0.103760   -1.321260   -0.528254
     10          1           0        0.130793   -2.850078    0.366898
     11          6           0        4.159603   -0.377241    0.203159
     12          6           0        5.006483    0.547234   -0.672128
     13          6           0        6.301031    0.987105    0.012308
     14          1           0        3.921312    0.137237    1.144395
     15          1           0        4.752784   -1.261975    0.472097
     16          1           0        4.411152    1.429779   -0.939172
     17          1           0        5.241942    0.031682   -1.612011
     18          1           0        6.918049    0.118492    0.264103
     19          1           0        6.082539    1.524533    0.940765
     20          1           0        6.891017    1.647309   -0.631049
     21          6           0       -4.223123   -1.545736   -0.231984
     22          6           0       -3.127410   -1.618244    0.634432
     23          6           0       -2.300449   -0.507708    0.827808
     24          6           0       -2.599791    0.664689    0.135587
     25          6           0       -3.684105    0.768221   -0.734375
     26          6           0       -4.497490   -0.354834   -0.912423
     27          1           0       -4.860252   -2.413289   -0.376249
     28          1           0       -2.911930   -2.541807    1.164191
     29          1           0       -1.445680   -0.536232    1.492619
     30          1           0       -3.873584    1.702643   -1.248546
     31          1           0       -5.347754   -0.295629   -1.585915
     32          7           0       -1.731511    1.846991    0.332191
     33          8           0       -2.016611    2.868250   -0.289409
     34          8           0       -0.782295    1.730032    1.104166
 ---------------------------------------------------------------------

 SCF Done:  E(RHF) =  -669.535061502     A.U. after   15 cycles
 E2 =    -0.2092464615D+01 EUMP2 =    -0.67162752611701D+03

 The electronic state is 1-A.
 Alpha  occ. eigenvalues --  -20.60849 -20.60844 -15.85895 -11.31198 -11.27779
 Alpha  occ. eigenvalues --  -11.27756 -11.27513 -11.26768 -11.26749 -11.21474
 Alpha  occ. eigenvalues --  -11.21170 -11.21168 -11.21041 -11.20958 -11.20675
 Alpha  occ. eigenvalues --   -1.59921  -1.39476  -1.19384  -1.08784  -1.08111
 Alpha  occ. eigenvalues --   -1.04780  -1.03293  -0.95781  -0.95608  -0.86791
 Alpha  occ. eigenvalues --   -0.86173  -0.82458  -0.79361  -0.77902  -0.77511
 Alpha  occ. eigenvalues --   -0.72113  -0.71246  -0.70498  -0.65033  -0.64838
 Alpha  occ. eigenvalues --   -0.64670  -0.62156  -0.60665  -0.59155  -0.57366
 Alpha  occ. eigenvalues --   -0.55321  -0.55048  -0.53157  -0.52857  -0.52451
 Alpha  occ. eigenvalues --   -0.52164  -0.49663  -0.48872  -0.48866  -0.47680
 Alpha  occ. eigenvalues --   -0.46367  -0.45462  -0.45343  -0.44871  -0.43535
 Alpha  occ. eigenvalues --   -0.37359  -0.36300
 Alpha virt. eigenvalues --    0.05011   0.11211   0.16470   0.20608   0.23151
 Alpha virt. eigenvalues --    0.24243   0.26724   0.26840   0.27712   0.28231
 Alpha virt. eigenvalues --    0.29106   0.29687   0.31542   0.31781   0.32398

 Mulliken charges:
               1
     1  C   -0.299610
     2  C   -0.300365
     3  C   -0.479067
     4  H    0.158433
     5  H    0.146838
     6  H    0.155143
     7  H    0.150004
     8  H    0.155943
     9  H    0.160392
    10  H    0.148053
    11  C   -0.298801
    12  C   -0.300345
    13  C   -0.475793
    14  H    0.153864
    15  H    0.146743
    16  H    0.156378
    17  H    0.149786
    18  H    0.153242
    19  H    0.156768
    20  H    0.159703
    21  C   -0.170618
    22  C   -0.217444
    23  C   -0.169709
    24  C    0.157195
    25  C   -0.170795
    26  C   -0.218834
    27  H    0.225770
    28  H    0.223585
    29  H    0.278238
    30  H    0.275516
    31  H    0.223417
    32  N    0.488343
    33  O   -0.459860
    34  O   -0.462112
 Sum of Mulliken charges =  -0.00000

 Dipole moment (field-independent basis, Debye):
    X=             -3.0927    Y=             -4.0485    Z=             -0.6968  Tot=              5.1420
 Quadrupole moment (field-independent basis, Debye-Ang):
   XX=            -78.4994   YY=            -99.2956   ZZ=            -93.4302
   XY=              6.8346   XZ=              3.0776   YZ=             -2.7736

 Normal termination of Gaussian 16 at Thu May  6 08:53:53 2021.
