 Gaussian 16, Revision A.03,
 Gaussian 16:  EM64L-G16RevA.03 25-Dec-2016

 -------------
 #p 6-31g* mp2
 -------------

 ------------------------------------------------------
 Input file generated by CHIRIPA (05-May-2021 14:55:21)
 ------------------------------------------------------
 Symbolic Z-matrix:
 Charge =  0 Multiplicity = 1

                         Standard orientation:
 ---------------------------------------------------------------------
 Center     Atomic      Atomic             Coordinates (Angstroms)
 Number     Number       Type             X           Y           Z
 ---------------------------------------------------------------------
      1          6           0       -3.956256    1.853849   -1.094567
      2          6           0       -3.537236    2.150996    0.206451
      3          6           0       -2.840858    1.202999    0.962036
      4          6           0       -2.579333   -0.037692    0.382743
      5          6           0       -2.983628   -0.363717   -0.910912
      6          6           0       -3.678605    0.599652   -1.648120
      7          1           0       -4.496675    2.596246   -1.674385
      8          1           0       -3.751466    3.124198    0.638916
      9          1           0       -2.504831    1.406595    1.971517
     10          1           0       -2.755351   -1.342524   -1.314947
     11          1           0       -4.002803    0.366112   -2.658268
     12          7           0       -1.842851   -1.049431    1.172919
     13          8           0       -1.624877   -2.135162    0.639709
     14          8           0       -1.497516   -0.737544    2.310508
     15          6           0        3.979340    0.126179    0.151766
     16          6           0        4.636821    1.400866   -0.378212
     17          6           0        5.679667    1.971807    0.583189
     18          1           0        3.508441    0.339844    1.121068
     19          1           0        4.756324   -0.627382    0.341077
     20          1           0        3.858687    2.151325   -0.567775
     21          1           0        5.106045    1.184189   -1.346455
     22          1           0        6.476473    1.243169    0.764261
     23          1           0        5.222028    2.215801    1.547365
     24          1           0        6.137077    2.882702    0.184561
     25          6           0        2.934489   -0.456558   -0.798198
     26          6           0        2.277008   -1.731245   -0.268219
     27          6           0        1.234162   -2.302186   -1.229621
     28          1           0        2.157505    0.297002   -0.987509
     29          1           0        3.405388   -0.670223   -1.767500
     30          1           0        1.807784   -1.514568    0.700024
     31          1           0        3.055143   -2.481705   -0.078656
     32          1           0        1.691801   -2.546180   -2.193797
     33          1           0        0.437356   -1.573548   -1.410691
     34          1           0        0.776752   -3.213081   -0.830992
 ---------------------------------------------------------------------

 SCF Done:  E(RHF) =  -669.535865066     A.U. after   15 cycles
 E2 =    -0.2091936028D+01 EUMP2 =    -0.67162780109420D+03

 The electronic state is 1-A.
 Alpha  occ. eigenvalues --  -20.60938 -20.60902 -15.85946 -11.31291 -11.27850
 Alpha  occ. eigenvalues --  -11.27843 -11.27587 -11.26862 -11.26850 -11.21228
 Alpha  occ. eigenvalues --  -11.20848 -11.20755 -11.20751 -11.20627 -11.19996
 Alpha  occ. eigenvalues --   -1.59982  -1.39537  -1.19457  -1.08858  -1.07819
 Alpha  occ. eigenvalues --   -1.04853  -1.02861  -0.95704  -0.95309  -0.86342
 Alpha  occ. eigenvalues --   -0.86252  -0.82528  -0.78952  -0.77634  -0.77553
 Alpha  occ. eigenvalues --   -0.72175  -0.71308  -0.70561  -0.65112  -0.64854
 Alpha  occ. eigenvalues --   -0.64454  -0.62199  -0.60260  -0.58698  -0.56899
 Alpha  occ. eigenvalues --   -0.55356  -0.54627  -0.53185  -0.52943  -0.51975
 Alpha  occ. eigenvalues --   -0.51753  -0.49340  -0.48930  -0.48904  -0.47256
 Alpha  occ. eigenvalues --   -0.46030  -0.45179  -0.45097  -0.44788  -0.43103
 Alpha  occ. eigenvalues --   -0.37435  -0.36453
 Alpha virt. eigenvalues --    0.04926   0.11141   0.16405   0.21279   0.23396
 Alpha virt. eigenvalues --    0.24841   0.26893   0.27309   0.27910   0.28096
 Alpha virt. eigenvalues --    0.28879   0.30767   0.31637   0.32291   0.32769

 Mulliken charges:
               1
     1  C   -0.170626
     2  C   -0.218474
     3  C   -0.171041
     4  C    0.158022
     5  C   -0.171850
     6  C   -0.218555
     7  H    0.226042
     8  H    0.223821
     9  H    0.275715
    10  H    0.277171
    11  H    0.224109
    12  N    0.488490
    13  O   -0.457619
    14  O   -0.460503
    15  C   -0.298302
    16  C   -0.298805
    17  C   -0.475373
    18  H    0.151922
    19  H    0.149318
    20  H    0.149477
    21  H    0.150560
    22  H    0.155264
    23  H    0.155307
    24  H    0.158116
    25  C   -0.297123
    26  C   -0.303593
    27  C   -0.469444
    28  H    0.144764
    29  H    0.146548
    30  H    0.162976
    31  H    0.149612
    32  H    0.144530
    33  H    0.145670
    34  H    0.173874
 Sum of Mulliken charges =  -0.00000

 Dipole moment (field-independent basis, Debye):
    X=             -2.8036    Y=              3.4620    Z=             -2.6474  Tot=              5.1821
 Quadrupole moment (field-independent basis, Debye-Ang):
   XX=            -82.6652   YY=            -93.1053   ZZ=            -94.6497
   XY=            -10.0923   XZ=              6.1977   YZ=              4.0380

 Normal termination of Gaussian 16 at Thu May  6 20:45:12 2021.
