 Gaussian 16, Revision A.03,
 Gaussian 16:  EM64L-G16RevA.03 25-Dec-2016

 -------------
 #p 6-31g* mp2
 -------------

 ------------------------------------------------------
 Input file generated by CHIRIPA (05-May-2021 14:51:08)
 ------------------------------------------------------
 Symbolic Z-matrix:
 Charge =  0 Multiplicity = 1

                         Standard orientation:
 ---------------------------------------------------------------------
 Center     Atomic      Atomic             Coordinates (Angstroms)
 Number     Number       Type             X           Y           Z
 ---------------------------------------------------------------------
      1          6           0       -2.888124    0.876081   -0.040820
      2          6           0       -3.546026    2.255697   -0.083357
      3          6           0       -2.542833    3.394923    0.099842
      4          1           0       -2.365349    0.755581    0.917893
      5          1           0       -2.120307    0.819374   -0.824808
      6          1           0       -4.313328    2.309300    0.699579
      7          1           0       -4.067456    2.372852   -1.042003
      8          1           0       -1.783253    3.369803   -0.688198
      9          1           0       -2.030521    3.305890    1.063279
     10          1           0       -3.034522    4.372145    0.066087
     11          6           0       -3.878155   -0.273071   -0.222523
     12          6           0       -3.220253   -1.652687   -0.179986
     13          6           0       -4.223445   -2.791913   -0.363186
     14          1           0       -4.645971   -0.216364    0.561465
     15          1           0       -4.400930   -0.152571   -1.181237
     16          1           0       -2.698822   -1.769843    0.778659
     17          1           0       -2.452950   -1.706291   -0.962923
     18          1           0       -4.735757   -2.702881   -1.326623
     19          1           0       -4.983026   -2.766794    0.424855
     20          1           0       -3.731757   -3.769135   -0.329430
     21          6           0        4.092148   -0.127522    0.356323
     22          6           0        5.060245    0.091291   -0.806818
     23          6           0        6.474650    0.438590   -0.341375
     24          1           0        4.063406    0.778789    0.976581
     25          1           0        4.476322   -0.932991    0.997436
     26          1           0        4.673656    0.895168   -1.446306
     27          1           0        5.086540   -0.815577   -1.424486
     28          1           0        6.884291   -0.365112    0.278995
     29          1           0        6.469061    1.355354    0.257051
     30          1           0        7.150169    0.590814   -1.188937
     31          6           0        2.674130   -0.475488   -0.092979
     32          6           0        1.706034   -0.694300    1.070161
     33          6           0        0.291629   -1.041599    0.604718
     34          1           0        2.289956    0.329981   -0.734093
     35          1           0        2.702871   -1.381798   -0.713238
     36          1           0        1.679739    0.212568    1.687830
     37          1           0        2.092622   -1.498178    1.709650
     38          1           0        0.297217   -1.958363    0.006293
     39          1           0       -0.118013   -0.237898   -0.015651
     40          1           0       -0.383891   -1.193823    1.452281
 ---------------------------------------------------------------------

 SCF Done:  E(RHF) =  -470.731305774     A.U. after   11 cycles
 E2 =    -0.1584336309D+01 EUMP2 =    -0.47231564208341D+03

 The electronic state is 1-A.
 Alpha  occ. eigenvalues --  -11.21580 -11.21576 -11.21500 -11.21454 -11.21367
 Alpha  occ. eigenvalues --  -11.21344 -11.21307 -11.21285 -11.21086 -11.21054
 Alpha  occ. eigenvalues --  -11.20992 -11.20878  -1.08423  -1.08349  -1.03505
 Alpha  occ. eigenvalues --   -1.03449  -0.95976  -0.95895  -0.86978  -0.86942
 Alpha  occ. eigenvalues --   -0.79683  -0.79491  -0.78309  -0.78017  -0.65035
 Alpha  occ. eigenvalues --   -0.65014  -0.60892  -0.60884  -0.59417  -0.59196
 Alpha  occ. eigenvalues --   -0.57621  -0.57504  -0.55241  -0.55202  -0.52820
 Alpha  occ. eigenvalues --   -0.52535  -0.52376  -0.52313  -0.49904  -0.49869
 Alpha  occ. eigenvalues --   -0.47922  -0.47855  -0.46637  -0.46564  -0.45916
 Alpha  occ. eigenvalues --   -0.45700  -0.45653  -0.45300  -0.43758  -0.43593
 Alpha virt. eigenvalues --    0.21949   0.23117   0.24099   0.24303   0.25395
 Alpha virt. eigenvalues --    0.26250   0.26726   0.27788   0.27944   0.29817
 Alpha virt. eigenvalues --    0.30489   0.30614   0.31638   0.32003   0.32182

 Mulliken charges:
               1
     1  C   -0.301209
     2  C   -0.298869
     3  C   -0.475808
     4  H    0.152884
     5  H    0.150018
     6  H    0.151744
     7  H    0.151671
     8  H    0.154379
     9  H    0.154964
    10  H    0.160418
    11  C   -0.298100
    12  C   -0.301754
    13  C   -0.475420
    14  H    0.148792
    15  H    0.148913
    16  H    0.155550
    17  H    0.153980
    18  H    0.154531
    19  H    0.154471
    20  H    0.159799
    21  C   -0.298130
    22  C   -0.299570
    23  C   -0.475669
    24  H    0.149612
    25  H    0.149449
    26  H    0.151792
    27  H    0.151808
    28  H    0.155139
    29  H    0.155170
    30  H    0.160144
    31  C   -0.298467
    32  C   -0.301148
    33  C   -0.477318
    34  H    0.149044
    35  H    0.149309
    36  H    0.151124
    37  H    0.150999
    38  H    0.154061
    39  H    0.162338
    40  H    0.159361
 Sum of Mulliken charges =  -0.00000

 Dipole moment (field-independent basis, Debye):
    X=             -0.0202    Y=              0.0012    Z=             -0.0007  Tot=              0.0203
 Quadrupole moment (field-independent basis, Debye-Ang):
   XX=            -86.5414   YY=            -84.8394   ZZ=            -83.8268
   XY=             -1.0763   XZ=             -0.4715   YZ=             -0.1941

 Normal termination of Gaussian 16 at Thu May  6 05:18:04 2021.
