 Gaussian 16, Revision A.03,
 Gaussian 16:  EM64L-G16RevA.03 25-Dec-2016

 -------------
 #p 6-31g* mp2
 -------------

 ------------------------------------------------------
 Input file generated by CHIRIPA (05-May-2021 14:57:26)
 ------------------------------------------------------
 Symbolic Z-matrix:
 Charge =  0 Multiplicity = 1

                         Standard orientation:
 ---------------------------------------------------------------------
 Center     Atomic      Atomic             Coordinates (Angstroms)
 Number     Number       Type             X           Y           Z
 ---------------------------------------------------------------------
      1          6           0       -5.850760    0.994587    0.737444
      2          6           0       -4.625431    1.182700    1.385288
      3          6           0       -3.485997    0.490735    0.964072
      4          6           0       -3.608435   -0.385526   -0.113177
      5          6           0       -4.815164   -0.594425   -0.779103
      6          6           0       -5.941556    0.108188   -0.340783
      7          1           0       -6.730834    1.536258    1.071298
      8          1           0       -4.551960    1.870454    2.222929
      9          1           0       -2.524948    0.617416    1.447555
     10          1           0       -4.857240   -1.286717   -1.611196
     11          1           0       -6.891859   -0.039890   -0.845800
     12          7           0       -2.409071   -1.123714   -0.568153
     13          8           0       -2.543249   -1.890040   -1.519666
     14          8           0       -1.357541   -0.922003    0.035365
     15          6           0        2.561255    2.352655   -0.635025
     16          6           0        3.933464    2.244712   -0.883845
     17          6           0        4.633392    1.092017   -0.515142
     18          6           0        3.926452    0.061927    0.103275
     19          6           0        2.559363    0.139532    0.364683
     20          6           0        1.879785    1.301573   -0.012653
     21          1           0        2.025438    3.251726   -0.924796
     22          1           0        4.465289    3.059413   -1.367033
     23          1           0        5.695778    0.982033   -0.695856
     24          1           0        2.056477   -0.689294    0.847975
     25          1           0        0.814117    1.382634    0.181833
     26          7           0        4.656663   -1.163327    0.498174
     27          8           0        4.010831   -2.056745    1.041629
     28          8           0        5.861007   -1.207062    0.256764
 ---------------------------------------------------------------------

 SCF Done:  E(RHF) =  -868.339010998     A.U. after   16 cycles
 E2 =    -0.2598892546D+01 EUMP2 =    -0.87093790354366D+03

 The electronic state is 1-A.
 Alpha  occ. eigenvalues --  -20.61566 -20.61499 -20.59982 -20.59959 -15.86575
 Alpha  occ. eigenvalues --  -15.85022 -11.31814 -11.30305 -11.28405 -11.28328
 Alpha  occ. eigenvalues --  -11.28058 -11.27358 -11.27316 -11.26941 -11.26750
 Alpha  occ. eigenvalues --  -11.26678 -11.25978 -11.25792  -1.60587  -1.59050
 Alpha  occ. eigenvalues --   -1.40152  -1.38604  -1.19967  -1.18486  -1.09379
 Alpha  occ. eigenvalues --   -1.07920  -1.05353  -1.03855  -0.96238  -0.94756
 Alpha  occ. eigenvalues --   -0.86756  -0.85280  -0.83082  -0.81570  -0.78151
 Alpha  occ. eigenvalues --   -0.76610  -0.72800  -0.71897  -0.71245  -0.71071
 Alpha  occ. eigenvalues --   -0.70371  -0.69626  -0.65624  -0.65349  -0.64139
 Alpha  occ. eigenvalues --   -0.63866  -0.62707  -0.61180  -0.55843  -0.54435
 Alpha  occ. eigenvalues --   -0.53685  -0.53442  -0.52224  -0.51946  -0.49558
 Alpha  occ. eigenvalues --   -0.49517  -0.48007  -0.47991  -0.45575  -0.44025
 Alpha  occ. eigenvalues --   -0.37930  -0.36951  -0.36517  -0.35449
 Alpha virt. eigenvalues --    0.04360   0.05894   0.10700   0.12183   0.15869
 Alpha virt. eigenvalues --    0.17384   0.20585   0.22208   0.26096   0.27157
 Alpha virt. eigenvalues --    0.28666   0.29092   0.30378   0.31280   0.32787

 Mulliken charges:
               1
     1  C   -0.170288
     2  C   -0.218228
     3  C   -0.172071
     4  C    0.158735
     5  C   -0.170380
     6  C   -0.218262
     7  H    0.227662
     8  H    0.224552
     9  H    0.270982
    10  H    0.277447
    11  H    0.225729
    12  N    0.490710
    13  O   -0.453358
    14  O   -0.470775
    15  C   -0.171913
    16  C   -0.219053
    17  C   -0.172158
    18  C    0.157381
    19  C   -0.169227
    20  C   -0.219066
    21  H    0.220657
    22  H    0.219521
    23  H    0.272787
    24  H    0.285114
    25  H    0.228143
    26  N    0.488021
    27  O   -0.458504
    28  O   -0.464162
 Sum of Mulliken charges =  -0.00000

 Dipole moment (field-independent basis, Debye):
    X=             -7.2849    Y=              6.7415    Z=              0.1941  Tot=              9.9275
 Quadrupole moment (field-independent basis, Debye-Ang):
   XX=            -89.9826   YY=           -105.9865   ZZ=           -103.3629
   XY=             11.9058   XZ=            -10.3900   YZ=              0.7087

 Normal termination of Gaussian 16 at Thu May  6 03:34:47 2021.
