 Gaussian 16, Revision A.03,
 Gaussian 16:  EM64L-G16RevA.03 25-Dec-2016

 -------------
 #p 6-31g* mp2
 -------------

 ------------------------------------------------------
 Input file generated by CHIRIPA (05-May-2021 14:53:18)
 ------------------------------------------------------
 Symbolic Z-matrix:
 Charge =  0 Multiplicity = 1

                         Standard orientation:
 ---------------------------------------------------------------------
 Center     Atomic      Atomic             Coordinates (Angstroms)
 Number     Number       Type             X           Y           Z
 ---------------------------------------------------------------------
      1          6           0        5.074417    0.295430    0.333406
      2          6           0        6.004787    0.926323   -0.703112
      3          6           0        7.087470    1.801369   -0.070748
      4          1           0        4.604244    1.091172    0.927272
      5          1           0        5.670856   -0.306044    1.033323
      6          1           0        5.406608    1.525311   -1.401690
      7          1           0        6.472653    0.128994   -1.294706
      8          1           0        7.708797    1.212520    0.611755
      9          1           0        6.636694    2.616770    0.504163
     10          1           0        7.741257    2.242370   -0.829655
     11          6           0        3.986753   -0.582226   -0.283390
     12          6           0        3.056383   -1.213118    0.753129
     13          6           0        1.973700   -2.088165    0.120764
     14          1           0        3.390314    0.019249   -0.983307
     15          1           0        4.456926   -1.377968   -0.877256
     16          1           0        2.588517   -0.415789    1.344723
     17          1           0        3.654562   -1.812106    1.451707
     18          1           0        2.424476   -2.903566   -0.454147
     19          1           0        1.352373   -1.499315   -0.561739
     20          1           0        1.319912   -2.529165    0.879672
     21          6           0       -4.880745    2.247377    0.066046
     22          6           0       -5.516950    1.031535   -0.205045
     23          6           0       -4.783789   -0.157807   -0.254917
     24          6           0       -3.409855   -0.094408   -0.027811
     25          6           0       -2.747179    1.101376    0.244679
     26          6           0       -3.500324    2.278363    0.289649
     27          1           0       -5.458044    3.166488    0.102884
     28          1           0       -6.588873    1.004463   -0.379097
     29          1           0       -5.250897   -1.112829   -0.462673
     30          1           0       -1.677256    1.096663    0.413969
     31          1           0       -3.003574    3.221161    0.500403
     32          7           0       -2.623112   -1.346972   -0.078014
     33          8           0       -1.413838   -1.264353    0.125623
     34          8           0       -3.230633   -2.387632   -0.320050
 ---------------------------------------------------------------------

 SCF Done:  E(RHF) =  -669.535475017     A.U. after   15 cycles
 E2 =    -0.2090919515D+01 EUMP2 =    -0.67162639453110D+03

 The electronic state is 1-A.
 Alpha  occ. eigenvalues --  -20.60874 -20.60862 -15.85911 -11.31268 -11.27839
 Alpha  occ. eigenvalues --  -11.27832 -11.27578 -11.26851 -11.26841 -11.21229
 Alpha  occ. eigenvalues --  -11.20884 -11.20794 -11.20676 -11.20584 -11.19452
 Alpha  occ. eigenvalues --   -1.59941  -1.39496  -1.19441  -1.08838  -1.07785
 Alpha  occ. eigenvalues --   -1.04842  -1.02765  -0.95682  -0.95168  -0.86247
 Alpha  occ. eigenvalues --   -0.86176  -0.82508  -0.78866  -0.77594  -0.77523
 Alpha  occ. eigenvalues --   -0.72138  -0.71259  -0.70550  -0.65098  -0.64845
 Alpha  occ. eigenvalues --   -0.64428  -0.62190  -0.60166  -0.58618  -0.56779
 Alpha  occ. eigenvalues --   -0.55345  -0.54464  -0.53172  -0.52935  -0.51816
 Alpha  occ. eigenvalues --   -0.51604  -0.49205  -0.48890  -0.48795  -0.47159
 Alpha  occ. eigenvalues --   -0.45929  -0.45110  -0.45047  -0.44833  -0.42999
 Alpha  occ. eigenvalues --   -0.37421  -0.36446
 Alpha virt. eigenvalues --    0.04960   0.11209   0.16441   0.21305   0.23423
 Alpha virt. eigenvalues --    0.25056   0.27127   0.27329   0.28077   0.28115
 Alpha virt. eigenvalues --    0.29023   0.30894   0.32003   0.32364   0.32677

 Mulliken charges:
               1
     1  C   -0.297158
     2  C   -0.298940
     3  C   -0.475182
     4  H    0.146701
     5  H    0.148899
     6  H    0.150300
     7  H    0.151961
     8  H    0.155019
     9  H    0.153579
    10  H    0.158851
    11  C   -0.297235
    12  C   -0.300462
    13  C   -0.472287
    14  H    0.147116
    15  H    0.148939
    16  H    0.147161
    17  H    0.147697
    18  H    0.147159
    19  H    0.165344
    20  H    0.169714
    21  C   -0.170717
    22  C   -0.218542
    23  C   -0.170698
    24  C    0.157741
    25  C   -0.170857
    26  C   -0.218483
    27  H    0.225887
    28  H    0.223734
    29  H    0.275858
    30  H    0.275247
    31  H    0.223658
    32  N    0.492642
    33  O   -0.463237
    34  O   -0.459411
 Sum of Mulliken charges =  -0.00000

 Dipole moment (field-independent basis, Debye):
    X=             -3.0771    Y=              4.3433    Z=              0.1640  Tot=              5.3253
 Quadrupole moment (field-independent basis, Debye-Ang):
   XX=            -73.9620   YY=            -94.4781   ZZ=            -95.6523
   XY=            -13.7181   XZ=              0.2040   YZ=              0.2212

 Normal termination of Gaussian 16 at Wed May  5 23:39:01 2021.
