 Gaussian 16, Revision A.03,
 Gaussian 16:  EM64L-G16RevA.03 25-Dec-2016

 -------------
 #p 6-31g* mp2
 -------------

 ------------------------------------------------------
 Input file generated by CHIRIPA (05-May-2021 14:51:11)
 ------------------------------------------------------
 Symbolic Z-matrix:
 Charge =  0 Multiplicity = 1

                         Standard orientation:
 ---------------------------------------------------------------------
 Center     Atomic      Atomic             Coordinates (Angstroms)
 Number     Number       Type             X           Y           Z
 ---------------------------------------------------------------------
      1          6           0        1.511563   -0.740944    0.580007
      2          6           0        1.251579   -1.993409    1.417698
      3          6           0       -0.123377   -1.982441    2.086405
      4          1           0        1.421152    0.146562    1.221181
      5          1           0        0.730201   -0.652950   -0.187538
      6          1           0        2.033982   -2.079765    2.182554
      7          1           0        1.342808   -2.878048    0.774497
      8          1           0       -0.916886   -1.920616    1.334659
      9          1           0       -0.221786   -1.117797    2.750716
     10          1           0       -0.288266   -2.886952    2.680147
     11          6           0        2.882066   -0.737204   -0.094852
     12          6           0        3.142050    0.515260   -0.932543
     13          6           0        4.517006    0.504292   -1.601250
     14          1           0        3.663428   -0.825198    0.672693
     15          1           0        2.972477   -1.624711   -0.736026
     16          1           0        3.050821    1.399899   -0.289342
     17          1           0        2.359647    0.601616   -1.697399
     18          1           0        4.615415   -0.360351   -2.265561
     19          1           0        5.310515    0.442468   -0.849504
     20          1           0        4.681895    1.408804   -2.194993
     21          6           0       -2.324662    0.298890   -0.853581
     22          6           0       -3.328877   -0.824193   -0.592385
     23          6           0       -3.574164   -1.696178   -1.824159
     24          1           0       -2.689818    0.923749   -1.680114
     25          1           0       -1.374381   -0.139081   -1.189054
     26          1           0       -4.276550   -0.384309   -0.256177
     27          1           0       -2.961381   -1.446337    0.233749
     28          1           0       -2.641441   -2.161937   -2.158369
     29          1           0       -3.964082   -1.093874   -2.651079
     30          1           0       -4.295174   -2.492610   -1.615114
     31          6           0       -2.068967    1.179258    0.368425
     32          6           0       -1.064752    2.302341    0.107229
     33          6           0       -0.819465    3.174327    1.339005
     34          1           0       -3.019248    1.617229    0.703899
     35          1           0       -1.703810    0.554400    1.194959
     36          1           0       -1.432248    2.924486   -0.718905
     37          1           0       -0.117080    1.862458   -0.228978
     38          1           0       -0.429547    2.572023    2.165924
     39          1           0       -1.752189    3.640085    1.673215
     40          1           0       -0.098455    3.970758    1.129959
 ---------------------------------------------------------------------

 SCF Done:  E(RHF) =  -470.731607294     A.U. after   11 cycles
 E2 =    -0.1586740941D+01 EUMP2 =    -0.47231834823448D+03

 The electronic state is 1-A.
 Alpha  occ. eigenvalues --  -11.21700 -11.21674 -11.21590 -11.21485 -11.21439
 Alpha  occ. eigenvalues --  -11.21425 -11.21349 -11.21214 -11.21164 -11.21121
 Alpha  occ. eigenvalues --  -11.21087 -11.21020  -1.08572  -1.08332  -1.03621
 Alpha  occ. eigenvalues --   -1.03482  -0.96077  -0.95937  -0.87096  -0.86954
 Alpha  occ. eigenvalues --   -0.79700  -0.79551  -0.78412  -0.78148  -0.65342
 Alpha  occ. eigenvalues --   -0.64878  -0.61145  -0.60777  -0.59435  -0.59299
 Alpha  occ. eigenvalues --   -0.57735  -0.57514  -0.55452  -0.55169  -0.52765
 Alpha  occ. eigenvalues --   -0.52684  -0.52485  -0.52360  -0.50080  -0.49867
 Alpha  occ. eigenvalues --   -0.48062  -0.47891  -0.46797  -0.46534  -0.46336
 Alpha  occ. eigenvalues --   -0.45835  -0.45445  -0.45091  -0.43868  -0.43718
 Alpha virt. eigenvalues --    0.20006   0.22335   0.23023   0.24089   0.25234
 Alpha virt. eigenvalues --    0.25900   0.26689   0.28594   0.29070   0.29653
 Alpha virt. eigenvalues --    0.30314   0.31245   0.31652   0.32096   0.32517

 Mulliken charges:
               1
     1  C   -0.308735
     2  C   -0.298696
     3  C   -0.484738
     4  H    0.152088
     5  H    0.157381
     6  H    0.152365
     7  H    0.151967
     8  H    0.163014
     9  H    0.155607
    10  H    0.161217
    11  C   -0.297549
    12  C   -0.301494
    13  C   -0.475757
    14  H    0.149833
    15  H    0.149649
    16  H    0.152864
    17  H    0.152467
    18  H    0.155344
    19  H    0.155416
    20  H    0.160683
    21  C   -0.303176
    22  C   -0.305612
    23  C   -0.475322
    24  H    0.150157
    25  H    0.151769
    26  H    0.152774
    27  H    0.156326
    28  H    0.154182
    29  H    0.155466
    30  H    0.160397
    31  C   -0.304113
    32  C   -0.304833
    33  C   -0.476183
    34  H    0.148968
    35  H    0.157598
    36  H    0.150812
    37  H    0.159050
    38  H    0.153983
    39  H    0.155096
    40  H    0.159735
 Sum of Mulliken charges =  -0.00000

 Dipole moment (field-independent basis, Debye):
    X=              0.0464    Y=             -0.0417    Z=              0.0119  Tot=              0.0635
 Quadrupole moment (field-independent basis, Debye-Ang):
   XX=            -84.9950   YY=            -84.8331   ZZ=            -84.9888
   XY=             -0.5574   XZ=              0.7941   YZ=             -0.3476

 Normal termination of Gaussian 16 at Thu May  6 05:26:41 2021.
