 Gaussian 16, Revision A.03,
 Gaussian 16:  EM64L-G16RevA.03 25-Dec-2016

 -------------
 #p 6-31g* mp2
 -------------

 ------------------------------------------------------
 Input file generated by CHIRIPA (05-May-2021 14:51:12)
 ------------------------------------------------------
 Symbolic Z-matrix:
 Charge =  0 Multiplicity = 1

                         Standard orientation:
 ---------------------------------------------------------------------
 Center     Atomic      Atomic             Coordinates (Angstroms)
 Number     Number       Type             X           Y           Z
 ---------------------------------------------------------------------
      1          6           0       -2.734652    0.676852   -0.288943
      2          6           0       -3.658407    1.521203    0.589541
      3          6           0       -3.674458    2.995498    0.184582
      4          1           0       -1.715712    1.084185   -0.236171
      5          1           0       -3.053364    0.766820   -1.336666
      6          1           0       -3.338895    1.428570    1.635461
      7          1           0       -4.675229    1.111697    0.534823
      8          1           0       -4.014266    3.107104   -0.850153
      9          1           0       -2.670340    3.425777    0.256739
     10          1           0       -4.341179    3.580673    0.825607
     11          6           0       -2.707885   -0.799282    0.103536
     12          6           0       -1.784130   -1.643633   -0.774948
     13          6           0       -1.768079   -3.117927   -0.369989
     14          1           0       -2.389174   -0.889250    1.151259
     15          1           0       -3.726826   -1.206615    0.050764
     16          1           0       -0.767308   -1.234127   -0.720230
     17          1           0       -2.103642   -1.551000   -1.820868
     18          1           0       -2.772198   -3.548207   -0.442146
     19          1           0       -1.428271   -3.229533    0.664746
     20          1           0       -1.101358   -3.703103   -1.011014
     21          6           0        2.515480   -0.516909    0.547519
     22          6           0        2.310035   -1.834078   -0.201374
     23          6           0        1.898620   -2.981173    0.722047
     24          1           0        3.281410   -0.658574    1.322263
     25          1           0        1.586453   -0.252138    1.071159
     26          1           0        3.238744   -2.095578   -0.724571
     27          1           0        1.544642   -1.689211   -0.974552
     28          1           0        0.960090   -2.745737    1.234232
     29          1           0        2.663816   -3.154413    1.485633
     30          1           0        1.757111   -3.913176    0.165984
     31          6           0        2.927057    0.639338   -0.362112
     32          6           0        3.132502    1.956509    0.386781
     33          6           0        3.543918    3.103602   -0.536640
     34          1           0        3.856084    0.374568   -0.885752
     35          1           0        2.161127    0.781003   -1.136856
     36          1           0        3.897894    1.811641    1.159959
     37          1           0        2.203794    2.218007    0.909978
     38          1           0        2.778722    3.276842   -1.300226
     39          1           0        4.482447    2.868167   -1.048825
     40          1           0        3.685426    4.035606    0.019423
 ---------------------------------------------------------------------

 SCF Done:  E(RHF) =  -470.732518113     A.U. after   11 cycles
 E2 =    -0.1584263792D+01 EUMP2 =    -0.47231678190444D+03

 The electronic state is 1-A.
 Alpha  occ. eigenvalues --  -11.21641 -11.21636 -11.21617 -11.21592 -11.21455
 Alpha  occ. eigenvalues --  -11.21443 -11.21395 -11.21384 -11.21104 -11.21093
 Alpha  occ. eigenvalues --  -11.21049 -11.21033  -1.08505  -1.08431  -1.03632
 Alpha  occ. eigenvalues --   -1.03479  -0.96080  -0.95924  -0.87100  -0.86935
 Alpha  occ. eigenvalues --   -0.79724  -0.79523  -0.78330  -0.78233  -0.65382
 Alpha  occ. eigenvalues --   -0.64881  -0.61377  -0.60563  -0.59467  -0.59260
 Alpha  occ. eigenvalues --   -0.57704  -0.57511  -0.55599  -0.54962  -0.52778
 Alpha  occ. eigenvalues --   -0.52597  -0.52493  -0.52348  -0.50248  -0.49667
 Alpha  occ. eigenvalues --   -0.48088  -0.47795  -0.46971  -0.46388  -0.45985
 Alpha  occ. eigenvalues --   -0.45806  -0.45728  -0.45482  -0.43861  -0.43752
 Alpha virt. eigenvalues --    0.19532   0.22872   0.23506   0.25354   0.25639
 Alpha virt. eigenvalues --    0.26270   0.26677   0.27884   0.29115   0.29514
 Alpha virt. eigenvalues --    0.29628   0.30896   0.31068   0.32175   0.32774

 Mulliken charges:
               1
     1  C   -0.298366
     2  C   -0.299687
     3  C   -0.475731
     4  H    0.148739
     5  H    0.149772
     6  H    0.151959
     7  H    0.152201
     8  H    0.155273
     9  H    0.155069
    10  H    0.160467
    11  C   -0.297655
    12  C   -0.307840
    13  C   -0.475847
    14  H    0.148834
    15  H    0.150071
    16  H    0.158443
    17  H    0.152012
    18  H    0.154780
    19  H    0.156754
    20  H    0.161022
    21  C   -0.299380
    22  C   -0.304672
    23  C   -0.476596
    24  H    0.150174
    25  H    0.148778
    26  H    0.152539
    27  H    0.155930
    28  H    0.157773
    29  H    0.154446
    30  H    0.160582
    31  C   -0.298538
    32  C   -0.299539
    33  C   -0.475783
    34  H    0.149923
    35  H    0.149596
    36  H    0.152112
    37  H    0.151348
    38  H    0.155364
    39  H    0.155325
    40  H    0.160348
 Sum of Mulliken charges =  -0.00000

 Dipole moment (field-independent basis, Debye):
    X=             -0.0003    Y=             -0.0176    Z=             -0.0085  Tot=              0.0195
 Quadrupole moment (field-independent basis, Debye-Ang):
   XX=            -83.2801   YY=            -86.6924   ZZ=            -84.6834
   XY=             -0.2372   XZ=              0.7696   YZ=              0.7706

 Normal termination of Gaussian 16 at Wed May  5 15:17:49 2021.
