 Gaussian 16, Revision A.03,
 Gaussian 16:  EM64L-G16RevA.03 25-Dec-2016

 -------------
 #p 6-31g* mp2
 -------------

 ------------------------------------------------------
 Input file generated by CHIRIPA (05-May-2021 14:57:22)
 ------------------------------------------------------
 Symbolic Z-matrix:
 Charge =  0 Multiplicity = 1

                         Standard orientation:
 ---------------------------------------------------------------------
 Center     Atomic      Atomic             Coordinates (Angstroms)
 Number     Number       Type             X           Y           Z
 ---------------------------------------------------------------------
      1          6           0        1.844904    2.124292    0.937346
      2          6           0        1.630956    0.930531    1.634254
      3          6           0        2.303508   -0.237940    1.264259
      4          6           0        3.186912   -0.176414    0.187643
      5          6           0        3.421380    0.997634   -0.526449
      6          6           0        2.737859    2.153982   -0.138884
      7          1           0        1.318189    3.027280    1.231592
      8          1           0        0.938055    0.904519    2.470470
      9          1           0        2.156676   -1.175635    1.786358
     10          1           0        4.118208    0.992429   -1.355800
     11          1           0        2.905985    3.079655   -0.681937
     12          7           0        3.904719   -1.407004   -0.213355
     13          8           0        4.677841   -1.326514   -1.165427
     14          8           0        3.680623   -2.428731    0.432008
     15          6           0       -1.017489    1.294217   -0.897777
     16          6           0       -0.965433   -0.102901   -0.854510
     17          6           0       -2.095774   -0.844850   -0.498996
     18          6           0       -3.266904   -0.154076   -0.191468
     19          6           0       -3.350315    1.237031   -0.225481
     20          6           0       -2.207667    1.958553   -0.583678
     21          1           0       -0.134633    1.862647   -1.174991
     22          1           0       -0.042483   -0.621504   -1.097942
     23          1           0       -2.083309   -1.927227   -0.457474
     24          1           0       -4.284658    1.725853    0.022464
     25          1           0       -2.251011    3.043492   -0.616439
     26          7           0       -4.470060   -0.928731    0.186319
     27          8           0       -5.489755   -0.296394    0.452794
     28          8           0       -4.370617   -2.153575    0.208800
 ---------------------------------------------------------------------

 SCF Done:  E(RHF) =  -868.336162075     A.U. after   16 cycles
 E2 =    -0.2603506763D+01 EUMP2 =    -0.87093966883849D+03

 The electronic state is 1-A.
 Alpha  occ. eigenvalues --  -20.61655 -20.61649 -20.60987 -20.60975 -15.86716
 Alpha  occ. eigenvalues --  -15.86041 -11.32272 -11.31439 -11.28866 -11.28769
 Alpha  occ. eigenvalues --  -11.28558 -11.28067 -11.27980 -11.27900 -11.27752
 Alpha  occ. eigenvalues --  -11.27697 -11.27086 -11.26941  -1.60734  -1.60061
 Alpha  occ. eigenvalues --   -1.40278  -1.39613  -1.20466  -1.19628  -1.09827
 Alpha  occ. eigenvalues --   -1.09002  -1.05847  -1.05035  -0.96619  -0.95831
 Alpha  occ. eigenvalues --   -0.87227  -0.86427  -0.83412  -0.82665  -0.78433
 Alpha  occ. eigenvalues --   -0.77711  -0.72914  -0.72255  -0.72079  -0.71534
 Alpha  occ. eigenvalues --   -0.71391  -0.70734  -0.66070  -0.65797  -0.65269
 Alpha  occ. eigenvalues --   -0.65048  -0.63149  -0.62383  -0.56330  -0.55689
 Alpha  occ. eigenvalues --   -0.54266  -0.53891  -0.53238  -0.53046  -0.49693
 Alpha  occ. eigenvalues --   -0.49666  -0.49019  -0.49008  -0.45639  -0.45011
 Alpha  occ. eigenvalues --   -0.38772  -0.37802  -0.37084  -0.36454
 Alpha virt. eigenvalues --    0.03909   0.04941   0.10017   0.10980   0.15313
 Alpha virt. eigenvalues --    0.16559   0.20220   0.21435   0.26303   0.26656
 Alpha virt. eigenvalues --    0.27294   0.28597   0.29926   0.30833   0.31762

 Mulliken charges:
               1
     1  C   -0.176854
     2  C   -0.209990
     3  C   -0.175173
     4  C    0.154717
     5  C   -0.172537
     6  C   -0.227085
     7  H    0.227651
     8  H    0.230422
     9  H    0.279940
    10  H    0.278917
    11  H    0.225634
    12  N    0.487221
    13  O   -0.457762
    14  O   -0.457080
    15  C   -0.169891
    16  C   -0.220000
    17  C   -0.173825
    18  C    0.157476
    19  C   -0.171029
    20  C   -0.224438
    21  H    0.225522
    22  H    0.227114
    23  H    0.277992
    24  H    0.275339
    25  H    0.219575
    26  N    0.487942
    27  O   -0.460859
    28  O   -0.458936
 Sum of Mulliken charges =  -0.00000

 Dipole moment (field-independent basis, Debye):
    X=              1.9378    Y=              6.9292    Z=              0.2249  Tot=              7.1986
 Quadrupole moment (field-independent basis, Debye-Ang):
   XX=           -147.2407   YY=           -103.0182   ZZ=           -101.9526
   XY=              3.6236   XZ=              5.4997   YZ=             -1.1791

 Normal termination of Gaussian 16 at Wed May  5 19:23:24 2021.
