 Gaussian 16, Revision A.03,
 Gaussian 16:  EM64L-G16RevA.03 25-Dec-2016

 -------------
 #p 6-31g* mp2
 -------------

 ------------------------------------------------------
 Input file generated by CHIRIPA (05-May-2021 14:55:25)
 ------------------------------------------------------
 Symbolic Z-matrix:
 Charge =  0 Multiplicity = 1

                         Standard orientation:
 ---------------------------------------------------------------------
 Center     Atomic      Atomic             Coordinates (Angstroms)
 Number     Number       Type             X           Y           Z
 ---------------------------------------------------------------------
      1          6           0       -1.419057    0.588715    0.844859
      2          6           0       -1.855556    0.922894   -0.441342
      3          6           0       -3.126133    0.540405   -0.881666
      4          6           0       -3.937790   -0.178689   -0.005649
      5          6           0       -3.531498   -0.526701    1.281637
      6          6           0       -2.256944   -0.133742    1.700735
      7          1           0       -0.430498    0.889908    1.178669
      8          1           0       -1.206984    1.483898   -1.108180
      9          1           0       -3.489294    0.785826   -1.872272
     10          1           0       -4.200589   -1.086627    1.923679
     11          1           0       -1.920598   -0.394663    2.700153
     12          7           0       -5.284998   -0.589155   -0.460565
     13          8           0       -5.981020   -1.222097    0.330367
     14          8           0       -5.619407   -0.270164   -1.599447
     15          6           0        5.395371   -0.142446    0.217633
     16          6           0        6.146762   -1.089805   -0.718267
     17          6           0        7.423344   -1.650937   -0.091162
     18          1           0        6.059876    0.684726    0.502529
     19          1           0        5.145455   -0.676224    1.145005
     20          1           0        6.393973   -0.554804   -1.644160
     21          1           0        5.480330   -1.914715   -1.001121
     22          1           0        7.191107   -2.208510    0.821953
     23          1           0        8.109942   -0.840872    0.175260
     24          1           0        7.944682   -2.325651   -0.777332
     25          6           0        4.116958    0.426708   -0.395108
     26          6           0        3.365567    1.374066    0.540791
     27          6           0        2.088984    1.935199   -0.086313
     28          1           0        4.366874    0.960485   -1.322480
     29          1           0        3.452453   -0.400463   -0.680005
     30          1           0        4.032000    2.198976    0.823645
     31          1           0        3.118356    0.839066    1.466684
     32          1           0        1.402387    1.125134   -0.352736
     33          1           0        2.321221    2.492771   -0.999428
     34          1           0        1.567647    2.609912    0.599857
 ---------------------------------------------------------------------

 SCF Done:  E(RHF) =  -669.535231909     A.U. after   15 cycles
 E2 =    -0.2091492831D+01 EUMP2 =    -0.67162672474035D+03

 The electronic state is 1-A.
 Alpha  occ. eigenvalues --  -20.60708 -20.60703 -15.85761 -11.31110 -11.27680
 Alpha  occ. eigenvalues --  -11.27674 -11.27335 -11.26677 -11.26651 -11.22701
 Alpha  occ. eigenvalues --  -11.22488 -11.22227 -11.22144 -11.22038 -11.21519
 Alpha  occ. eigenvalues --   -1.59784  -1.39338  -1.19277  -1.09243  -1.08668
 Alpha  occ. eigenvalues --   -1.04680  -1.04390  -0.96871  -0.95505  -0.87897
 Alpha  occ. eigenvalues --   -0.86071  -0.82345  -0.80472  -0.78995  -0.77397
 Alpha  occ. eigenvalues --   -0.71979  -0.71107  -0.70404  -0.65877  -0.64926
 Alpha  occ. eigenvalues --   -0.64691  -0.62053  -0.61763  -0.60272  -0.58434
 Alpha  occ. eigenvalues --   -0.56256  -0.55074  -0.53544  -0.53300  -0.52996
 Alpha  occ. eigenvalues --   -0.52752  -0.50774  -0.48785  -0.48735  -0.48722
 Alpha  occ. eigenvalues --   -0.47477  -0.46549  -0.46438  -0.44747  -0.44617
 Alpha  occ. eigenvalues --   -0.37243  -0.36288
 Alpha virt. eigenvalues --    0.05124   0.11313   0.16601   0.20204   0.22368
 Alpha virt. eigenvalues --    0.23691   0.25672   0.25974   0.26670   0.27560
 Alpha virt. eigenvalues --    0.29570   0.30134   0.30691   0.30888   0.31626

 Mulliken charges:
               1
     1  C   -0.175753
     2  C   -0.222797
     3  C   -0.171004
     4  C    0.158170
     5  C   -0.170882
     6  C   -0.219757
     7  H    0.234308
     8  H    0.226252
     9  H    0.275342
    10  H    0.275180
    11  H    0.223044
    12  N    0.488078
    13  O   -0.460691
    14  O   -0.460640
    15  C   -0.298906
    16  C   -0.300332
    17  C   -0.476135
    18  H    0.151028
    19  H    0.149815
    20  H    0.152951
    21  H    0.152854
    22  H    0.155621
    23  H    0.155857
    24  H    0.162093
    25  C   -0.299434
    26  C   -0.300205
    27  C   -0.487598
    28  H    0.151698
    29  H    0.150727
    30  H    0.156913
    31  H    0.150610
    32  H    0.152273
    33  H    0.162165
    34  H    0.159153
 Sum of Mulliken charges =  -0.00000

 Dipole moment (field-independent basis, Debye):
    X=              5.0339    Y=              1.4587    Z=              1.5710  Tot=              5.4714
 Quadrupole moment (field-independent basis, Debye-Ang):
   XX=           -132.4139   YY=            -94.5367   ZZ=            -90.9785
   XY=             -5.2371   XZ=             -7.7917   YZ=             -2.7446

 Normal termination of Gaussian 16 at Wed May  5 22:25:14 2021.
