 Gaussian 16, Revision A.03,
 Gaussian 16:  EM64L-G16RevA.03 25-Dec-2016

 -------------
 #p 6-31g* mp2
 -------------

 ------------------------------------------------------
 Input file generated by CHIRIPA (05-May-2021 14:51:11)
 ------------------------------------------------------
 Symbolic Z-matrix:
 Charge =  0 Multiplicity = 1

                         Standard orientation:
 ---------------------------------------------------------------------
 Center     Atomic      Atomic             Coordinates (Angstroms)
 Number     Number       Type             X           Y           Z
 ---------------------------------------------------------------------
      1          6           0       -2.685613   -0.733713    0.450164
      2          6           0       -3.702820    0.087104   -0.343267
      3          6           0       -4.742757    0.763508    0.550492
      4          1           0       -3.216688   -1.494876    1.037988
      5          1           0       -2.179204   -0.078284    1.172215
      6          1           0       -4.206181   -0.569387   -1.064559
      7          1           0       -3.169247    0.846277   -0.929417
      8          1           0       -4.257976    1.440856    1.260976
      9          1           0       -5.300800    0.017148    1.125066
     10          1           0       -5.459954    1.344940   -0.037237
     11          6           0       -1.639448   -1.416030   -0.429444
     12          6           0       -0.622240   -2.236847    0.363987
     13          6           0        0.417696   -2.913251   -0.529771
     14          1           0       -2.145857   -2.071459   -1.151494
     15          1           0       -1.108373   -0.654867   -1.017267
     16          1           0       -1.155813   -2.996020    0.950138
     17          1           0       -0.118880   -1.580356    1.085280
     18          1           0        0.975740   -2.166891   -1.104345
     19          1           0       -0.067085   -3.590599   -1.240255
     20          1           0        1.134893   -3.494683    0.057958
     21          6           0        2.902903    0.996820    0.160485
     22          6           0        3.405347   -0.442006    0.036745
     23          6           0        4.888299   -0.582045    0.381763
     24          1           0        3.497012    1.643943   -0.499222
     25          1           0        3.076876    1.351676    1.185767
     26          1           0        3.229217   -0.794516   -0.987623
     27          1           0        2.809848   -1.085811    0.696680
     28          1           0        5.077052   -0.256441    1.409845
     29          1           0        5.498805    0.036509   -0.284027
     30          1           0        5.226461   -1.618611    0.286689
     31          6           0        1.422157    1.152923   -0.181205
     32          6           0        0.919714    2.591750   -0.057466
     33          6           0       -0.563239    2.731788   -0.402483
     34          1           0        1.248185    0.798066   -1.206489
     35          1           0        0.828049    0.505800    0.478501
     36          1           0        1.515213    3.235554   -0.717400
     37          1           0        1.095843    2.944258    0.966903
     38          1           0       -1.173744    2.113233    0.263306
     39          1           0       -0.751991    2.406185   -1.430567
     40          1           0       -0.901400    3.768353   -0.307410
 ---------------------------------------------------------------------

 SCF Done:  E(RHF) =  -470.731287352     A.U. after   11 cycles
 E2 =    -0.1587218032D+01 EUMP2 =    -0.47231850538382D+03

 The electronic state is 1-A.
 Alpha  occ. eigenvalues --  -11.21693 -11.21609 -11.21533 -11.21495 -11.21470
 Alpha  occ. eigenvalues --  -11.21407 -11.21340 -11.21244 -11.21167 -11.21084
 Alpha  occ. eigenvalues --  -11.21014 -11.20937  -1.08564  -1.08312  -1.03611
 Alpha  occ. eigenvalues --   -1.03445  -0.96055  -0.95903  -0.87127  -0.86869
 Alpha  occ. eigenvalues --   -0.79722  -0.79477  -0.78397  -0.78154  -0.65379
 Alpha  occ. eigenvalues --   -0.64803  -0.61061  -0.60870  -0.59442  -0.59264
 Alpha  occ. eigenvalues --   -0.57641  -0.57514  -0.55361  -0.55175  -0.52736
 Alpha  occ. eigenvalues --   -0.52605  -0.52518  -0.52324  -0.50104  -0.49708
 Alpha  occ. eigenvalues --   -0.48035  -0.47803  -0.46745  -0.46653  -0.46210
 Alpha  occ. eigenvalues --   -0.45988  -0.45285  -0.45169  -0.43848  -0.43703
 Alpha virt. eigenvalues --    0.19991   0.21835   0.23712   0.23832   0.24702
 Alpha virt. eigenvalues --    0.26045   0.26785   0.28001   0.28730   0.30022
 Alpha virt. eigenvalues --    0.30662   0.31255   0.31700   0.31791   0.32180

 Mulliken charges:
               1
     1  C   -0.299908
     2  C   -0.303992
     3  C   -0.475678
     4  H    0.150006
     5  H    0.148105
     6  H    0.151688
     7  H    0.157566
     8  H    0.154695
     9  H    0.154849
    10  H    0.160197
    11  C   -0.303525
    12  C   -0.302701
    13  C   -0.478939
    14  H    0.149467
    15  H    0.156185
    16  H    0.152066
    17  H    0.152032
    18  H    0.161179
    19  H    0.154123
    20  H    0.158978
    21  C   -0.297724
    22  C   -0.303479
    23  C   -0.475657
    24  H    0.149690
    25  H    0.149326
    26  H    0.152688
    27  H    0.156740
    28  H    0.155009
    29  H    0.155079
    30  H    0.160609
    31  C   -0.307020
    32  C   -0.299306
    33  C   -0.482284
    34  H    0.149528
    35  H    0.158008
    36  H    0.152306
    37  H    0.152002
    38  H    0.161581
    39  H    0.155475
    40  H    0.161035
 Sum of Mulliken charges =  -0.00000

 Dipole moment (field-independent basis, Debye):
    X=              0.0512    Y=              0.0415    Z=             -0.0233  Tot=              0.0699
 Quadrupole moment (field-independent basis, Debye-Ang):
   XX=            -86.2622   YY=            -84.5596   ZZ=            -84.1258
   XY=              1.1668   XZ=              0.0450   YZ=             -0.3219

 Normal termination of Gaussian 16 at Wed May  5 16:45:28 2021.
