 Gaussian 16, Revision A.03,
 Gaussian 16:  EM64L-G16RevA.03 25-Dec-2016

 -------------
 #p 6-31g* mp2
 -------------

 ------------------------------------------------------
 Input file generated by CHIRIPA (05-May-2021 14:57:22)
 ------------------------------------------------------
 Symbolic Z-matrix:
 Charge =  0 Multiplicity = 1

                         Standard orientation:
 ---------------------------------------------------------------------
 Center     Atomic      Atomic             Coordinates (Angstroms)
 Number     Number       Type             X           Y           Z
 ---------------------------------------------------------------------
      1          6           0        1.535853    2.173227   -1.434747
      2          6           0        2.824007    2.227303   -0.892293
      3          6           0        3.359074    1.123222   -0.222028
      4          6           0        2.574778   -0.023995   -0.112198
      5          6           0        1.288104   -0.108732   -0.641895
      6          6           0        0.773357    1.007437   -1.308040
      7          1           0        1.128093    3.035599   -1.953825
      8          1           0        3.418447    3.131350   -0.989178
      9          1           0        4.353448    1.137856    0.207419
     10          1           0        0.719513   -1.023855   -0.529322
     11          1           0       -0.227341    0.962587   -1.728322
     12          7           0        3.130473   -1.199236    0.595201
     13          8           0        2.419265   -2.198179    0.678458
     14          8           0        4.266713   -1.099192    1.053008
     15          6           0       -2.530578   -1.830827   -1.669720
     16          6           0       -3.169476   -0.593961   -1.805704
     17          6           0       -3.149682    0.334135   -0.760337
     18          6           0       -2.478612   -0.009107    0.412326
     19          6           0       -1.832670   -1.233253    0.578204
     20          6           0       -1.865387   -2.145970   -0.480298
     21          1           0       -2.550974   -2.545822   -2.486889
     22          1           0       -3.686842   -0.346511   -2.728280
     23          1           0       -3.636009    1.298889   -0.838793
     24          1           0       -1.325046   -1.451410    1.509945
     25          1           0       -1.368342   -3.105781   -0.371880
     26          7           0       -2.450816    0.965287    1.525962
     27          8           0       -1.852754    0.638818    2.548888
     28          8           0       -3.027619    2.037036    1.354817
 ---------------------------------------------------------------------

 SCF Done:  E(RHF) =  -868.337281843     A.U. after   16 cycles
 E2 =    -0.2604157700D+01 EUMP2 =    -0.87094143954331D+03

 The electronic state is 1-A.
 Alpha  occ. eigenvalues --  -20.61286 -20.61254 -20.60869 -20.60825 -15.86333
 Alpha  occ. eigenvalues --  -15.85892 -11.31896 -11.31056 -11.28546 -11.28383
 Alpha  occ. eigenvalues --  -11.28256 -11.27624 -11.27587 -11.27533 -11.27400
 Alpha  occ. eigenvalues --  -11.27348 -11.26609 -11.26554  -1.60345  -1.59915
 Alpha  occ. eigenvalues --   -1.39892  -1.39481  -1.20147  -1.19225  -1.09455
 Alpha  occ. eigenvalues --   -1.08662  -1.05558  -1.04606  -0.96251  -0.95528
 Alpha  occ. eigenvalues --   -0.86883  -0.86030  -0.83059  -0.82378  -0.78080
 Alpha  occ. eigenvalues --   -0.77457  -0.72541  -0.72128  -0.71683  -0.71229
 Alpha  occ. eigenvalues --   -0.71144  -0.70373  -0.65734  -0.65445  -0.64892
 Alpha  occ. eigenvalues --   -0.64642  -0.62818  -0.62061  -0.55960  -0.55230
 Alpha  occ. eigenvalues --   -0.53741  -0.53537  -0.52894  -0.52751  -0.49322
 Alpha  occ. eigenvalues --   -0.49284  -0.48891  -0.48846  -0.45252  -0.44929
 Alpha  occ. eigenvalues --   -0.38225  -0.37286  -0.37087  -0.36051
 Alpha virt. eigenvalues --    0.04370   0.05074   0.10169   0.11683   0.15727
 Alpha virt. eigenvalues --    0.16612   0.20780   0.21862   0.26516   0.27516
 Alpha virt. eigenvalues --    0.27830   0.28848   0.30370   0.31369   0.32113

 Mulliken charges:
               1
     1  C   -0.169230
     2  C   -0.218140
     3  C   -0.169425
     4  C    0.160304
     5  C   -0.175904
     6  C   -0.227544
     7  H    0.225777
     8  H    0.223708
     9  H    0.275355
    10  H    0.276228
    11  H    0.225536
    12  N    0.488844
    13  O   -0.468582
    14  O   -0.457976
    15  C   -0.171318
    16  C   -0.222602
    17  C   -0.180198
    18  C    0.164685
    19  C   -0.179550
    20  C   -0.231117
    21  H    0.230575
    22  H    0.225922
    23  H    0.276842
    24  H    0.287536
    25  H    0.237687
    26  N    0.488539
    27  O   -0.454411
    28  O   -0.461542
 Sum of Mulliken charges =  -0.00000

 Dipole moment (field-independent basis, Debye):
    X=             -2.2100    Y=              0.6432    Z=             -6.2637  Tot=              6.6732
 Quadrupole moment (field-independent basis, Debye-Ang):
   XX=           -109.8153   YY=           -102.0999   ZZ=           -106.9148
   XY=             20.3962   XZ=              6.0604   YZ=             -3.2537

 Normal termination of Gaussian 16 at Thu May  6 09:42:34 2021.
