 Gaussian 16, Revision A.03,
 Gaussian 16:  EM64L-G16RevA.03 25-Dec-2016

 -------------
 #p 6-31g* mp2
 -------------

 ------------------------------------------------------
 Input file generated by CHIRIPA (05-May-2021 14:57:22)
 ------------------------------------------------------
 Symbolic Z-matrix:
 Charge =  0 Multiplicity = 1

                         Standard orientation:
 ---------------------------------------------------------------------
 Center     Atomic      Atomic             Coordinates (Angstroms)
 Number     Number       Type             X           Y           Z
 ---------------------------------------------------------------------
      1          6           0        4.981957    2.303766    0.137770
      2          6           0        5.815845    1.218085   -0.149365
      3          6           0        5.284432   -0.067159   -0.291827
      4          6           0        3.908473   -0.231346   -0.139944
      5          6           0        3.051603    0.830336    0.146229
      6          6           0        3.604925    2.106774    0.284392
      7          1           0        5.403281    3.298754    0.246768
      8          1           0        6.885635    1.368104   -0.263770
      9          1           0        5.907019   -0.925313   -0.514035
     10          1           0        1.989070    0.649524    0.254622
     11          1           0        2.954907    2.948078    0.507393
     12          7           0        3.334292   -1.587315   -0.288486
     13          8           0        2.118789   -1.705568   -0.149906
     14          8           0        4.110626   -2.506196   -0.540682
     15          6           0       -2.188672   -0.625941    1.750102
     16          6           0       -1.936995   -0.665997    0.374757
     17          6           0       -2.934862   -0.316954   -0.540108
     18          6           0       -4.178517    0.069140   -0.042568
     19          6           0       -4.459970    0.119124    1.321827
     20          6           0       -3.447137   -0.234200    2.218422
     21          1           0       -1.407692   -0.898749    2.453694
     22          1           0       -0.960596   -0.969840    0.008191
     23          1           0       -2.767112   -0.339075   -1.610055
     24          1           0       -5.443219    0.426110    1.657085
     25          1           0       -3.645433   -0.202160    3.285988
     26          7           0       -5.242836    0.440922   -1.001423
     27          8           0       -6.330116    0.777610   -0.537634
     28          8           0       -4.969616    0.388598   -2.198608
 ---------------------------------------------------------------------

 SCF Done:  E(RHF) =  -868.339566436     A.U. after   16 cycles
 E2 =    -0.2598577980D+01 EUMP2 =    -0.87093814441597D+03

 The electronic state is 1-A.
 Alpha  occ. eigenvalues --  -20.61698 -20.61634 -20.60481 -20.60474 -15.86715
 Alpha  occ. eigenvalues --  -15.85528 -11.31881 -11.30814 -11.28467 -11.28390
 Alpha  occ. eigenvalues --  -11.28099 -11.27393 -11.27389 -11.27361 -11.27311
 Alpha  occ. eigenvalues --  -11.27045 -11.26397 -11.26195  -1.60726  -1.59558
 Alpha  occ. eigenvalues --   -1.40293  -1.39113  -1.20027  -1.18962  -1.09450
 Alpha  occ. eigenvalues --   -1.08366  -1.05403  -1.04337  -0.96324  -0.95221
 Alpha  occ. eigenvalues --   -0.86809  -0.85730  -0.83170  -0.82044  -0.78249
 Alpha  occ. eigenvalues --   -0.77106  -0.72945  -0.72034  -0.71747  -0.71132
 Alpha  occ. eigenvalues --   -0.70881  -0.70059  -0.65686  -0.65398  -0.64601
 Alpha  occ. eigenvalues --   -0.64290  -0.62761  -0.61662  -0.55894  -0.54824
 Alpha  occ. eigenvalues --   -0.53737  -0.53492  -0.52697  -0.52391  -0.49704
 Alpha  occ. eigenvalues --   -0.49651  -0.48509  -0.48495  -0.45740  -0.44536
 Alpha  occ. eigenvalues --   -0.37983  -0.36997  -0.36947  -0.35953
 Alpha virt. eigenvalues --    0.04286   0.05397   0.10660   0.11670   0.15829
 Alpha virt. eigenvalues --    0.16913   0.20283   0.21931   0.25768   0.27088
 Alpha virt. eigenvalues --    0.28527   0.28819   0.30292   0.31187   0.32221

 Mulliken charges:
               1
     1  C   -0.170014
     2  C   -0.218219
     3  C   -0.170429
     4  C    0.158743
     5  C   -0.170772
     6  C   -0.218353
     7  H    0.228239
     8  H    0.225897
     9  H    0.277053
    10  H    0.269767
    11  H    0.225662
    12  N    0.493421
    13  O   -0.474849
    14  O   -0.454579
    15  C   -0.173714
    16  C   -0.231250
    17  C   -0.172923
    18  C    0.158469
    19  C   -0.172444
    20  C   -0.218836
    21  H    0.227390
    22  H    0.245243
    23  H    0.275859
    24  H    0.273898
    25  H    0.221507
    26  N    0.488019
    27  O   -0.461920
    28  O   -0.460866
 Sum of Mulliken charges =  -0.00000

 Dipole moment (field-independent basis, Debye):
    X=              6.2064    Y=              3.4675    Z=              3.8666  Tot=              8.0928
 Quadrupole moment (field-independent basis, Debye-Ang):
   XX=           -114.0899   YY=           -107.3891   ZZ=           -103.4090
   XY=             21.9630   XZ=            -16.2447   YZ=              0.6963

 Normal termination of Gaussian 16 at Fri May  7 04:52:13 2021.
