 Gaussian 16, Revision A.03,
 Gaussian 16:  EM64L-G16RevA.03 25-Dec-2016

 -------------
 #p 6-31g* mp2
 -------------

 ------------------------------------------------------
 Input file generated by CHIRIPA (05-May-2021 14:53:15)
 ------------------------------------------------------
 Symbolic Z-matrix:
 Charge =  0 Multiplicity = 1

                         Standard orientation:
 ---------------------------------------------------------------------
 Center     Atomic      Atomic             Coordinates (Angstroms)
 Number     Number       Type             X           Y           Z
 ---------------------------------------------------------------------
      1          6           0       -3.132700   -0.764482    0.831936
      2          6           0       -1.983787   -1.703071    0.461751
      3          6           0       -1.427187   -2.460432    1.667734
      4          1           0       -2.783166   -0.047608    1.587490
      5          1           0       -3.936270   -1.347722    1.302576
      6          1           0       -1.183203   -1.118446   -0.009305
      7          1           0       -2.336044   -2.417673   -0.293150
      8          1           0       -2.208764   -3.067945    2.135352
      9          1           0       -1.049373   -1.761336    2.420810
     10          1           0       -0.606868   -3.125554    1.380422
     11          6           0       -3.699704   -0.000272   -0.363145
     12          6           0       -4.848617    0.938316    0.007040
     13          6           0       -5.405217    1.695677   -1.198943
     14          1           0       -2.896134    0.582968   -0.833785
     15          1           0       -4.049238   -0.717147   -1.118699
     16          1           0       -4.496360    1.652918    0.761941
     17          1           0       -5.649201    0.353691    0.478096
     18          1           0       -5.783031    0.996581   -1.952018
     19          1           0       -4.623640    2.303190   -1.666561
     20          1           0       -6.225536    2.360800   -0.911631
     21          6           0        2.728277   -2.045202   -1.114985
     22          6           0        1.523035   -1.336205   -1.079834
     23          6           0        1.478360   -0.036884   -0.565715
     24          6           0        2.663168    0.525336   -0.093032
     25          6           0        3.879461   -0.155445   -0.114521
     26          6           0        3.900576   -1.453603   -0.633067
     27          1           0        2.753831   -3.054094   -1.516084
     28          1           0        0.611057   -1.793132   -1.453408
     29          1           0        0.558961    0.534597   -0.526560
     30          1           0        4.772175    0.326558    0.265151
     31          1           0        4.838014   -2.001851   -0.659114
     32          7           0        2.628343    1.900252    0.453585
     33          8           0        3.685998    2.373183    0.863877
     34          8           0        1.544052    2.478947    0.461381
 ---------------------------------------------------------------------

 SCF Done:  E(RHF) =  -669.534654142     A.U. after   15 cycles
 E2 =    -0.2092853807D+01 EUMP2 =    -0.67162750794931D+03

 The electronic state is 1-A.
 Alpha  occ. eigenvalues --  -20.60790 -20.60785 -15.85842 -11.31199 -11.27760
 Alpha  occ. eigenvalues --  -11.27753 -11.27491 -11.26778 -11.26729 -11.22273
 Alpha  occ. eigenvalues --  -11.21772 -11.21741 -11.21680 -11.21557 -11.21143
 Alpha  occ. eigenvalues --   -1.59865  -1.39419  -1.19368  -1.08812  -1.08755
 Alpha  occ. eigenvalues --   -1.04784  -1.03876  -0.96297  -0.95602  -0.87318
 Alpha  occ. eigenvalues --   -0.86165  -0.82457  -0.80003  -0.78629  -0.77467
 Alpha  occ. eigenvalues --   -0.72062  -0.71187  -0.70487  -0.65475  -0.65003
 Alpha  occ. eigenvalues --   -0.64776  -0.62234  -0.61187  -0.59678  -0.57920
 Alpha  occ. eigenvalues --   -0.55566  -0.55265  -0.53110  -0.52986  -0.52857
 Alpha  occ. eigenvalues --   -0.52717  -0.50234  -0.48820  -0.48819  -0.48276
 Alpha  occ. eigenvalues --   -0.47017  -0.46141  -0.46046  -0.44826  -0.44130
 Alpha  occ. eigenvalues --   -0.37344  -0.36332
 Alpha virt. eigenvalues --    0.05022   0.11241   0.16433   0.20098   0.22694
 Alpha virt. eigenvalues --    0.24111   0.25017   0.26346   0.27078   0.28317
 Alpha virt. eigenvalues --    0.29692   0.30507   0.31202   0.31444   0.32618

 Mulliken charges:
               1
     1  C   -0.298843
     2  C   -0.305855
     3  C   -0.474908
     4  H    0.155732
     5  H    0.151457
     6  H    0.145101
     7  H    0.149335
     8  H    0.157536
     9  H    0.160699
    10  H    0.157077
    11  C   -0.298736
    12  C   -0.300349
    13  C   -0.476362
    14  H    0.147343
    15  H    0.148255
    16  H    0.156194
    17  H    0.152089
    18  H    0.153901
    19  H    0.157180
    20  H    0.161846
    21  C   -0.172123
    22  C   -0.218006
    23  C   -0.172699
    24  C    0.157904
    25  C   -0.171178
    26  C   -0.218385
    27  H    0.225694
    28  H    0.227947
    29  H    0.276001
    30  H    0.275574
    31  H    0.223491
    32  N    0.488454
    33  O   -0.460175
    34  O   -0.461190
 Sum of Mulliken charges =  -0.00000

 Dipole moment (field-independent basis, Debye):
    X=              0.0444    Y=             -4.8091    Z=             -1.8327  Tot=              5.1467
 Quadrupole moment (field-independent basis, Debye-Ang):
   XX=            -88.5975   YY=           -100.3293   ZZ=            -95.4620
   XY=            -12.6843   XZ=             -4.6969   YZ=             -0.0149

 Normal termination of Gaussian 16 at Thu May  6 15:28:05 2021.
