 Gaussian 16, Revision A.03,
 Gaussian 16:  EM64L-G16RevA.03 25-Dec-2016

 -------------
 #p 6-31g* mp2
 -------------

 ------------------------------------------------------
 Input file generated by CHIRIPA (05-May-2021 14:51:13)
 ------------------------------------------------------
 Symbolic Z-matrix:
 Charge =  0 Multiplicity = 1

                         Standard orientation:
 ---------------------------------------------------------------------
 Center     Atomic      Atomic             Coordinates (Angstroms)
 Number     Number       Type             X           Y           Z
 ---------------------------------------------------------------------
      1          6           0       -3.185918   -0.531735   -0.512002
      2          6           0       -3.256084   -1.394027    0.748757
      3          6           0       -4.288081   -2.516969    0.640238
      4          1           0       -4.177497   -0.102457   -0.710591
      5          1           0       -2.944195   -1.171258   -1.372220
      6          1           0       -3.496241   -0.752850    1.606564
      7          1           0       -2.264178   -1.821147    0.944475
      8          1           0       -4.049062   -3.180220   -0.197359
      9          1           0       -5.288125   -2.105852    0.468492
     10          1           0       -4.321609   -3.120932    1.552359
     11          6           0       -2.158725    0.595172   -0.418820
     12          6           0       -2.088559    1.457464   -1.679580
     13          6           0       -1.056562    2.580406   -1.571061
     14          1           0       -2.400448    1.234695    0.441398
     15          1           0       -1.167146    0.165895   -0.220231
     16          1           0       -3.080466    1.884584   -1.875298
     17          1           0       -1.848403    0.816287   -2.537387
     18          1           0       -0.056518    2.169290   -1.399315
     19          1           0       -1.295581    3.243657   -0.733464
     20          1           0       -1.023035    3.184370   -2.483181
     21          6           0        3.327019   -0.156702    0.092340
     22          6           0        3.421810   -1.557384   -0.513540
     23          6           0        4.737266   -1.792250   -1.256646
     24          1           0        3.436907    0.589576   -0.706370
     25          1           0        4.170126   -0.004583    0.780400
     26          1           0        2.578007   -1.707321   -1.199200
     27          1           0        3.311493   -2.300416    0.286679
     28          1           0        5.589159   -1.669707   -0.579990
     29          1           0        4.851506   -1.073243   -2.074313
     30          1           0        4.783868   -2.799698   -1.681777
     31          6           0        2.017624    0.093265    0.838483
     32          6           0        1.922833    1.493946    1.444363
     33          6           0        0.607377    1.728813    2.187468
     34          1           0        1.174518   -0.058854    0.150422
     35          1           0        1.907737   -0.653014    1.637193
     36          1           0        2.033151    2.236979    0.644143
     37          1           0        2.766636    1.643885    2.130024
     38          1           0        0.493138    1.009806    3.005135
     39          1           0       -0.244516    1.606270    1.510813
     40          1           0        0.560776    2.736261    2.612600
 ---------------------------------------------------------------------

 SCF Done:  E(RHF) =  -470.731796649     A.U. after   11 cycles
 E2 =    -0.1585260334D+01 EUMP2 =    -0.47231705698285D+03

 The electronic state is 1-A.
 Alpha  occ. eigenvalues --  -11.21676 -11.21627 -11.21607 -11.21528 -11.21443
 Alpha  occ. eigenvalues --  -11.21408 -11.21383 -11.21347 -11.21152 -11.21088
 Alpha  occ. eigenvalues --  -11.21076 -11.20831  -1.08517  -1.08398  -1.03604
 Alpha  occ. eigenvalues --   -1.03468  -0.96033  -0.95937  -0.87059  -0.86951
 Alpha  occ. eigenvalues --   -0.79702  -0.79535  -0.78475  -0.78089  -0.65269
 Alpha  occ. eigenvalues --   -0.64933  -0.61048  -0.60855  -0.59417  -0.59280
 Alpha  occ. eigenvalues --   -0.57687  -0.57516  -0.55345  -0.55221  -0.52728
 Alpha  occ. eigenvalues --   -0.52625  -0.52524  -0.52327  -0.49983  -0.49919
 Alpha  occ. eigenvalues --   -0.48161  -0.47758  -0.46773  -0.46682  -0.46228
 Alpha  occ. eigenvalues --   -0.45750  -0.45687  -0.44963  -0.43831  -0.43753
 Alpha virt. eigenvalues --    0.20228   0.23088   0.23705   0.24958   0.25276
 Alpha virt. eigenvalues --    0.26193   0.26552   0.28233   0.28343   0.29841
 Alpha virt. eigenvalues --    0.31092   0.31343   0.31494   0.31700   0.32138

 Mulliken charges:
               1
     1  C   -0.296236
     2  C   -0.300117
     3  C   -0.475747
     4  H    0.149699
     5  H    0.149307
     6  H    0.152312
     7  H    0.152549
     8  H    0.155145
     9  H    0.155152
    10  H    0.160413
    11  C   -0.311773
    12  C   -0.298515
    13  C   -0.480281
    14  H    0.151892
    15  H    0.159178
    16  H    0.152357
    17  H    0.151613
    18  H    0.157470
    19  H    0.156787
    20  H    0.160803
    21  C   -0.297623
    22  C   -0.299556
    23  C   -0.475697
    24  H    0.149361
    25  H    0.149961
    26  H    0.151104
    27  H    0.152006
    28  H    0.155366
    29  H    0.155251
    30  H    0.160224
    31  C   -0.306379
    32  C   -0.299923
    33  C   -0.485680
    34  H    0.154805
    35  H    0.149756
    36  H    0.152437
    37  H    0.151651
    38  H    0.153554
    39  H    0.168816
    40  H    0.158556
 Sum of Mulliken charges =  -0.00000

 Dipole moment (field-independent basis, Debye):
    X=             -0.0541    Y=             -0.0036    Z=             -0.0253  Tot=              0.0598
 Quadrupole moment (field-independent basis, Debye-Ang):
   XX=            -85.3760   YY=            -85.1341   ZZ=            -84.3383
   XY=             -0.9940   XZ=              0.5963   YZ=             -0.2753

 Normal termination of Gaussian 16 at Wed May  5 16:52:57 2021.
