 Gaussian 16, Revision A.03,
 Gaussian 16:  EM64L-G16RevA.03 25-Dec-2016

 -------------
 #p 6-31g* mp2
 -------------

 ------------------------------------------------------
 Input file generated by CHIRIPA (05-May-2021 14:51:08)
 ------------------------------------------------------
 Symbolic Z-matrix:
 Charge =  0 Multiplicity = 1

                         Standard orientation:
 ---------------------------------------------------------------------
 Center     Atomic      Atomic             Coordinates (Angstroms)
 Number     Number       Type             X           Y           Z
 ---------------------------------------------------------------------
      1          6           0       -3.817208    0.640582    0.304001
      2          6           0       -4.736300    0.776404   -0.910416
      3          6           0       -5.533184    2.081297   -0.905687
      4          1           0       -4.419951    0.700474    1.220548
      5          1           0       -3.125236    1.493790    0.328647
      6          1           0       -5.425418   -0.077527   -0.933536
      7          1           0       -4.131323    0.715990   -1.824182
      8          1           0       -4.859370    2.944185   -0.906703
      9          1           0       -6.160818    2.146159   -0.010996
     10          1           0       -6.183574    2.157699   -1.782622
     11          6           0       -3.013918   -0.658788    0.313500
     12          6           0       -2.094826   -0.794609    1.527917
     13          6           0       -1.297942   -2.099503    1.523187
     14          1           0       -3.705890   -1.511995    0.288854
     15          1           0       -2.411176   -0.718680   -0.603048
     16          1           0       -2.699803   -0.734195    2.441683
     17          1           0       -1.405709    0.059322    1.551037
     18          1           0       -0.670309   -2.164365    0.628497
     19          1           0       -1.971756   -2.962390    1.524204
     20          1           0       -0.647553   -2.175905    2.400123
     21          6           0        3.599580    0.510864    0.236965
     22          6           0        4.486472    1.651890   -0.262503
     23          6           0        4.846093    2.647494    0.840783
     24          1           0        2.680340    0.931000    0.667581
     25          1           0        4.115033   -0.014761    1.052699
     26          1           0        3.970086    2.174343   -1.077981
     27          1           0        5.403622    1.228979   -0.692152
     28          1           0        5.383523    2.145939    1.652086
     29          1           0        3.941841    3.096673    1.264066
     30          1           0        5.480493    3.454828    0.461828
     31          6           0        3.231547   -0.492659   -0.854465
     32          6           0        2.344654   -1.633684   -0.354998
     33          6           0        1.985033   -2.629288   -1.458284
     34          1           0        2.716094    0.032966   -1.670199
     35          1           0        4.150786   -0.912794   -1.285082
     36          1           0        1.427504   -1.210774    0.074652
     37          1           0        2.861040   -2.156137    0.460480
     38          1           0        2.889284   -3.078469   -1.881567
     39          1           0        1.447603   -2.127733   -2.269586
     40          1           0        1.350633   -3.436624   -1.079329
 ---------------------------------------------------------------------

 SCF Done:  E(RHF) =  -470.733104306     A.U. after   11 cycles
 E2 =    -0.1582795334D+01 EUMP2 =    -0.47231589964025D+03

 The electronic state is 1-A.
 Alpha  occ. eigenvalues --  -11.21622 -11.21619 -11.21613 -11.21575 -11.21425
 Alpha  occ. eigenvalues --  -11.21413 -11.21366 -11.21353 -11.21089 -11.21086
 Alpha  occ. eigenvalues --  -11.21082 -11.21030  -1.08457  -1.08430  -1.03577
 Alpha  occ. eigenvalues --   -1.03508  -0.96026  -0.95957  -0.87011  -0.87002
 Alpha  occ. eigenvalues --   -0.79660  -0.79550  -0.78280  -0.78232  -0.65164
 Alpha  occ. eigenvalues --   -0.65004  -0.61137  -0.60781  -0.59363  -0.59354
 Alpha  occ. eigenvalues --   -0.57683  -0.57532  -0.55384  -0.55164  -0.52704
 Alpha  occ. eigenvalues --   -0.52665  -0.52454  -0.52361  -0.50020  -0.49863
 Alpha  occ. eigenvalues --   -0.47958  -0.47882  -0.46774  -0.46493  -0.45856
 Alpha  occ. eigenvalues --   -0.45764  -0.45737  -0.45612  -0.43802  -0.43787
 Alpha virt. eigenvalues --    0.21052   0.23219   0.23479   0.24729   0.26334
 Alpha virt. eigenvalues --    0.26767   0.26992   0.27397   0.28005   0.28920
 Alpha virt. eigenvalues --    0.31012   0.31125   0.31626   0.31840   0.32184

 Mulliken charges:
               1
     1  C   -0.298265
     2  C   -0.299656
     3  C   -0.475710
     4  H    0.149782
     5  H    0.149246
     6  H    0.152050
     7  H    0.151864
     8  H    0.155111
     9  H    0.155243
    10  H    0.160322
    11  C   -0.298219
    12  C   -0.300489
    13  C   -0.481566
    14  H    0.149792
    15  H    0.149330
    16  H    0.152291
    17  H    0.151286
    18  H    0.162142
    19  H    0.155006
    20  H    0.160532
    21  C   -0.298208
    22  C   -0.299638
    23  C   -0.475701
    24  H    0.149281
    25  H    0.149698
    26  H    0.151791
    27  H    0.152039
    28  H    0.155258
    29  H    0.155095
    30  H    0.160286
    31  C   -0.297784
    32  C   -0.304359
    33  C   -0.477515
    34  H    0.149016
    35  H    0.149632
    36  H    0.156766
    37  H    0.152309
    38  H    0.155657
    39  H    0.154569
    40  H    0.161716
 Sum of Mulliken charges =  -0.00000

 Dipole moment (field-independent basis, Debye):
    X=              0.0030    Y=             -0.0169    Z=              0.0054  Tot=              0.0180
 Quadrupole moment (field-independent basis, Debye-Ang):
   XX=            -84.0254   YY=            -85.7078   ZZ=            -84.9945
   XY=              0.1539   XZ=             -0.5084   YZ=             -0.8007

 Normal termination of Gaussian 16 at Wed May  5 15:05:59 2021.
