 Gaussian 16, Revision A.03,
 Gaussian 16:  EM64L-G16RevA.03 25-Dec-2016

 -------------
 #p 6-31g* mp2
 -------------

 ------------------------------------------------------
 Input file generated by CHIRIPA (05-May-2021 14:55:19)
 ------------------------------------------------------
 Symbolic Z-matrix:
 Charge =  0 Multiplicity = 1

                         Standard orientation:
 ---------------------------------------------------------------------
 Center     Atomic      Atomic             Coordinates (Angstroms)
 Number     Number       Type             X           Y           Z
 ---------------------------------------------------------------------
      1          6           0        2.837217    2.630145    0.324000
      2          6           0        1.681184    1.845931    0.252469
      3          6           0        1.766510    0.479620   -0.031190
      4          6           0        3.029726   -0.072161   -0.238824
      5          6           0        4.199854    0.682775   -0.174301
      6          6           0        4.090652    2.047093    0.110762
      7          1           0        2.761660    3.690754    0.544899
      8          1           0        0.706419    2.296043    0.417627
      9          1           0        0.887734   -0.150784   -0.092518
     10          1           0        5.157526    0.205693   -0.343636
     11          1           0        4.990139    2.653683    0.165690
     12          7           0        3.132695   -1.517558   -0.539865
     13          8           0        4.257428   -1.979710   -0.718825
     14          8           0        2.086719   -2.160939   -0.591160
     15          6           0       -3.460440   -0.747619    0.616901
     16          6           0       -2.016677   -0.338980    0.911092
     17          6           0       -1.237538   -1.419779    1.661166
     18          1           0       -3.969332   -0.978827    1.562690
     19          1           0       -3.458844   -1.675245    0.027918
     20          1           0       -2.020968    0.588351    1.498166
     21          1           0       -1.511217   -0.108534   -0.035492
     22          1           0       -1.203535   -2.345361    1.077435
     23          1           0       -1.716183   -1.644519    2.619806
     24          1           0       -0.208021   -1.106780    1.861129
     25          6           0       -4.252216    0.322510   -0.132526
     26          6           0       -5.695979   -0.086129   -0.426716
     27          6           0       -6.475117    0.994670   -1.176790
     28          1           0       -4.253812    1.250137    0.456457
     29          1           0       -3.743323    0.553718   -1.078314
     30          1           0       -6.201439   -0.316575    0.519868
     31          1           0       -5.691687   -1.013459   -1.013790
     32          1           0       -5.996473    1.219410   -2.135431
     33          1           0       -6.509120    1.920253   -0.593059
     34          1           0       -7.504635    0.681671   -1.376753
 ---------------------------------------------------------------------

 SCF Done:  E(RHF) =  -669.535175846     A.U. after   15 cycles
 E2 =    -0.2092406112D+01 EUMP2 =    -0.67162758195818D+03

 The electronic state is 1-A.
 Alpha  occ. eigenvalues --  -20.60742 -20.60736 -15.85789 -11.31131 -11.27713
 Alpha  occ. eigenvalues --  -11.27635 -11.27453 -11.26732 -11.26698 -11.22148
 Alpha  occ. eigenvalues --  -11.21805 -11.21704 -11.21645 -11.21260 -11.21173
 Alpha  occ. eigenvalues --   -1.59814  -1.39368  -1.19310  -1.08742  -1.08711
 Alpha  occ. eigenvalues --   -1.04716  -1.03819  -0.96227  -0.95542  -0.87225
 Alpha  occ. eigenvalues --   -0.86108  -0.82380  -0.79905  -0.78576  -0.77424
 Alpha  occ. eigenvalues --   -0.72011  -0.71136  -0.70442  -0.65390  -0.64961
 Alpha  occ. eigenvalues --   -0.64715  -0.62197  -0.61149  -0.59553  -0.57844
 Alpha  occ. eigenvalues --   -0.55488  -0.55181  -0.53109  -0.52945  -0.52806
 Alpha  occ. eigenvalues --   -0.52481  -0.50129  -0.48766  -0.48765  -0.48213
 Alpha  occ. eigenvalues --   -0.46931  -0.46100  -0.46010  -0.44779  -0.44059
 Alpha  occ. eigenvalues --   -0.37297  -0.36303
 Alpha virt. eigenvalues --    0.05068   0.11275   0.16579   0.20290   0.22817
 Alpha virt. eigenvalues --    0.23968   0.26020   0.26233   0.27339   0.28101
 Alpha virt. eigenvalues --    0.29457   0.30282   0.31366   0.31456   0.32057

 Mulliken charges:
               1
     1  C   -0.170584
     2  C   -0.223663
     3  C   -0.181458
     4  C    0.158525
     5  C   -0.170244
     6  C   -0.218877
     7  H    0.225407
     8  H    0.225181
     9  H    0.291476
    10  H    0.275387
    11  H    0.223271
    12  N    0.487474
    13  O   -0.460467
    14  O   -0.460902
    15  C   -0.297427
    16  C   -0.307554
    17  C   -0.480358
    18  H    0.151803
    19  H    0.154936
    20  H    0.147835
    21  H    0.144972
    22  H    0.169282
    23  H    0.157183
    24  H    0.159169
    25  C   -0.298851
    26  C   -0.300089
    27  C   -0.475925
    28  H    0.147269
    29  H    0.149357
    30  H    0.152619
    31  H    0.154112
    32  H    0.155365
    33  H    0.154304
    34  H    0.161473
 Sum of Mulliken charges =  -0.00000

 Dipole moment (field-independent basis, Debye):
    X=             -0.4820    Y=              4.9467    Z=              1.0713  Tot=              5.0843
 Quadrupole moment (field-independent basis, Debye-Ang):
   XX=            -92.0012   YY=            -96.1182   ZZ=            -95.6364
   XY=             16.8098   XZ=              2.3585   YZ=             -0.6872

 Normal termination of Gaussian 16 at Thu May  6 20:36:52 2021.
