 Gaussian 16, Revision A.03,
 Gaussian 16:  EM64L-G16RevA.03 25-Dec-2016

 -------------
 #p 6-31g* mp2
 -------------

 ------------------------------------------------------
 Input file generated by CHIRIPA (05-May-2021 14:57:21)
 ------------------------------------------------------
 Symbolic Z-matrix:
 Charge =  0 Multiplicity = 1

                         Standard orientation:
 ---------------------------------------------------------------------
 Center     Atomic      Atomic             Coordinates (Angstroms)
 Number     Number       Type             X           Y           Z
 ---------------------------------------------------------------------
      1          6           0        3.445149    2.578374    0.233180
      2          6           0        2.239919    1.999106   -0.177172
      3          6           0        2.158781    0.624438   -0.418527
      4          6           0        3.307511   -0.144595   -0.238817
      5          6           0        4.522798    0.403080    0.169130
      6          6           0        4.580740    1.779920    0.404719
      7          1           0        3.499170    3.647093    0.418431
      8          1           0        1.356403    2.616746   -0.311206
      9          1           0        1.238513    0.149990   -0.736999
     10          1           0        5.386657   -0.238427    0.294164
     11          1           0        5.518077    2.227062    0.723321
     12          7           0        3.233892   -1.601045   -0.491276
     13          8           0        4.260171   -2.256771   -0.325710
     14          8           0        2.151305   -2.059305   -0.849940
     15          6           0       -1.237295   -1.170339    1.132273
     16          6           0       -1.272364    0.209911    0.908217
     17          6           0       -2.420785    0.816216    0.390463
     18          6           0       -3.520959    0.008472    0.106810
     19          6           0       -3.516852   -1.369294    0.319027
     20          6           0       -2.357676   -1.954154    0.837482
     21          1           0       -0.340996   -1.633002    1.534749
     22          1           0       -0.403750    0.821112    1.136225
     23          1           0       -2.475141    1.882475    0.207286
     24          1           0       -4.398411   -1.952441    0.081937
     25          1           0       -2.333293   -3.026314    1.010468
     26          7           0       -4.742434    0.638989   -0.441684
     27          8           0       -5.698449   -0.094694   -0.683310
     28          8           0       -4.720682    1.854931   -0.619584
 ---------------------------------------------------------------------

 SCF Done:  E(RHF) =  -868.337947966     A.U. after   16 cycles
 E2 =    -0.2601241174D+01 EUMP2 =    -0.87093918914071D+03

 The electronic state is 1-A.
 Alpha  occ. eigenvalues --  -20.61642 -20.61611 -20.60849 -20.60832 -15.86674
 Alpha  occ. eigenvalues --  -15.85900 -11.32019 -11.31245 -11.28576 -11.28565
 Alpha  occ. eigenvalues --  -11.28314 -11.27932 -11.27788 -11.27637 -11.27550
 Alpha  occ. eigenvalues --  -11.27484 -11.26862 -11.26696  -1.60704  -1.59920
 Alpha  occ. eigenvalues --   -1.40256  -1.39475  -1.20206  -1.19426  -1.09591
 Alpha  occ. eigenvalues --   -1.08795  -1.05619  -1.04843  -0.96427  -0.95631
 Alpha  occ. eigenvalues --   -0.86997  -0.86232  -0.83270  -0.82476  -0.78334
 Alpha  occ. eigenvalues --   -0.77545  -0.72887  -0.72119  -0.72036  -0.71285
 Alpha  occ. eigenvalues --   -0.71243  -0.70456  -0.65865  -0.65609  -0.65065
 Alpha  occ. eigenvalues --   -0.64878  -0.62969  -0.62128  -0.56070  -0.55240
 Alpha  occ. eigenvalues --   -0.53964  -0.53722  -0.53092  -0.52885  -0.49647
 Alpha  occ. eigenvalues --   -0.49640  -0.48877  -0.48869  -0.45662  -0.44886
 Alpha  occ. eigenvalues --   -0.38172  -0.37411  -0.37148  -0.36443
 Alpha virt. eigenvalues --    0.04152   0.05014   0.10319   0.11149   0.15502
 Alpha virt. eigenvalues --    0.16506   0.20182   0.21908   0.25726   0.27606
 Alpha virt. eigenvalues --    0.28135   0.28517   0.30106   0.31413   0.32451

 Mulliken charges:
               1
     1  C   -0.169678
     2  C   -0.224628
     3  C   -0.181229
     4  C    0.156698
     5  C   -0.169735
     6  C   -0.218481
     7  H    0.229232
     8  H    0.223414
     9  H    0.282897
    10  H    0.277834
    11  H    0.226787
    12  N    0.487392
    13  O   -0.456882
    14  O   -0.462896
    15  C   -0.165139
    16  C   -0.233166
    17  C   -0.172743
    18  C    0.158375
    19  C   -0.169600
    20  C   -0.217591
    21  H    0.234651
    22  H    0.221630
    23  H    0.271119
    24  H    0.276859
    25  H    0.228274
    26  N    0.488319
    27  O   -0.459031
    28  O   -0.462686
 Sum of Mulliken charges =  -0.00000

 Dipole moment (field-independent basis, Debye):
    X=              4.7570    Y=              2.7124    Z=              2.8406  Tot=              6.1689
 Quadrupole moment (field-independent basis, Debye-Ang):
   XX=           -127.1397   YY=           -102.4984   ZZ=           -106.1311
   XY=             27.5603   XZ=             -2.1041   YZ=             -1.7336

 Normal termination of Gaussian 16 at Thu May  6 14:28:38 2021.
