 Gaussian 16, Revision A.03,
 Gaussian 16:  EM64L-G16RevA.03 25-Dec-2016

 -------------
 #p 6-31g* mp2
 -------------

 ------------------------------------------------------
 Input file generated by CHIRIPA (05-May-2021 14:51:10)
 ------------------------------------------------------
 Symbolic Z-matrix:
 Charge =  0 Multiplicity = 1

                         Standard orientation:
 ---------------------------------------------------------------------
 Center     Atomic      Atomic             Coordinates (Angstroms)
 Number     Number       Type             X           Y           Z
 ---------------------------------------------------------------------
      1          6           0        3.213752    0.736482   -0.556050
      2          6           0        3.378008    1.995302    0.296228
      3          6           0        2.799873    3.242271   -0.373564
      4          1           0        3.702582    0.892690   -1.527435
      5          1           0        2.146338    0.580175   -0.764832
      6          1           0        4.444683    2.148417    0.504501
      7          1           0        2.888896    1.836009    1.265770
      8          1           0        1.729805    3.114775   -0.566699
      9          1           0        3.294431    3.428958   -1.332293
     10          1           0        2.928071    4.130485    0.252936
     11          6           0        3.786816   -0.518413    0.100124
     12          6           0        3.622560   -1.777233   -0.752153
     13          6           0        4.200696   -3.024202   -0.082361
     14          1           0        4.854230   -0.362105    0.308907
     15          1           0        3.297987   -0.674621    1.071510
     16          1           0        4.111672   -1.617940   -1.721695
     17          1           0        2.555886   -1.930348   -0.960426
     18          1           0        3.706137   -3.210889    0.876368
     19          1           0        5.270763   -2.896706    0.110774
     20          1           0        4.072497   -3.912416   -0.708861
     21          6           0       -2.819172    0.235151    0.260435
     22          6           0       -1.795114   -0.525260    1.103682
     23          6           0       -0.437467    0.175825    1.159067
     24          1           0       -2.426766    0.358495   -0.758264
     25          1           0       -2.944158    1.246358    0.671814
     26          1           0       -1.673123   -1.535198    0.691660
     27          1           0       -2.190086   -0.646977    2.120440
     28          1           0       -0.538237    1.177048    1.590343
     29          1           0       -0.018337    0.283780    0.153445
     30          1           0        0.279401   -0.384864    1.767004
     31          6           0       -4.181397   -0.453221    0.195490
     32          6           0       -5.205454    0.307192   -0.647757
     33          6           0       -6.563101   -0.393893   -0.703141
     34          1           0       -4.056410   -1.464428   -0.215890
     35          1           0       -4.573802   -0.576565    1.214189
     36          1           0       -4.810482    0.428907   -1.664515
     37          1           0       -5.327445    1.317129   -0.235735
     38          1           0       -6.982231   -0.501850    0.302480
     39          1           0       -6.462332   -1.395117   -1.134418
     40          1           0       -7.279969    0.166795   -1.311079
 ---------------------------------------------------------------------

 SCF Done:  E(RHF) =  -470.733192193     A.U. after   11 cycles
 E2 =    -0.1583159527D+01 EUMP2 =    -0.47231635172068D+03

 The electronic state is 1-A.
 Alpha  occ. eigenvalues --  -11.21684 -11.21634 -11.21565 -11.21509 -11.21461
 Alpha  occ. eigenvalues --  -11.21399 -11.21328 -11.21254 -11.21182 -11.21096
 Alpha  occ. eigenvalues --  -11.21048 -11.21000  -1.08490  -1.08358  -1.03596
 Alpha  occ. eigenvalues --   -1.03466  -0.96053  -0.95913  -0.87074  -0.86930
 Alpha  occ. eigenvalues --   -0.79664  -0.79528  -0.78304  -0.78174  -0.65164
 Alpha  occ. eigenvalues --   -0.64964  -0.61001  -0.60860  -0.59414  -0.59287
 Alpha  occ. eigenvalues --   -0.57662  -0.57525  -0.55451  -0.55107  -0.52737
 Alpha  occ. eigenvalues --   -0.52617  -0.52488  -0.52339  -0.50065  -0.49800
 Alpha  occ. eigenvalues --   -0.48024  -0.47819  -0.46768  -0.46525  -0.45908
 Alpha  occ. eigenvalues --   -0.45779  -0.45698  -0.45448  -0.43841  -0.43718
 Alpha virt. eigenvalues --    0.20498   0.22977   0.24019   0.24580   0.25764
 Alpha virt. eigenvalues --    0.26119   0.26866   0.27668   0.27939   0.29639
 Alpha virt. eigenvalues --    0.30844   0.31153   0.31716   0.31838   0.32176

 Mulliken charges:
               1
     1  C   -0.302583
     2  C   -0.300114
     3  C   -0.476219
     4  H    0.148886
     5  H    0.154901
     6  H    0.151351
     7  H    0.153720
     8  H    0.155662
     9  H    0.154707
    10  H    0.159829
    11  C   -0.298865
    12  C   -0.299737
    13  C   -0.475604
    14  H    0.149238
    15  H    0.150493
    16  H    0.151758
    17  H    0.151619
    18  H    0.154956
    19  H    0.155172
    20  H    0.160006
    21  C   -0.298587
    22  C   -0.299848
    23  C   -0.481028
    24  H    0.149683
    25  H    0.149762
    26  H    0.152101
    27  H    0.152304
    28  H    0.155999
    29  H    0.159027
    30  H    0.160820
    31  C   -0.298335
    32  C   -0.299726
    33  C   -0.475750
    34  H    0.149645
    35  H    0.149795
    36  H    0.152052
    37  H    0.152033
    38  H    0.155230
    39  H    0.155244
    40  H    0.160402
 Sum of Mulliken charges =  -0.00000

 Dipole moment (field-independent basis, Debye):
    X=             -0.0484    Y=              0.0005    Z=              0.0144  Tot=              0.0505
 Quadrupole moment (field-independent basis, Debye-Ang):
   XX=            -85.1686   YY=            -85.6936   ZZ=            -84.0376
   XY=             -0.0397   XZ=             -0.8951   YZ=              0.6735

 Normal termination of Gaussian 16 at Thu May  6 05:21:40 2021.
