 Gaussian 16, Revision A.03,
 Gaussian 16:  EM64L-G16RevA.03 25-Dec-2016

 -------------
 #p 6-31g* mp2
 -------------

 ------------------------------------------------------
 Input file generated by CHIRIPA (05-May-2021 14:51:08)
 ------------------------------------------------------
 Symbolic Z-matrix:
 Charge =  0 Multiplicity = 1

                         Standard orientation:
 ---------------------------------------------------------------------
 Center     Atomic      Atomic             Coordinates (Angstroms)
 Number     Number       Type             X           Y           Z
 ---------------------------------------------------------------------
      1          6           0        2.261484   -1.203046    0.346806
      2          6           0        1.303281   -0.981963    1.517683
      3          6           0        0.376507   -2.174400    1.756384
      4          1           0        1.678831   -1.404220   -0.562584
      5          1           0        2.862224   -2.102896    0.538577
      6          1           0        0.705492   -0.082015    1.324402
      7          1           0        1.888279   -0.781102    2.424352
      8          1           0        0.957554   -3.076312    1.974421
      9          1           0       -0.231954   -2.373253    0.868221
     10          1           0       -0.299965   -1.994969    2.597841
     11          6           0        3.194414   -0.019694    0.095712
     12          6           0        4.152617   -0.240777   -1.075165
     13          6           0        5.079391    0.951660   -1.313866
     14          1           0        2.593673    0.880156   -0.096058
     15          1           0        3.777067    0.181480    1.005102
     16          1           0        3.567619   -0.441638   -1.981834
     17          1           0        4.750406   -1.140725   -0.881883
     18          1           0        5.687852    1.150513   -0.425703
     19          1           0        4.498344    1.853572   -1.531903
     20          1           0        5.755863    0.772229   -2.155323
     21          6           0       -3.190790    0.230871   -0.695000
     22          6           0       -3.216461   -1.276073   -0.437234
     23          6           0       -4.146915   -2.023521   -1.392939
     24          1           0       -4.210363    0.629577   -0.603077
     25          1           0       -2.876201    0.413143   -1.731921
     26          1           0       -3.529575   -1.455400    0.599308
     27          1           0       -2.196678   -1.671207   -0.529593
     28          1           0       -3.833526   -1.874092   -2.431235
     29          1           0       -5.173995   -1.657060   -1.295921
     30          1           0       -4.150001   -3.099184   -1.190953
     31          6           0       -2.265108    0.991869    0.252482
     32          6           0       -2.239437    2.498814   -0.005285
     33          6           0       -1.308983    3.246261    0.950421
     34          1           0       -2.579697    0.809597    1.289403
     35          1           0       -1.245534    0.593163    0.160559
     36          1           0       -3.259219    2.893946    0.087075
     37          1           0       -1.926323    2.678140   -1.041826
     38          1           0       -0.281903    2.879800    0.853403
     39          1           0       -1.622372    3.096832    1.988716
     40          1           0       -1.305898    4.321925    0.748435
 ---------------------------------------------------------------------

 SCF Done:  E(RHF) =  -470.732882822     A.U. after   11 cycles
 E2 =    -0.1584121150D+01 EUMP2 =    -0.47231700397161D+03

 The electronic state is 1-A.
 Alpha  occ. eigenvalues --  -11.21642 -11.21624 -11.21619 -11.21551 -11.21434
 Alpha  occ. eigenvalues --  -11.21428 -11.21374 -11.21367 -11.21118 -11.21087
 Alpha  occ. eigenvalues --  -11.21086 -11.21011  -1.08489  -1.08422  -1.03564
 Alpha  occ. eigenvalues --   -1.03526  -0.96015  -0.95973  -0.87042  -0.86979
 Alpha  occ. eigenvalues --   -0.79700  -0.79520  -0.78336  -0.78212  -0.65283
 Alpha  occ. eigenvalues --   -0.64919  -0.60970  -0.60933  -0.59402  -0.59327
 Alpha  occ. eigenvalues --   -0.57665  -0.57541  -0.55319  -0.55263  -0.52710
 Alpha  occ. eigenvalues --   -0.52655  -0.52454  -0.52391  -0.50071  -0.49838
 Alpha  occ. eigenvalues --   -0.47982  -0.47951  -0.46867  -0.46412  -0.46082
 Alpha  occ. eigenvalues --   -0.45767  -0.45719  -0.45327  -0.43816  -0.43781
 Alpha virt. eigenvalues --    0.19956   0.22743   0.23610   0.23987   0.25615
 Alpha virt. eigenvalues --    0.26661   0.26822   0.27758   0.28313   0.29701
 Alpha virt. eigenvalues --    0.30606   0.31452   0.31714   0.31848   0.32295

 Mulliken charges:
               1
     1  C   -0.298467
     2  C   -0.306592
     3  C   -0.479051
     4  H    0.148375
     5  H    0.149937
     6  H    0.157991
     7  H    0.152234
     8  H    0.154692
     9  H    0.159206
    10  H    0.160502
    11  C   -0.298246
    12  C   -0.299625
    13  C   -0.475732
    14  H    0.148497
    15  H    0.150124
    16  H    0.151742
    17  H    0.152137
    18  H    0.155326
    19  H    0.155167
    20  H    0.160313
    21  C   -0.297772
    22  C   -0.303690
    23  C   -0.475528
    24  H    0.149902
    25  H    0.149043
    26  H    0.152644
    27  H    0.155548
    28  H    0.154936
    29  H    0.155292
    30  H    0.160535
    31  C   -0.304860
    32  C   -0.299456
    33  C   -0.477013
    34  H    0.149725
    35  H    0.156561
    36  H    0.152253
    37  H    0.151580
    38  H    0.155501
    39  H    0.155623
    40  H    0.160645
 Sum of Mulliken charges =  -0.00000

 Dipole moment (field-independent basis, Debye):
    X=             -0.0249    Y=              0.0024    Z=              0.0125  Tot=              0.0280
 Quadrupole moment (field-independent basis, Debye-Ang):
   XX=            -84.5824   YY=            -85.6834   ZZ=            -84.4189
   XY=             -1.3757   XZ=             -0.2759   YZ=             -0.3506

 Normal termination of Gaussian 16 at Wed May  5 22:54:34 2021.
