 Gaussian 16, Revision A.03,
 Gaussian 16:  EM64L-G16RevA.03 25-Dec-2016

 -------------
 #p 6-31g* mp2
 -------------

 ------------------------------------------------------
 Input file generated by CHIRIPA (05-May-2021 14:55:21)
 ------------------------------------------------------
 Symbolic Z-matrix:
 Charge =  0 Multiplicity = 1

                         Standard orientation:
 ---------------------------------------------------------------------
 Center     Atomic      Atomic             Coordinates (Angstroms)
 Number     Number       Type             X           Y           Z
 ---------------------------------------------------------------------
      1          6           0       -2.878289    1.796776    1.018242
      2          6           0       -3.547154    1.201200   -0.056203
      3          6           0       -3.122178   -0.030862   -0.562136
      4          6           0       -2.019776   -0.642210    0.033055
      5          6           0       -1.332513   -0.074172    1.104639
      6          6           0       -1.775049    1.158315    1.594218
      7          1           0       -3.215241    2.754036    1.404910
      8          1           0       -4.404242    1.694747   -0.505487
      9          1           0       -3.621587   -0.514303   -1.392974
     10          1           0       -0.481259   -0.590300    1.531719
     11          1           0       -1.253671    1.618502    2.428746
     12          7           0       -1.560578   -1.946763   -0.493897
     13          8           0       -0.586714   -2.464985    0.048019
     14          8           0       -2.183218   -2.426349   -1.438859
     15          6           0        2.793564    1.299070   -0.225220
     16          6           0        1.575291    2.042859   -0.773466
     17          6           0        1.813595    3.546856   -0.911296
     18          1           0        3.062715    1.720283    0.753085
     19          1           0        3.651569    1.476037   -0.888474
     20          1           0        0.719490    1.863416   -0.110127
     21          1           0        1.308892    1.619700   -1.750495
     22          1           0        2.650163    3.743788   -1.589509
     23          1           0        2.057412    3.988888    0.060179
     24          1           0        0.929996    4.058928   -1.304863
     25          6           0        2.570806   -0.205429   -0.081731
     26          6           0        3.789080   -0.949217    0.466515
     27          6           0        3.550775   -2.453214    0.604343
     28          1           0        1.712801   -0.382396    0.581522
     29          1           0        2.301656   -0.626640   -1.060038
     30          1           0        4.055479   -0.526058    1.443542
     31          1           0        4.644881   -0.769772   -0.196825
     32          1           0        3.306959   -2.895246   -0.367132
     33          1           0        2.714208   -2.650146    1.282557
     34          1           0        4.434374   -2.965286    0.997910
 ---------------------------------------------------------------------

 SCF Done:  E(RHF) =  -669.534863657     A.U. after   15 cycles
 E2 =    -0.2094171654D+01 EUMP2 =    -0.67162903531171D+03

 The electronic state is 1-A.
 Alpha  occ. eigenvalues --  -20.60851 -20.60832 -15.85885 -11.31261 -11.27848
 Alpha  occ. eigenvalues --  -11.27836 -11.27589 -11.26866 -11.26844 -11.21532
 Alpha  occ. eigenvalues --  -11.21268 -11.21201 -11.21188 -11.21043 -11.20341
 Alpha  occ. eigenvalues --   -1.59908  -1.39462  -1.19451  -1.08835  -1.08223
 Alpha  occ. eigenvalues --   -1.04865  -1.03277  -0.95724  -0.95666  -0.86730
 Alpha  occ. eigenvalues --   -0.86253  -0.82506  -0.79362  -0.78073  -0.77490
 Alpha  occ. eigenvalues --   -0.72106  -0.71222  -0.70564  -0.65106  -0.64992
 Alpha  occ. eigenvalues --   -0.64771  -0.62211  -0.60696  -0.59123  -0.57315
 Alpha  occ. eigenvalues --   -0.55369  -0.55004  -0.53222  -0.52967  -0.52409
 Alpha  occ. eigenvalues --   -0.52101  -0.49654  -0.48875  -0.48863  -0.47645
 Alpha  occ. eigenvalues --   -0.46412  -0.45621  -0.45471  -0.44734  -0.43544
 Alpha  occ. eigenvalues --   -0.37417  -0.36377
 Alpha virt. eigenvalues --    0.04952   0.11107   0.16400   0.20667   0.23164
 Alpha virt. eigenvalues --    0.24209   0.25853   0.27304   0.27696   0.28252
 Alpha virt. eigenvalues --    0.29479   0.30375   0.31569   0.31873   0.32129

 Mulliken charges:
               1
     1  C   -0.170383
     2  C   -0.218316
     3  C   -0.170556
     4  C    0.159360
     5  C   -0.169383
     6  C   -0.219842
     7  H    0.226252
     8  H    0.223855
     9  H    0.275913
    10  H    0.278038
    11  H    0.224136
    12  N    0.488594
    13  O   -0.460695
    14  O   -0.460126
    15  C   -0.298173
    16  C   -0.305158
    17  C   -0.474856
    18  H    0.144665
    19  H    0.150128
    20  H    0.152666
    21  H    0.153528
    22  H    0.156576
    23  H    0.151683
    24  H    0.157679
    25  C   -0.299007
    26  C   -0.300583
    27  C   -0.474495
    28  H    0.146379
    29  H    0.156322
    30  H    0.146691
    31  H    0.150653
    32  H    0.161920
    33  H    0.160641
    34  H    0.155892
 Sum of Mulliken charges =  -0.00000

 Dipole moment (field-independent basis, Debye):
    X=             -1.7613    Y=              4.4154    Z=              1.7878  Tot=              5.0788
 Quadrupole moment (field-independent basis, Debye-Ang):
   XX=            -86.0302   YY=           -102.6938   ZZ=            -91.8296
   XY=             -8.9437   XZ=             -1.5665   YZ=             -0.6634

 Normal termination of Gaussian 16 at Thu May  6 01:26:23 2021.
