 Gaussian 16, Revision A.03,
 Gaussian 16:  EM64L-G16RevA.03 25-Dec-2016

 -------------
 #p 6-31g* mp2
 -------------

 ------------------------------------------------------
 Input file generated by CHIRIPA (05-May-2021 14:57:24)
 ------------------------------------------------------
 Symbolic Z-matrix:
 Charge =  0 Multiplicity = 1

                         Standard orientation:
 ---------------------------------------------------------------------
 Center     Atomic      Atomic             Coordinates (Angstroms)
 Number     Number       Type             X           Y           Z
 ---------------------------------------------------------------------
      1          6           0        2.242985    2.039157    0.221491
      2          6           0        2.112025    0.947081    1.085632
      3          6           0        2.956398   -0.160437    0.963218
      4          6           0        3.925132   -0.142310   -0.039038
      5          6           0        4.080452    0.930680   -0.915314
      6          6           0        3.225050    2.027492   -0.774468
      7          1           0        1.582772    2.895345    0.323744
      8          1           0        1.350240    0.953389    1.860028
      9          1           0        2.876933   -1.019186    1.618697
     10          1           0        4.849312    0.895398   -1.677566
     11          1           0        3.329053    2.874219   -1.446987
     12          7           0        4.824870   -1.309122   -0.178389
     13          8           0        5.670326   -1.268674   -1.069570
     14          8           0        4.667593   -2.242025    0.606209
     15          6           0       -1.708509    1.287401    0.563143
     16          6           0       -1.697337   -0.104955    0.696343
     17          6           0       -2.837574   -0.856106    0.396042
     18          6           0       -3.976803   -0.179290   -0.036818
     19          6           0       -4.019184    1.206754   -0.179563
     20          6           0       -2.867353    1.937665    0.126385
     21          1           0       -0.818242    1.863052    0.798616
     22          1           0       -0.798784   -0.612635    1.035322
     23          1           0       -2.856500   -1.935075    0.490307
     24          1           0       -4.929873    1.684629   -0.519709
     25          1           0       -2.878920    3.018876    0.022012
     26          7           0       -5.190057   -0.963787   -0.357721
     27          8           0       -6.181083   -0.343697   -0.737185
     28          8           0       -5.127007   -2.183910   -0.223705
 ---------------------------------------------------------------------

 SCF Done:  E(RHF) =  -868.335641426     A.U. after   16 cycles
 E2 =    -0.2601507631D+01 EUMP2 =    -0.87093714905693D+03

 The electronic state is 1-A.
 Alpha  occ. eigenvalues --  -20.61503 -20.61494 -20.61158 -20.61151 -15.86565
 Alpha  occ. eigenvalues --  -15.86215 -11.32154 -11.31722 -11.28815 -11.28714
 Alpha  occ. eigenvalues --  -11.28646 -11.28302 -11.28287 -11.28195 -11.27958
 Alpha  occ. eigenvalues --  -11.27775 -11.27404 -11.27388  -1.60572  -1.60229
 Alpha  occ. eigenvalues --   -1.40119  -1.39778  -1.20374  -1.19921  -1.09754
 Alpha  occ. eigenvalues --   -1.09316  -1.05817  -1.05337  -0.96544  -0.96122
 Alpha  occ. eigenvalues --   -0.87236  -0.86740  -0.83365  -0.82946  -0.78361
 Alpha  occ. eigenvalues --   -0.77937  -0.72784  -0.72433  -0.71898  -0.71663
 Alpha  occ. eigenvalues --   -0.71553  -0.71022  -0.66042  -0.65954  -0.65569
 Alpha  occ. eigenvalues --   -0.65284  -0.63159  -0.62650  -0.56437  -0.55904
 Alpha  occ. eigenvalues --   -0.54112  -0.53925  -0.53652  -0.53424  -0.49557
 Alpha  occ. eigenvalues --   -0.49518  -0.49205  -0.49176  -0.45475  -0.45152
 Alpha  occ. eigenvalues --   -0.38418  -0.37914  -0.37395  -0.36919
 Alpha virt. eigenvalues --    0.04144   0.04601   0.10086   0.10717   0.15451
 Alpha virt. eigenvalues --    0.16067   0.18018   0.22332   0.24464   0.25272
 Alpha virt. eigenvalues --    0.27795   0.29296   0.30049   0.30580   0.32602

 Mulliken charges:
               1
     1  C   -0.171197
     2  C   -0.223579
     3  C   -0.171362
     4  C    0.159869
     5  C   -0.168522
     6  C   -0.217466
     7  H    0.220981
     8  H    0.218544
     9  H    0.277341
    10  H    0.279569
    11  H    0.227164
    12  N    0.487997
    13  O   -0.457002
    14  O   -0.458489
    15  C   -0.170340
    16  C   -0.218737
    17  C   -0.169826
    18  C    0.159253
    19  C   -0.169999
    20  C   -0.219123
    21  H    0.215089
    22  H    0.221020
    23  H    0.278536
    24  H    0.277235
    25  H    0.222567
    26  N    0.487865
    27  O   -0.459202
    28  O   -0.458186
 Sum of Mulliken charges =  -0.00000

 Dipole moment (field-independent basis, Debye):
    X=              1.2729    Y=              6.7322    Z=              1.4339  Tot=              6.9999
 Quadrupole moment (field-independent basis, Debye-Ang):
   XX=           -160.5214   YY=           -103.0961   ZZ=           -102.9086
   XY=              3.8555   XZ=             -4.2565   YZ=             -3.9591

 Normal termination of Gaussian 16 at Thu May  6 08:15:15 2021.
