 Gaussian 16, Revision A.03,
 Gaussian 16:  EM64L-G16RevA.03 25-Dec-2016

 -------------
 #p 6-31g* mp2
 -------------

 ------------------------------------------------------
 Input file generated by CHIRIPA (05-May-2021 14:53:15)
 ------------------------------------------------------
 Symbolic Z-matrix:
 Charge =  0 Multiplicity = 1

                         Standard orientation:
 ---------------------------------------------------------------------
 Center     Atomic      Atomic             Coordinates (Angstroms)
 Number     Number       Type             X           Y           Z
 ---------------------------------------------------------------------
      1          6           0        3.734920    0.392729   -0.088290
      2          6           0        5.032150    0.029323   -0.811556
      3          6           0        5.483377    1.109746   -1.794854
      4          1           0        2.944807    0.567334   -0.831378
      5          1           0        3.875450    1.341773    0.447398
      6          1           0        4.889646   -0.919456   -1.344592
      7          1           0        5.819218   -0.144624   -0.066652
      8          1           0        5.653100    2.057803   -1.274293
      9          1           0        4.718246    1.278568   -2.559494
     10          1           0        6.412537    0.829413   -2.300754
     11          6           0        3.270980   -0.677555    0.898107
     12          6           0        1.973750   -0.314149    1.621374
     13          6           0        1.522523   -1.394572    2.604671
     14          1           0        3.130450   -1.626599    0.362419
     15          1           0        4.061093   -0.852160    1.641196
     16          1           0        1.186682   -0.140202    0.876470
     17          1           0        2.116254    0.634630    2.154409
     18          1           0        2.287654   -1.563395    3.369311
     19          1           0        1.352800   -2.342629    2.084110
     20          1           0        0.593363   -1.114239    3.110571
     21          6           0       -2.533096   -2.261890   -1.148580
     22          6           0       -1.398129   -1.448243   -1.068908
     23          6           0       -1.499125   -0.131777   -0.609272
     24          6           0       -2.756362    0.340688   -0.235876
     25          6           0       -3.905637   -0.445341   -0.303825
     26          6           0       -3.781027   -1.758730   -0.766459
     27          1           0       -2.445468   -3.283357   -1.506800
     28          1           0       -0.427684   -1.836336   -1.364991
     29          1           0       -0.636777    0.519854   -0.537504
     30          1           0       -4.859486   -0.030356   -0.001539
     31          1           0       -4.664166   -2.388341   -0.827277
     32          7           0       -2.875780    1.732742    0.252306
     33          8           0       -3.994837    2.125249    0.575242
     34          8           0       -1.848064    2.404969    0.302764
 ---------------------------------------------------------------------

 SCF Done:  E(RHF) =  -669.535237896     A.U. after   15 cycles
 E2 =    -0.2091857580D+01 EUMP2 =    -0.67162709547554D+03

 The electronic state is 1-A.
 Alpha  occ. eigenvalues --  -20.60769 -20.60763 -15.85823 -11.31203 -11.27780
 Alpha  occ. eigenvalues --  -11.27766 -11.27526 -11.26806 -11.26794 -11.21920
 Alpha  occ. eigenvalues --  -11.21863 -11.21744 -11.21668 -11.21332 -11.21246
 Alpha  occ. eigenvalues --   -1.59844  -1.39397  -1.19384  -1.08774  -1.08744
 Alpha  occ. eigenvalues --   -1.04795  -1.03799  -0.96240  -0.95606  -0.87256
 Alpha  occ. eigenvalues --   -0.86188  -0.82441  -0.79868  -0.78560  -0.77478
 Alpha  occ. eigenvalues --   -0.72041  -0.71168  -0.70501  -0.65412  -0.65031
 Alpha  occ. eigenvalues --   -0.64794  -0.62191  -0.61166  -0.59598  -0.57844
 Alpha  occ. eigenvalues --   -0.55542  -0.55290  -0.53114  -0.52939  -0.52875
 Alpha  occ. eigenvalues --   -0.52651  -0.50189  -0.48802  -0.48795  -0.48165
 Alpha  occ. eigenvalues --   -0.46909  -0.46089  -0.46023  -0.44797  -0.44061
 Alpha  occ. eigenvalues --   -0.37362  -0.36374
 Alpha virt. eigenvalues --    0.05016   0.11228   0.16465   0.19812   0.22898
 Alpha virt. eigenvalues --    0.24044   0.24970   0.26604   0.27690   0.28003
 Alpha virt. eigenvalues --    0.29622   0.30574   0.31412   0.31591   0.32116

 Mulliken charges:
               1
     1  C   -0.297521
     2  C   -0.299661
     3  C   -0.475845
     4  H    0.144145
     5  H    0.154593
     6  H    0.149535
     7  H    0.153317
     8  H    0.157520
     9  H    0.154928
    10  H    0.160671
    11  C   -0.298555
    12  C   -0.302224
    13  C   -0.475115
    14  H    0.144113
    15  H    0.152318
    16  H    0.144778
    17  H    0.159840
    18  H    0.156912
    19  H    0.150490
    20  H    0.164367
    21  C   -0.170760
    22  C   -0.218710
    23  C   -0.172898
    24  C    0.158468
    25  C   -0.170908
    26  C   -0.218401
    27  H    0.225696
    28  H    0.223328
    29  H    0.278871
    30  H    0.275727
    31  H    0.223606
    32  N    0.487811
    33  O   -0.460506
    34  O   -0.459934
 Sum of Mulliken charges =  -0.00000

 Dipole moment (field-independent basis, Debye):
    X=              0.4693    Y=             -4.8392    Z=             -1.6307  Tot=              5.1281
 Quadrupole moment (field-independent basis, Debye-Ang):
   XX=            -91.6872   YY=            -98.9804   ZZ=            -94.4779
   XY=             14.8092   XZ=              4.9488   YZ=              1.4682

 Normal termination of Gaussian 16 at Wed May  5 18:41:07 2021.
