 Gaussian 16, Revision A.03,
 Gaussian 16:  EM64L-G16RevA.03 25-Dec-2016

 -------------
 #p 6-31g* mp2
 -------------

 ------------------------------------------------------
 Input file generated by CHIRIPA (05-May-2021 14:57:22)
 ------------------------------------------------------
 Symbolic Z-matrix:
 Charge =  0 Multiplicity = 1

                         Standard orientation:
 ---------------------------------------------------------------------
 Center     Atomic      Atomic             Coordinates (Angstroms)
 Number     Number       Type             X           Y           Z
 ---------------------------------------------------------------------
      1          6           0        2.849786    2.262169    0.372420
      2          6           0        4.231756    2.227048    0.585601
      3          6           0        4.956383    1.054186    0.353530
      4          6           0        4.263921   -0.070109   -0.093401
      5          6           0        2.887645   -0.066617   -0.315081
      6          6           0        2.183316    1.117243   -0.076449
      7          1           0        2.294762    3.177548    0.555247
      8          1           0        4.751975    3.114694    0.934172
      9          1           0        6.026801    0.999203    0.510377
     10          1           0        2.396783   -0.967471   -0.662835
     11          1           0        1.110117    1.141605   -0.242866
     12          7           0        5.020307   -1.317587   -0.342557
     13          8           0        4.386846   -2.294579   -0.736066
     14          8           0        6.232302   -1.294746   -0.139619
     15          6           0       -1.678965   -0.375889    0.557390
     16          6           0       -2.623241   -1.047990    1.340423
     17          6           0       -3.989048   -0.922111    1.069729
     18          6           0       -4.377112   -0.112250    0.003510
     19          6           0       -3.460470    0.570127   -0.794876
     20          6           0       -2.099850    0.429604   -0.505885
     21          1           0       -0.619987   -0.479363    0.774779
     22          1           0       -2.299268   -1.674226    2.166810
     23          1           0       -4.741398   -1.431183    1.659840
     24          1           0       -3.813902    1.187247   -1.611984
     25          1           0       -1.368748    0.952746   -1.115686
     26          7           0       -5.820285    0.028765   -0.292747
     27          8           0       -6.136436    0.748282   -1.237722
     28          8           0       -6.607964   -0.582896    0.425633
 ---------------------------------------------------------------------

 SCF Done:  E(RHF) =  -868.336363415     A.U. after   16 cycles
 E2 =    -0.2600271985D+01 EUMP2 =    -0.87093663540002D+03

 The electronic state is 1-A.
 Alpha  occ. eigenvalues --  -20.61472 -20.61462 -20.61207 -20.61199 -15.86533
 Alpha  occ. eigenvalues --  -15.86265 -11.32048 -11.31763 -11.28737 -11.28610
 Alpha  occ. eigenvalues --  -11.28423 -11.28391 -11.28316 -11.28200 -11.27835
 Alpha  occ. eigenvalues --  -11.27612 -11.27529 -11.27360  -1.60544  -1.60278
 Alpha  occ. eigenvalues --   -1.40093  -1.39827  -1.20255  -1.19966  -1.09613
 Alpha  occ. eigenvalues --   -1.09358  -1.05706  -1.05390  -0.96416  -0.96164
 Alpha  occ. eigenvalues --   -0.87100  -0.86794  -0.83273  -0.82983  -0.78303
 Alpha  occ. eigenvalues --   -0.77990  -0.72746  -0.72483  -0.71871  -0.71602
 Alpha  occ. eigenvalues --   -0.71347  -0.71129  -0.65914  -0.65903  -0.65604
 Alpha  occ. eigenvalues --   -0.65312  -0.63074  -0.62693  -0.56179  -0.55941
 Alpha  occ. eigenvalues --   -0.53987  -0.53842  -0.53695  -0.53464  -0.49518
 Alpha  occ. eigenvalues --   -0.49492  -0.49253  -0.49226  -0.45466  -0.45203
 Alpha  occ. eigenvalues --   -0.38219  -0.37978  -0.37309  -0.36982
 Alpha virt. eigenvalues --    0.04260   0.04546   0.10323   0.10635   0.15600
 Alpha virt. eigenvalues --    0.15992   0.17721   0.22094   0.24660   0.26050
 Alpha virt. eigenvalues --    0.27755   0.28949   0.29854   0.30797   0.31889

 Mulliken charges:
               1
     1  C   -0.171123
     2  C   -0.218269
     3  C   -0.168997
     4  C    0.159375
     5  C   -0.173761
     6  C   -0.225109
     7  H    0.228868
     8  H    0.227066
     9  H    0.278756
    10  H    0.274767
    11  H    0.218923
    12  N    0.488087
    13  O   -0.459753
    14  O   -0.457587
    15  C   -0.173742
    16  C   -0.218035
    17  C   -0.169673
    18  C    0.159045
    19  C   -0.169361
    20  C   -0.222489
    21  H    0.222572
    22  H    0.227242
    23  H    0.278175
    24  H    0.277227
    25  H    0.217452
    26  N    0.487934
    27  O   -0.459306
    28  O   -0.458284
 Sum of Mulliken charges =  -0.00000

 Dipole moment (field-independent basis, Debye):
    X=              2.4969    Y=              3.8943    Z=              2.0090  Tot=              5.0434
 Quadrupole moment (field-independent basis, Debye-Ang):
   XX=           -166.6024   YY=           -103.0857   ZZ=           -102.7389
   XY=             24.1328   XZ=             -0.1833   YZ=             -2.5779

 Normal termination of Gaussian 16 at Fri May  7 01:45:57 2021.
