 Gaussian 16, Revision A.03,
 Gaussian 16:  EM64L-G16RevA.03 25-Dec-2016

 -------------
 #p 6-31g* mp2
 -------------

 ------------------------------------------------------
 Input file generated by CHIRIPA (05-May-2021 14:57:23)
 ------------------------------------------------------
 Symbolic Z-matrix:
 Charge =  0 Multiplicity = 1

                         Standard orientation:
 ---------------------------------------------------------------------
 Center     Atomic      Atomic             Coordinates (Angstroms)
 Number     Number       Type             X           Y           Z
 ---------------------------------------------------------------------
      1          6           0       -4.847691   -1.860297    0.021821
      2          6           0       -3.593361   -1.824627    0.639806
      3          6           0       -2.791571   -0.682595    0.553537
      4          6           0       -3.277553    0.410646   -0.161959
      5          6           0       -4.522785    0.405759   -0.788588
      6          6           0       -5.307589   -0.746953   -0.689151
      7          1           0       -5.463943   -2.751603    0.093951
      8          1           0       -3.233630   -2.687784    1.192616
      9          1           0       -1.816551   -0.627935    1.022330
     10          1           0       -4.854315    1.281800   -1.332700
     11          1           0       -6.281302   -0.771819   -1.170096
     12          7           0       -2.437725    1.625318   -0.260259
     13          8           0       -2.888729    2.575290   -0.896486
     14          8           0       -1.344367    1.604404    0.300782
     15          6           0        1.530069   -0.081458    1.816887
     16          6           0        1.435029   -0.943307    0.719297
     17          6           0        2.473851   -1.022967   -0.212933
     18          6           0        3.598289   -0.222924   -0.015800
     19          6           0        3.722625    0.645525    1.067540
     20          6           0        2.671551    0.708813    1.987206
     21          1           0        0.718328   -0.025935    2.536185
     22          1           0        0.549727   -1.558216    0.584487
     23          1           0        2.426434   -1.681563   -1.071666
     24          1           0        4.617661    1.246144    1.175182
     25          1           0        2.748102    1.379041    2.838664
     26          7           0        4.704529   -0.298591   -0.996059
     27          8           0        5.684587    0.416676   -0.799808
     28          8           0        4.570594   -1.071734   -1.942077
 ---------------------------------------------------------------------

 SCF Done:  E(RHF) =  -868.336907321     A.U. after   16 cycles
 E2 =    -0.2600721872D+01 EUMP2 =    -0.87093762919228D+03

 The electronic state is 1-A.
 Alpha  occ. eigenvalues --  -20.61461 -20.61440 -20.60343 -20.60335 -15.86502
 Alpha  occ. eigenvalues --  -15.85397 -11.31950 -11.30680 -11.28624 -11.28442
 Alpha  occ. eigenvalues --  -11.28201 -11.27577 -11.27464 -11.27318 -11.27251
 Alpha  occ. eigenvalues --  -11.27042 -11.26383 -11.26216  -1.60521  -1.59418
 Alpha  occ. eigenvalues --   -1.40076  -1.38975  -1.20108  -1.18863  -1.09473
 Alpha  occ. eigenvalues --   -1.08275  -1.05534  -1.04283  -0.96309  -0.95122
 Alpha  occ. eigenvalues --   -0.86922  -0.85704  -0.83145  -0.81973  -0.78206
 Alpha  occ. eigenvalues --   -0.77031  -0.72724  -0.71842  -0.71624  -0.71217
 Alpha  occ. eigenvalues --   -0.70737  -0.69999  -0.65759  -0.65554  -0.64545
 Alpha  occ. eigenvalues --   -0.64363  -0.62884  -0.61647  -0.55987  -0.54807
 Alpha  occ. eigenvalues --   -0.53835  -0.53636  -0.52553  -0.52406  -0.49489
 Alpha  occ. eigenvalues --   -0.49465  -0.48376  -0.48374  -0.45462  -0.44400
 Alpha  occ. eigenvalues --   -0.38054  -0.37137  -0.36767  -0.35856
 Alpha virt. eigenvalues --    0.04332   0.05544   0.10480   0.11746   0.15836
 Alpha virt. eigenvalues --    0.17051   0.19032   0.22071   0.25478   0.27071
 Alpha virt. eigenvalues --    0.27903   0.29103   0.30715   0.31164   0.32009

 Mulliken charges:
               1
     1  C   -0.170182
     2  C   -0.219378
     3  C   -0.175313
     4  C    0.159427
     5  C   -0.169599
     6  C   -0.217754
     7  H    0.228272
     8  H    0.222724
     9  H    0.268961
    10  H    0.278268
    11  H    0.226604
    12  N    0.488633
    13  O   -0.456086
    14  O   -0.464396
    15  C   -0.155805
    16  C   -0.212484
    17  C   -0.170474
    18  C    0.158359
    19  C   -0.169591
    20  C   -0.217645
    21  H    0.221679
    22  H    0.209191
    23  H    0.273178
    24  H    0.274913
    25  H    0.223608
    26  N    0.488304
    27  O   -0.461004
    28  O   -0.462409
 Sum of Mulliken charges =  -0.00000

 Dipole moment (field-independent basis, Debye):
    X=             -7.1011    Y=             -3.8203    Z=              3.7481  Tot=              8.8920
 Quadrupole moment (field-independent basis, Debye-Ang):
   XX=           -109.4697   YY=           -106.0796   ZZ=           -103.2857
   XY=             15.3361   XZ=             16.1967   YZ=              0.8128

 Normal termination of Gaussian 16 at Thu May  6 11:18:36 2021.
