 Gaussian 16, Revision A.03,
 Gaussian 16:  EM64L-G16RevA.03 25-Dec-2016

 -------------
 #p 6-31g* mp2
 -------------

 ------------------------------------------------------
 Input file generated by CHIRIPA (05-May-2021 14:57:25)
 ------------------------------------------------------
 Symbolic Z-matrix:
 Charge =  0 Multiplicity = 1

                         Standard orientation:
 ---------------------------------------------------------------------
 Center     Atomic      Atomic             Coordinates (Angstroms)
 Number     Number       Type             X           Y           Z
 ---------------------------------------------------------------------
      1          6           0        2.117826    1.502245   -0.859459
      2          6           0        2.078943    0.104136   -0.876742
      3          6           0        3.188869   -0.642105   -0.469634
      4          6           0        4.326375    0.045437   -0.049329
      5          6           0        4.395924    1.437428   -0.020767
      6          6           0        3.274154    2.163264   -0.432279
      7          1           0        1.251008    2.074017   -1.177420
      8          1           0        1.182272   -0.411898   -1.208005
      9          1           0        3.185951   -1.725340   -0.473007
     10          1           0        5.303971    1.923619    0.314621
     11          1           0        3.307200    3.248963   -0.417807
     12          7           0        5.507674   -0.733773    0.383989
     13          8           0        6.497828   -0.104226    0.749915
     14          8           0        5.421053   -1.959312    0.349494
     15          6           0       -6.616111    0.260375    0.050169
     16          6           0       -5.971249   -0.297600   -1.058586
     17          6           0       -4.595104   -0.542539   -1.030662
     18          6           0       -3.891498   -0.215841    0.127568
     19          6           0       -4.505395    0.341134    1.248371
     20          6           0       -5.882420    0.577402    1.198084
     21          1           0       -7.685475    0.447282    0.019791
     22          1           0       -6.538509   -0.544810   -1.951417
     23          1           0       -4.070641   -0.973577   -1.874796
     24          1           0       -3.913228    0.577005    2.124226
     25          1           0       -6.380583    1.010830    2.060649
     26          7           0       -2.434169   -0.470557    0.168967
     27          8           0       -1.836826   -0.173820    1.201327
     28          8           0       -1.916853   -0.962117   -0.831728
 ---------------------------------------------------------------------

 SCF Done:  E(RHF) =  -868.340292764     A.U. after   16 cycles
 E2 =    -0.2598425171D+01 EUMP2 =    -0.87093871793544D+03

 The electronic state is 1-A.
 Alpha  occ. eigenvalues --  -20.61807 -20.61793 -20.59867 -20.59856 -15.86808
 Alpha  occ. eigenvalues --  -15.84905 -11.31912 -11.30065 -11.28451 -11.28434
 Alpha  occ. eigenvalues --  -11.28132 -11.27397 -11.27384 -11.26642 -11.26494
 Alpha  occ. eigenvalues --  -11.26252 -11.25660 -11.25322  -1.60859  -1.58943
 Alpha  occ. eigenvalues --   -1.40416  -1.38502  -1.20057  -1.18188  -1.09501
 Alpha  occ. eigenvalues --   -1.07620  -1.05417  -1.03539  -0.96379  -0.94502
 Alpha  occ. eigenvalues --   -0.86826  -0.84943  -0.83218  -0.81329  -0.78297
 Alpha  occ. eigenvalues --   -0.76405  -0.73033  -0.72161  -0.71156  -0.71132
 Alpha  occ. eigenvalues --   -0.70261  -0.69312  -0.65710  -0.65413  -0.63832
 Alpha  occ. eigenvalues --   -0.63502  -0.62764  -0.60877  -0.55923  -0.54060
 Alpha  occ. eigenvalues --   -0.53763  -0.53501  -0.51903  -0.51616  -0.49799
 Alpha  occ. eigenvalues --   -0.49760  -0.47898  -0.47864  -0.45875  -0.43954
 Alpha  occ. eigenvalues --   -0.38021  -0.37008  -0.36160  -0.35129
 Alpha virt. eigenvalues --    0.04208   0.06086   0.10651   0.12523   0.15758
 Alpha virt. eigenvalues --    0.17653   0.20831   0.22709   0.26763   0.27688
 Alpha virt. eigenvalues --    0.28742   0.29414   0.30435   0.31871   0.32341

 Mulliken charges:
               1
     1  C   -0.170876
     2  C   -0.220091
     3  C   -0.173184
     4  C    0.158209
     5  C   -0.173611
     6  C   -0.218753
     7  H    0.223277
     8  H    0.245272
     9  H    0.274559
    10  H    0.271261
    11  H    0.218225
    12  N    0.488141
    13  O   -0.464190
    14  O   -0.461954
    15  C   -0.169786
    16  C   -0.218543
    17  C   -0.170899
    18  C    0.157201
    19  C   -0.170641
    20  C   -0.218593
    21  H    0.228050
    22  H    0.225442
    23  H    0.275322
    24  H    0.276834
    25  H    0.225774
    26  N    0.488682
    27  O   -0.456664
    28  O   -0.468463
 Sum of Mulliken charges =  -0.00000

 Dipole moment (field-independent basis, Debye):
    X=             -9.9249    Y=              3.5689    Z=             -1.6455  Tot=             10.6747
 Quadrupole moment (field-independent basis, Debye-Ang):
   XX=           -101.1348   YY=           -101.9470   ZZ=           -101.0077
   XY=             11.3264   XZ=             -5.9894   YZ=              2.9033

 Normal termination of Gaussian 16 at Thu May  6 13:02:43 2021.
