 Gaussian 16, Revision A.03,
 Gaussian 16:  EM64L-G16RevA.03 25-Dec-2016

 -------------
 #p 6-31g* mp2
 -------------

 ------------------------------------------------------
 Input file generated by CHIRIPA (05-May-2021 14:53:12)
 ------------------------------------------------------
 Symbolic Z-matrix:
 Charge =  0 Multiplicity = 1

                         Standard orientation:
 ---------------------------------------------------------------------
 Center     Atomic      Atomic             Coordinates (Angstroms)
 Number     Number       Type             X           Y           Z
 ---------------------------------------------------------------------
      1          6           0       -3.637013   -0.069765   -0.455418
      2          6           0       -4.573805    1.117517   -0.230102
      3          6           0       -5.093358    1.716953   -1.537211
      4          1           0       -2.789125    0.252785   -1.075089
      5          1           0       -4.167255   -0.842550   -1.029039
      6          1           0       -4.042398    1.887255    0.344116
      7          1           0       -5.419464    0.792151    0.389265
      8          1           0       -5.647062    0.967211   -2.111581
      9          1           0       -4.262172    2.068537   -2.156986
     10          1           0       -5.761133    2.564264   -1.352821
     11          6           0       -3.109336   -0.679819    0.841933
     12          6           0       -2.172544   -1.867101    0.616617
     13          6           0       -1.652991   -2.466536    1.923727
     14          1           0       -2.579094    0.092966    1.415554
     15          1           0       -3.957224   -1.002368    1.461604
     16          1           0       -1.326886   -1.541734   -0.002749
     17          1           0       -2.703951   -2.636838    0.042399
     18          1           0       -2.484177   -2.818120    2.543501
     19          1           0       -1.099287   -1.716794    2.498096
     20          1           0       -0.985217   -3.313848    1.739336
     21          6           0        2.305549    2.502057    1.022218
     22          6           0        3.597506    2.020190    0.787327
     23          6           0        3.792107    0.797375    0.138171
     24          6           0        2.667171    0.079224   -0.264403
     25          6           0        1.367370    0.532648   -0.044824
     26          6           0        1.196560    1.758060    0.606127
     27          1           0        2.163620    3.452978    1.527195
     28          1           0        4.460613    2.595851    1.109360
     29          1           0        4.781185    0.400796   -0.056424
     30          1           0        0.526496   -0.063723   -0.377525
     31          1           0        0.192046    2.129818    0.787211
     32          7           0        2.860593   -1.216691   -0.952585
     33          8           0        1.853049   -1.830367   -1.297391
     34          8           0        4.016080   -1.594212   -1.134147
 ---------------------------------------------------------------------

 SCF Done:  E(RHF) =  -669.535550002     A.U. after   15 cycles
 E2 =    -0.2091797021D+01 EUMP2 =    -0.67162734702290D+03

 The electronic state is 1-A.
 Alpha  occ. eigenvalues --  -20.60801 -20.60796 -15.85850 -11.31215 -11.27786
 Alpha  occ. eigenvalues --  -11.27779 -11.27533 -11.26808 -11.26798 -11.21987
 Alpha  occ. eigenvalues --  -11.21777 -11.21736 -11.21691 -11.21376 -11.21074
 Alpha  occ. eigenvalues --   -1.59872  -1.39426  -1.19391  -1.08786  -1.08748
 Alpha  occ. eigenvalues --   -1.04797  -1.03764  -0.96209  -0.95621  -0.87224
 Alpha  occ. eigenvalues --   -0.86196  -0.82453  -0.79829  -0.78554  -0.77499
 Alpha  occ. eigenvalues --   -0.72070  -0.71193  -0.70511  -0.65434  -0.65043
 Alpha  occ. eigenvalues --   -0.64796  -0.62184  -0.61133  -0.59566  -0.57800
 Alpha  occ. eigenvalues --   -0.55519  -0.55297  -0.53122  -0.52921  -0.52849
 Alpha  occ. eigenvalues --   -0.52616  -0.50168  -0.48832  -0.48825  -0.48124
 Alpha  occ. eigenvalues --   -0.46879  -0.46071  -0.46036  -0.44828  -0.44035
 Alpha  occ. eigenvalues --   -0.37372  -0.36397
 Alpha virt. eigenvalues --    0.05020   0.11236   0.16513   0.18940   0.22998
 Alpha virt. eigenvalues --    0.23835   0.25377   0.25835   0.27580   0.28284
 Alpha virt. eigenvalues --    0.29969   0.30595   0.31368   0.31664   0.31951

 Mulliken charges:
               1
     1  C   -0.298150
     2  C   -0.298868
     3  C   -0.475797
     4  H    0.144993
     5  H    0.154223
     6  H    0.146655
     7  H    0.153914
     8  H    0.157645
     9  H    0.154702
    10  H    0.160585
    11  C   -0.298955
    12  C   -0.306927
    13  C   -0.476128
    14  H    0.140982
    15  H    0.152323
    16  H    0.156861
    17  H    0.157427
    18  H    0.154721
    19  H    0.151158
    20  H    0.168682
    21  C   -0.170419
    22  C   -0.218876
    23  C   -0.169936
    24  C    0.156887
    25  C   -0.177278
    26  C   -0.222846
    27  H    0.225796
    28  H    0.223613
    29  H    0.275766
    30  H    0.287973
    31  H    0.224030
    32  N    0.487161
    33  O   -0.461940
    34  O   -0.459974
 Sum of Mulliken charges =  -0.00000

 Dipole moment (field-independent basis, Debye):
    X=             -0.7293    Y=              4.4262    Z=              2.3936  Tot=              5.0845
 Quadrupole moment (field-independent basis, Debye-Ang):
   XX=            -92.5260   YY=            -94.1450   ZZ=            -97.6597
   XY=             13.9960   XZ=              6.9293   YZ=             -0.4876

 Normal termination of Gaussian 16 at Thu May  6 05:44:19 2021.
