 Gaussian 16, Revision A.03,
 Gaussian 16:  EM64L-G16RevA.03 25-Dec-2016

 -------------
 #p 6-31g* mp2
 -------------

 ------------------------------------------------------
 Input file generated by CHIRIPA (05-May-2021 14:53:14)
 ------------------------------------------------------
 Symbolic Z-matrix:
 Charge =  0 Multiplicity = 1

                         Standard orientation:
 ---------------------------------------------------------------------
 Center     Atomic      Atomic             Coordinates (Angstroms)
 Number     Number       Type             X           Y           Z
 ---------------------------------------------------------------------
      1          6           0       -4.300179    0.117799    0.588995
      2          6           0       -3.258600   -1.000047    0.648328
      3          6           0       -1.980079   -0.578875    1.373444
      4          1           0       -3.862869    0.991485    0.086623
      5          1           0       -4.545398    0.435648    1.611851
      6          1           0       -3.016442   -1.316643   -0.374288
      7          1           0       -3.698503   -1.871240    1.150447
      8          1           0       -2.201433   -0.282374    2.403828
      9          1           0       -1.515497    0.275374    0.870430
     10          1           0       -1.249246   -1.392997    1.404244
     11          6           0       -5.583913   -0.288004   -0.132863
     12          6           0       -6.625492    0.829842   -0.192196
     13          6           0       -7.904013    0.408670   -0.917312
     14          1           0       -5.338694   -0.605853   -1.155719
     15          1           0       -6.021223   -1.161690    0.369509
     16          1           0       -6.185589    1.701035   -0.694315
     17          1           0       -6.867650    1.146438    0.830420
     18          1           0       -8.368595   -0.445579   -0.414298
     19          1           0       -7.682659    0.112169   -1.947696
     20          1           0       -8.634846    1.222792   -0.948112
     21          6           0        1.367548   -0.180098   -0.474740
     22          6           0        1.914442    1.066774   -0.154208
     23          6           0        3.294576    1.215080    0.012474
     24          6           0        4.102029    0.090325   -0.149506
     25          6           0        3.587206   -1.165194   -0.468755
     26          6           0        2.204200   -1.290145   -0.630715
     27          1           0        0.294311   -0.286234   -0.602388
     28          1           0        1.267103    1.930589   -0.032467
     29          1           0        3.744488    2.168692    0.260712
     30          1           0        4.257967   -2.007978   -0.583702
     31          1           0        1.782257   -2.259705   -0.879634
     32          7           0        5.564634    0.234968    0.024454
     33          8           0        6.254506   -0.771401   -0.123663
     34          8           0        5.993460    1.351967    0.305625
 ---------------------------------------------------------------------

 SCF Done:  E(RHF) =  -669.535078702     A.U. after   15 cycles
 E2 =    -0.2091186636D+01 EUMP2 =    -0.67162626533800D+03

 The electronic state is 1-A.
 Alpha  occ. eigenvalues --  -20.60712 -20.60706 -15.85766 -11.31115 -11.27697
 Alpha  occ. eigenvalues --  -11.27694 -11.27367 -11.26694 -11.26684 -11.22625
 Alpha  occ. eigenvalues --  -11.22279 -11.22230 -11.22174 -11.22051 -11.21549
 Alpha  occ. eigenvalues --   -1.59788  -1.39342  -1.19291  -1.09228  -1.08682
 Alpha  occ. eigenvalues --   -1.04696  -1.04350  -0.96812  -0.95517  -0.87825
 Alpha  occ. eigenvalues --   -0.86092  -0.82359  -0.80418  -0.79000  -0.77410
 Alpha  occ. eigenvalues --   -0.71984  -0.71112  -0.70420  -0.65862  -0.64942
 Alpha  occ. eigenvalues --   -0.64707  -0.62050  -0.61759  -0.60194  -0.58392
 Alpha  occ. eigenvalues --   -0.56252  -0.55066  -0.53490  -0.53218  -0.52996
 Alpha  occ. eigenvalues --   -0.52788  -0.50720  -0.48744  -0.48741  -0.48721
 Alpha  occ. eigenvalues --   -0.47449  -0.46548  -0.46453  -0.44751  -0.44580
 Alpha  occ. eigenvalues --   -0.37242  -0.36307
 Alpha virt. eigenvalues --    0.05122   0.11320   0.16582   0.19805   0.22499
 Alpha virt. eigenvalues --    0.23846   0.25604   0.26230   0.26863   0.27307
 Alpha virt. eigenvalues --    0.29356   0.30149   0.30775   0.30989   0.31582

 Mulliken charges:
               1
     1  C   -0.298315
     2  C   -0.301951
     3  C   -0.479103
     4  H    0.147846
     5  H    0.152280
     6  H    0.148667
     7  H    0.156786
     8  H    0.163086
     9  H    0.145768
    10  H    0.160913
    11  C   -0.298765
    12  C   -0.300159
    13  C   -0.476109
    14  H    0.149492
    15  H    0.151364
    16  H    0.151959
    17  H    0.153101
    18  H    0.156110
    19  H    0.155542
    20  H    0.161925
    21  C   -0.171085
    22  C   -0.220696
    23  C   -0.170749
    24  C    0.158036
    25  C   -0.170639
    26  C   -0.221217
    27  H    0.232957
    28  H    0.222594
    29  H    0.275349
    30  H    0.275289
    31  H    0.222987
    32  N    0.488116
    33  O   -0.460698
    34  O   -0.460682
 Sum of Mulliken charges =  -0.00000

 Dipole moment (field-independent basis, Debye):
    X=             -5.4037    Y=             -0.5340    Z=             -0.5412  Tot=              5.4569
 Quadrupole moment (field-independent basis, Debye-Ang):
   XX=           -137.6542   YY=            -90.0646   ZZ=            -94.5382
   XY=             -3.2117   XZ=             -2.9177   YZ=              0.7213

 Normal termination of Gaussian 16 at Thu May  6 08:57:41 2021.
