 Gaussian 16, Revision A.03,
 Gaussian 16:  EM64L-G16RevA.03 25-Dec-2016

 -------------
 #p 6-31g* mp2
 -------------

 ------------------------------------------------------
 Input file generated by CHIRIPA (05-May-2021 14:53:13)
 ------------------------------------------------------
 Symbolic Z-matrix:
 Charge =  0 Multiplicity = 1

                         Standard orientation:
 ---------------------------------------------------------------------
 Center     Atomic      Atomic             Coordinates (Angstroms)
 Number     Number       Type             X           Y           Z
 ---------------------------------------------------------------------
      1          6           0        3.596473    0.225575    1.108813
      2          6           0        2.168162    0.753983    0.972065
      3          6           0        1.542248    1.121011    2.317916
      4          1           0        3.593560   -0.654963    1.765767
      5          1           0        4.214873    0.985113    1.606887
      6          1           0        1.552963   -0.005776    0.473153
      7          1           0        2.174448    1.633251    0.315206
      8          1           0        2.131727    1.896039    2.818363
      9          1           0        1.506711    0.247699    2.977207
     10          1           0        0.521344    1.496448    2.196832
     11          6           0        4.235680   -0.145633   -0.228104
     12          6           0        5.663991   -0.674040   -0.091357
     13          6           0        6.289905   -1.041069   -1.437208
     14          1           0        3.617280   -0.905170   -0.726178
     15          1           0        4.238593    0.734905   -0.885058
     16          1           0        5.657705   -1.553309    0.565502
     17          1           0        6.279190    0.085718    0.407555
     18          1           0        6.325442   -0.167757   -2.096499
     19          1           0        5.700426   -1.816097   -1.937654
     20          1           0        7.310809   -1.416506   -1.316124
     21          6           0       -1.386424    1.615912   -1.268090
     22          6           0       -1.023005    0.277791   -1.084025
     23          6           0       -1.941795   -0.643596   -0.572732
     24          6           0       -3.221175   -0.190467   -0.254692
     25          6           0       -3.613350    1.136148   -0.426687
     26          6           0       -2.678159    2.040071   -0.939413
     27          1           0       -0.666316    2.324884   -1.665832
     28          1           0       -0.020530   -0.054442   -1.338407
     29          1           0       -1.687000   -1.685338   -0.420180
     30          1           0       -4.620082    1.437581   -0.163917
     31          1           0       -2.963179    3.078665   -1.081307
     32          7           0       -4.202538   -1.156653    0.287350
     33          8           0       -5.323415   -0.732329    0.559785
     34          8           0       -3.832272   -2.319982    0.429503
 ---------------------------------------------------------------------

 SCF Done:  E(RHF) =  -669.535265560     A.U. after   15 cycles
 E2 =    -0.2091937252D+01 EUMP2 =    -0.67162720281219D+03

 The electronic state is 1-A.
 Alpha  occ. eigenvalues --  -20.60764 -20.60758 -15.85817 -11.31188 -11.27751
 Alpha  occ. eigenvalues --  -11.27746 -11.27492 -11.26775 -11.26737 -11.22364
 Alpha  occ. eigenvalues --  -11.22121 -11.22049 -11.21974 -11.21566 -11.21529
 Alpha  occ. eigenvalues --   -1.59839  -1.39392  -1.19360  -1.09060  -1.08750
 Alpha  occ. eigenvalues --   -1.04768  -1.04104  -0.96526  -0.95585  -0.87543
 Alpha  occ. eigenvalues --   -0.86161  -0.82423  -0.80203  -0.78902  -0.77459
 Alpha  occ. eigenvalues --   -0.72035  -0.71162  -0.70460  -0.65709  -0.65009
 Alpha  occ. eigenvalues --   -0.64767  -0.62149  -0.61479  -0.59898  -0.58153
 Alpha  occ. eigenvalues --   -0.55809  -0.55256  -0.53250  -0.53076  -0.52948
 Alpha  occ. eigenvalues --   -0.52833  -0.50465  -0.48809  -0.48790  -0.48472
 Alpha  occ. eigenvalues --   -0.47228  -0.46411  -0.46348  -0.44797  -0.44364
 Alpha  occ. eigenvalues --   -0.37325  -0.36339
 Alpha virt. eigenvalues --    0.05055   0.11231   0.16481   0.20421   0.22569
 Alpha virt. eigenvalues --    0.23917   0.24980   0.26095   0.27387   0.28091
 Alpha virt. eigenvalues --    0.28802   0.30289   0.31385   0.31420   0.31866

 Mulliken charges:
               1
     1  C   -0.298291
     2  C   -0.300737
     3  C   -0.476822
     4  H    0.152716
     5  H    0.151731
     6  H    0.146994
     7  H    0.145599
     8  H    0.156241
     9  H    0.158621
    10  H    0.163357
    11  C   -0.298358
    12  C   -0.299948
    13  C   -0.476092
    14  H    0.145538
    15  H    0.147691
    16  H    0.153956
    17  H    0.153424
    18  H    0.154763
    19  H    0.155164
    20  H    0.162407
    21  C   -0.172574
    22  C   -0.215115
    23  C   -0.172838
    24  C    0.158722
    25  C   -0.171061
    26  C   -0.218787
    27  H    0.226116
    28  H    0.226092
    29  H    0.275225
    30  H    0.275594
    31  H    0.223436
    32  N    0.488120
    33  O   -0.460413
    34  O   -0.460470
 Sum of Mulliken charges =  -0.00000

 Dipole moment (field-independent basis, Debye):
    X=              3.5467    Y=              3.4103    Z=             -1.8359  Tot=              5.2516
 Quadrupole moment (field-independent basis, Debye-Ang):
   XX=           -114.8636   YY=            -92.8969   ZZ=            -95.2040
   XY=            -14.1840   XZ=              5.7411   YZ=             -0.6535

 Normal termination of Gaussian 16 at Thu May  6 08:54:06 2021.
