 Gaussian 16, Revision A.03,
 Gaussian 16:  EM64L-G16RevA.03 25-Dec-2016

 -------------
 #p 6-31g* mp2
 -------------

 ------------------------------------------------------
 Input file generated by CHIRIPA (05-May-2021 14:55:25)
 ------------------------------------------------------
 Symbolic Z-matrix:
 Charge =  0 Multiplicity = 1

                         Standard orientation:
 ---------------------------------------------------------------------
 Center     Atomic      Atomic             Coordinates (Angstroms)
 Number     Number       Type             X           Y           Z
 ---------------------------------------------------------------------
      1          6           0       -2.136637    1.987941    1.587163
      2          6           0       -3.282758    1.809222    0.805506
      3          6           0       -3.403680    0.697509   -0.033553
      4          6           0       -2.354575   -0.219873   -0.066424
      5          6           0       -1.200085   -0.069653    0.700307
      6          6           0       -1.100785    1.049587    1.532166
      7          1           0       -2.051100    2.854470    2.236167
      8          1           0       -4.088792    2.536338    0.846190
      9          1           0       -4.279866    0.534583   -0.649321
     10          1           0       -0.413216   -0.811556    0.638385
     11          1           0       -0.209529    1.185808    2.138096
     12          7           0       -2.471145   -1.400778   -0.950887
     13          8           0       -1.532846   -2.194575   -0.961807
     14          8           0       -3.498604   -1.510214   -1.616461
     15          6           0        3.099691   -0.722059   -0.148024
     16          6           0        2.825371   -1.457012    1.164446
     17          6           0        3.050659   -2.965384    1.055581
     18          1           0        2.452958   -1.135030   -0.934241
     19          1           0        4.134944   -0.917518   -0.460181
     20          1           0        1.791370   -1.259103    1.474750
     21          1           0        3.472696   -1.042114    1.947673
     22          1           0        4.085293   -3.180715    0.769631
     23          1           0        2.394414   -3.398936    0.294019
     24          1           0        2.848848   -3.471005    2.005043
     25          6           0        2.878838    0.786688   -0.055102
     26          6           0        3.153159    1.521641   -1.367572
     27          6           0        2.927870    3.030014   -1.258707
     28          1           0        1.843585    0.982148    0.257054
     29          1           0        3.525572    1.199658    0.731115
     30          1           0        2.505833    1.106743   -2.150800
     31          1           0        4.187160    1.323731   -1.677876
     32          1           0        3.584116    3.463565   -0.497146
     33          1           0        1.893236    3.245344   -0.972757
     34          1           0        3.129680    3.535634   -2.208170
 ---------------------------------------------------------------------

 SCF Done:  E(RHF) =  -669.535515871     A.U. after   15 cycles
 E2 =    -0.2092898474D+01 EUMP2 =    -0.67162841434409D+03

 The electronic state is 1-A.
 Alpha  occ. eigenvalues --  -20.60826 -20.60821 -15.85877 -11.31227 -11.27806
 Alpha  occ. eigenvalues --  -11.27782 -11.27538 -11.26816 -11.26794 -11.22052
 Alpha  occ. eigenvalues --  -11.21849 -11.21767 -11.21610 -11.21350 -11.21131
 Alpha  occ. eigenvalues --   -1.59899  -1.39453  -1.19407  -1.08802  -1.08752
 Alpha  occ. eigenvalues --   -1.04810  -1.03801  -0.96221  -0.95638  -0.87237
 Alpha  occ. eigenvalues --   -0.86202  -0.82476  -0.79883  -0.78601  -0.77509
 Alpha  occ. eigenvalues --   -0.72097  -0.71221  -0.70525  -0.65450  -0.65041
 Alpha  occ. eigenvalues --   -0.64795  -0.62162  -0.61167  -0.59594  -0.57846
 Alpha  occ. eigenvalues --   -0.55503  -0.55305  -0.53143  -0.52936  -0.52887
 Alpha  occ. eigenvalues --   -0.52620  -0.50146  -0.48854  -0.48852  -0.48185
 Alpha  occ. eigenvalues --   -0.46922  -0.46115  -0.46016  -0.44861  -0.44061
 Alpha  occ. eigenvalues --   -0.37384  -0.36384
 Alpha virt. eigenvalues --    0.04973   0.11226   0.16338   0.19308   0.22931
 Alpha virt. eigenvalues --    0.23812   0.25026   0.26662   0.27723   0.28105
 Alpha virt. eigenvalues --    0.29813   0.30821   0.31363   0.31650   0.31849

 Mulliken charges:
               1
     1  C   -0.171290
     2  C   -0.218937
     3  C   -0.170136
     4  C    0.159463
     5  C   -0.179584
     6  C   -0.222025
     7  H    0.226170
     8  H    0.223797
     9  H    0.275798
    10  H    0.286325
    11  H    0.225903
    12  N    0.487713
    13  O   -0.461038
    14  O   -0.459991
    15  C   -0.302455
    16  C   -0.301119
    17  C   -0.477839
    18  H    0.159204
    19  H    0.152520
    20  H    0.139349
    21  H    0.152003
    22  H    0.156366
    23  H    0.165834
    24  H    0.160407
    25  C   -0.302629
    26  C   -0.299709
    27  C   -0.476316
    28  H    0.144202
    29  H    0.148112
    30  H    0.156439
    31  H    0.153657
    32  H    0.153781
    33  H    0.153810
    34  H    0.162213
 Sum of Mulliken charges =  -0.00000

 Dipole moment (field-independent basis, Debye):
    X=              0.4579    Y=              4.0686    Z=              2.9968  Tot=              5.0738
 Quadrupole moment (field-independent basis, Debye-Ang):
   XX=            -91.4180   YY=            -97.6008   ZZ=            -95.3319
   XY=            -11.7769   XZ=             -5.9506   YZ=             -1.2456

 Normal termination of Gaussian 16 at Thu May  6 16:03:42 2021.
