 Gaussian 16, Revision A.03,
 Gaussian 16:  EM64L-G16RevA.03 25-Dec-2016

 -------------
 #p 6-31g* mp2
 -------------

 ------------------------------------------------------
 Input file generated by CHIRIPA (05-May-2021 14:55:25)
 ------------------------------------------------------
 Symbolic Z-matrix:
 Charge =  0 Multiplicity = 1

                         Standard orientation:
 ---------------------------------------------------------------------
 Center     Atomic      Atomic             Coordinates (Angstroms)
 Number     Number       Type             X           Y           Z
 ---------------------------------------------------------------------
      1          6           0       -3.876655    1.030301    0.224349
      2          6           0       -3.661805    0.322395   -0.962760
      3          6           0       -2.655662   -0.645189   -1.040262
      4          6           0       -1.879546   -0.880391    0.093587
      5          6           0       -2.069145   -0.191666    1.290667
      6          6           0       -3.081042    0.771468    1.345298
      7          1           0       -4.660486    1.780215    0.275671
      8          1           0       -4.278156    0.521310   -1.834878
      9          1           0       -2.467747   -1.207856   -1.946635
     10          1           0       -1.438584   -0.412059    2.143450
     11          1           0       -3.245635    1.319704    2.268548
     12          7           0       -0.811342   -1.902373    0.023646
     13          8           0       -0.141219   -2.090926    1.036573
     14          8           0       -0.664432   -2.495499   -1.042776
     15          6           0        2.141504    1.436208    0.126488
     16          6           0        0.939878    1.655080   -0.793388
     17          6           0       -0.030683    2.708067   -0.257642
     18          1           0        1.784046    1.135323    1.120790
     19          1           0        2.670756    2.389867    0.259984
     20          1           0        0.413849    0.701002   -0.926220
     21          1           0        1.300246    1.955293   -1.785671
     22          1           0        0.473285    3.673061   -0.141871
     23          1           0       -0.418150    2.411644    0.722463
     24          1           0       -0.882190    2.848617   -0.930725
     25          6           0        3.120829    0.386400   -0.395581
     26          6           0        4.322456    0.167528    0.524295
     27          6           0        5.293016   -0.885459   -0.011452
     28          1           0        2.591577   -0.567259   -0.529077
     29          1           0        3.478287    0.687285   -1.389883
     30          1           0        3.962087   -0.132685    1.516578
     31          1           0        4.848485    1.121606    0.657127
     32          1           0        5.680483   -0.589036   -0.991556
     33          1           0        4.789049   -1.850453   -0.127223
     34          1           0        6.144523   -1.026009    0.661632
 ---------------------------------------------------------------------

 SCF Done:  E(RHF) =  -669.535119256     A.U. after   15 cycles
 E2 =    -0.2094916461D+01 EUMP2 =    -0.67163003571725D+03

 The electronic state is 1-A.
 Alpha  occ. eigenvalues --  -20.60947 -20.60942 -15.85981 -11.31281 -11.27855
 Alpha  occ. eigenvalues --  -11.27852 -11.27585 -11.26872 -11.26855 -11.21349
 Alpha  occ. eigenvalues --  -11.20953 -11.20942 -11.20916 -11.20642 -11.20350
 Alpha  occ. eigenvalues --   -1.60017  -1.39569  -1.19472  -1.08876  -1.07913
 Alpha  occ. eigenvalues --   -1.04867  -1.03067  -0.95717  -0.95510  -0.86537
 Alpha  occ. eigenvalues --   -0.86264  -0.82549  -0.79162  -0.77696  -0.77602
 Alpha  occ. eigenvalues --   -0.72200  -0.71371  -0.70572  -0.65123  -0.64867
 Alpha  occ. eigenvalues --   -0.64532  -0.62214  -0.60508  -0.58919  -0.57127
 Alpha  occ. eigenvalues --   -0.55362  -0.54939  -0.53024  -0.52956  -0.52202
 Alpha  occ. eigenvalues --   -0.51942  -0.49462  -0.48963  -0.48959  -0.47471
 Alpha  occ. eigenvalues --   -0.46241  -0.45252  -0.45114  -0.44959  -0.43302
 Alpha  occ. eigenvalues --   -0.37378  -0.36408
 Alpha virt. eigenvalues --    0.04897   0.11135   0.16364   0.21211   0.23072
 Alpha virt. eigenvalues --    0.24686   0.26664   0.27122   0.27928   0.28295
 Alpha virt. eigenvalues --    0.28521   0.30960   0.31754   0.31989   0.32160

 Mulliken charges:
               1
     1  C   -0.169700
     2  C   -0.217888
     3  C   -0.171935
     4  C    0.157301
     5  C   -0.171895
     6  C   -0.215865
     7  H    0.226274
     8  H    0.224025
     9  H    0.276112
    10  H    0.275571
    11  H    0.224132
    12  N    0.491561
    13  O   -0.460866
    14  O   -0.459658
    15  C   -0.297902
    16  C   -0.300730
    17  C   -0.474490
    18  H    0.149734
    19  H    0.146572
    20  H    0.149825
    21  H    0.151915
    22  H    0.152958
    23  H    0.151578
    24  H    0.156546
    25  C   -0.301839
    26  C   -0.299158
    27  C   -0.476654
    28  H    0.163797
    29  H    0.146519
    30  H    0.154535
    31  H    0.147457
    32  H    0.152666
    33  H    0.161860
    34  H    0.157645
 Sum of Mulliken charges =  -0.00000

 Dipole moment (field-independent basis, Debye):
    X=             -3.8921    Y=              3.4230    Z=              0.2600  Tot=              5.1897
 Quadrupole moment (field-independent basis, Debye-Ang):
   XX=            -81.3435   YY=           -102.0375   ZZ=            -90.0615
   XY=             -2.8037   XZ=              0.4403   YZ=              0.6691

 Normal termination of Gaussian 16 at Thu May  6 16:03:00 2021.
