 Gaussian 16, Revision A.03,
 Gaussian 16:  EM64L-G16RevA.03 25-Dec-2016

 -------------
 #p 6-31g* mp2
 -------------

 ------------------------------------------------------
 Input file generated by CHIRIPA (05-May-2021 14:55:25)
 ------------------------------------------------------
 Symbolic Z-matrix:
 Charge =  0 Multiplicity = 1

                         Standard orientation:
 ---------------------------------------------------------------------
 Center     Atomic      Atomic             Coordinates (Angstroms)
 Number     Number       Type             X           Y           Z
 ---------------------------------------------------------------------
      1          6           0       -6.000263   -0.621376   -0.561644
      2          6           0       -5.599193    0.699848   -0.785320
      3          6           0       -4.330594    1.133534   -0.388934
      4          6           0       -3.484767    0.215239    0.231228
      5          6           0       -3.855324   -1.107607    0.467991
      6          6           0       -5.128585   -1.519304    0.063196
      7          1           0       -6.987552   -0.949733   -0.872832
      8          1           0       -6.274054    1.399379   -1.270359
      9          1           0       -3.994475    2.150666   -0.549824
     10          1           0       -3.160517   -1.781868    0.953824
     11          1           0       -5.437376   -2.545982    0.238193
     12          7           0       -2.139291    0.662724    0.655315
     13          8           0       -1.412750   -0.165769    1.199718
     14          8           0       -1.836724    1.833482    0.435282
     15          6           0        4.129974   -0.634901   -0.213696
     16          6           0        2.828764    0.110823   -0.511581
     17          6           0        1.608595   -0.810512   -0.522537
     18          1           0        4.272163   -1.425146   -0.963524
     19          1           0        4.041217   -1.138946    0.758649
     20          1           0        2.920458    0.614449   -1.482441
     21          1           0        2.689755    0.899509    0.238930
     22          1           0        1.489073   -1.303076    0.447873
     23          1           0        1.721087   -1.589756   -1.283278
     24          1           0        0.689329   -0.256772   -0.737441
     25          6           0        5.358712    0.272692   -0.199316
     26          6           0        6.659921   -0.473033    0.098568
     27          6           0        7.880092    0.448303    0.109525
     28          1           0        5.447470    0.776737   -1.171661
     29          1           0        5.216524    1.062937    0.550510
     30          1           0        6.798932   -1.261719   -0.651943
     31          1           0        6.568229   -0.976659    1.069428
     32          1           0        7.767600    1.227546    0.870266
     33          1           0        7.999613    0.940867   -0.860885
     34          1           0        8.799357   -0.105438    0.324427
 ---------------------------------------------------------------------

 SCF Done:  E(RHF) =  -669.535678489     A.U. after   15 cycles
 E2 =    -0.2091092913D+01 EUMP2 =    -0.67162677140240D+03

 The electronic state is 1-A.
 Alpha  occ. eigenvalues --  -20.60908 -20.60884 -15.85925 -11.31265 -11.27830
 Alpha  occ. eigenvalues --  -11.27825 -11.27571 -11.26840 -11.26830 -11.20973
 Alpha  occ. eigenvalues --  -11.20600 -11.20540 -11.20429 -11.20332 -11.19534
 Alpha  occ. eigenvalues --   -1.59964  -1.39517  -1.19435  -1.08837  -1.07534
 Alpha  occ. eigenvalues --   -1.04832  -1.02560  -0.95679  -0.95000  -0.86233
 Alpha  occ. eigenvalues --   -0.86025  -0.82509  -0.78661  -0.77561  -0.77315
 Alpha  occ. eigenvalues --   -0.72146  -0.71292  -0.70543  -0.65089  -0.64836
 Alpha  occ. eigenvalues --   -0.64170  -0.62179  -0.59956  -0.58420  -0.56600
 Alpha  occ. eigenvalues --   -0.55337  -0.54299  -0.53167  -0.52924  -0.51692
 Alpha  occ. eigenvalues --   -0.51441  -0.49070  -0.48906  -0.48782  -0.46962
 Alpha  occ. eigenvalues --   -0.45717  -0.44938  -0.44856  -0.44737  -0.42779
 Alpha  occ. eigenvalues --   -0.37413  -0.36434
 Alpha virt. eigenvalues --    0.04949   0.11221   0.16440   0.21353   0.23711
 Alpha virt. eigenvalues --    0.25320   0.27271   0.27506   0.28196   0.28350
 Alpha virt. eigenvalues --    0.29029   0.30902   0.32298   0.32488   0.32633

 Mulliken charges:
               1
     1  C   -0.170614
     2  C   -0.218593
     3  C   -0.170898
     4  C    0.158485
     5  C   -0.170622
     6  C   -0.218585
     7  H    0.225888
     8  H    0.223703
     9  H    0.275767
    10  H    0.276023
    11  H    0.223777
    12  N    0.487040
    13  O   -0.457562
    14  O   -0.460410
    15  C   -0.297856
    16  C   -0.300146
    17  C   -0.470852
    18  H    0.145802
    19  H    0.148999
    20  H    0.146689
    21  H    0.158286
    22  H    0.160679
    23  H    0.142304
    24  H    0.167467
    25  C   -0.297649
    26  C   -0.298933
    27  C   -0.475229
    28  H    0.147816
    29  H    0.150272
    30  H    0.150230
    31  H    0.151305
    32  H    0.155057
    33  H    0.154198
    34  H    0.158162
 Sum of Mulliken charges =  -0.00000

 Dipole moment (field-independent basis, Debye):
    X=             -5.0444    Y=             -1.5247    Z=             -1.3822  Tot=              5.4480
 Quadrupole moment (field-independent basis, Debye-Ang):
   XX=            -64.2038   YY=            -91.7304   ZZ=            -94.7539
   XY=              3.2560   XZ=              4.7722   YZ=             -2.5402

 Normal termination of Gaussian 16 at Thu May  6 16:02:46 2021.
