 Gaussian 16, Revision A.03,
 Gaussian 16:  EM64L-G16RevA.03 25-Dec-2016

 -------------
 #p 6-31g* mp2
 -------------

 ------------------------------------------------------
 Input file generated by CHIRIPA (05-May-2021 14:57:20)
 ------------------------------------------------------
 Symbolic Z-matrix:
 Charge =  0 Multiplicity = 1

                         Standard orientation:
 ---------------------------------------------------------------------
 Center     Atomic      Atomic             Coordinates (Angstroms)
 Number     Number       Type             X           Y           Z
 ---------------------------------------------------------------------
      1          6           0       -5.714316   -1.464000    1.033728
      2          6           0       -4.553548   -1.118066    1.733348
      3          6           0       -3.579121   -0.311826    1.137516
      4          6           0       -3.798937    0.132894   -0.165249
      5          6           0       -4.944946   -0.194574   -0.888241
      6          6           0       -5.905972   -1.001964   -0.272531
      7          1           0       -6.466069   -2.090753    1.504305
      8          1           0       -4.402035   -1.475445    2.747927
      9          1           0       -2.671235   -0.028844    1.656248
     10          1           0       -5.067852    0.176899   -1.898349
     11          1           0       -6.806469   -1.269030   -0.818265
     12          7           0       -2.774448    0.987033   -0.806552
     13          8           0       -2.991856    1.365982   -1.955363
     14          8           0       -1.773445    1.261385   -0.148250
     15          6           0        2.486766    1.916545    0.787219
     16          6           0        3.623389    1.588619    1.533592
     17          6           0        4.451190    0.533052    1.139801
     18          6           0        4.110964   -0.176645   -0.010794
     19          6           0        2.985347    0.125833   -0.775504
     20          6           0        2.171928    1.185396   -0.362920
     21          1           0        1.849295    2.738086    1.100424
     22          1           0        3.870351    2.154703    2.427237
     23          1           0        5.337151    0.257790    1.699018
     24          1           0        2.765032   -0.456756   -1.661770
     25          1           0        1.289843    1.437826   -0.944513
     26          7           0        4.979708   -1.296240   -0.437631
     27          8           0        4.658127   -1.906043   -1.455158
     28          8           0        5.965761   -1.542776    0.253424
 ---------------------------------------------------------------------

 SCF Done:  E(RHF) =  -868.340356907     A.U. after   16 cycles
 E2 =    -0.2598188140D+01 EUMP2 =    -0.87093854504682D+03

 The electronic state is 1-A.
 Alpha  occ. eigenvalues --  -20.61683 -20.61654 -20.60137 -20.60128 -15.86693
 Alpha  occ. eigenvalues --  -15.85177 -11.31777 -11.30352 -11.28319 -11.28302
 Alpha  occ. eigenvalues --  -11.27998 -11.27263 -11.27251 -11.26923 -11.26796
 Alpha  occ. eigenvalues --  -11.26490 -11.25918 -11.25609  -1.60733  -1.59214
 Alpha  occ. eigenvalues --   -1.40293  -1.38773  -1.19923  -1.18475  -1.09370
 Alpha  occ. eigenvalues --   -1.07890  -1.05283  -1.03829  -0.96253  -0.94769
 Alpha  occ. eigenvalues --   -0.86694  -0.85219  -0.83096  -0.81599  -0.78173
 Alpha  occ. eigenvalues --   -0.76684  -0.72933  -0.72029  -0.71399  -0.71026
 Alpha  occ. eigenvalues --   -0.70536  -0.69556  -0.65580  -0.65283  -0.64107
 Alpha  occ. eigenvalues --   -0.63772  -0.62634  -0.61161  -0.55792  -0.54296
 Alpha  occ. eigenvalues --   -0.53626  -0.53371  -0.52196  -0.51881  -0.49694
 Alpha  occ. eigenvalues --   -0.49655  -0.48168  -0.48134  -0.45755  -0.44222
 Alpha  occ. eigenvalues --   -0.37884  -0.36872  -0.36435  -0.35435
 Alpha virt. eigenvalues --    0.04335   0.05809   0.10787   0.12219   0.15885
 Alpha virt. eigenvalues --    0.17378   0.20953   0.22496   0.26884   0.27792
 Alpha virt. eigenvalues --    0.28497   0.29255   0.30554   0.31998   0.32174

 Mulliken charges:
               1
     1  C   -0.169674
     2  C   -0.218374
     3  C   -0.170374
     4  C    0.157717
     5  C   -0.170273
     6  C   -0.218485
     7  H    0.227898
     8  H    0.225306
     9  H    0.274751
    10  H    0.276430
    11  H    0.225505
    12  N    0.489724
    13  O   -0.457738
    14  O   -0.470100
    15  C   -0.172934
    16  C   -0.219536
    17  C   -0.173681
    18  C    0.157932
    19  C   -0.174572
    20  C   -0.221225
    21  H    0.228692
    22  H    0.219431
    23  H    0.271863
    24  H    0.274097
    25  H    0.245129
    26  N    0.488070
    27  O   -0.462064
    28  O   -0.463518
 Sum of Mulliken charges =  -0.00000

 Dipole moment (field-independent basis, Debye):
    X=             -7.2267    Y=              0.9728    Z=              3.6935  Tot=              8.1740
 Quadrupole moment (field-independent basis, Debye-Ang):
   XX=           -100.5527   YY=           -108.2913   ZZ=            -99.5795
   XY=             28.9394   XZ=              3.2255   YZ=              0.7615

 Normal termination of Gaussian 16 at Thu May  6 06:26:24 2021.
