 Gaussian 16, Revision A.03,
 Gaussian 16:  EM64L-G16RevA.03 25-Dec-2016

 -------------
 #p 6-31g* mp2
 -------------

 ------------------------------------------------------
 Input file generated by CHIRIPA (05-May-2021 14:51:14)
 ------------------------------------------------------
 Symbolic Z-matrix:
 Charge =  0 Multiplicity = 1

                         Standard orientation:
 ---------------------------------------------------------------------
 Center     Atomic      Atomic             Coordinates (Angstroms)
 Number     Number       Type             X           Y           Z
 ---------------------------------------------------------------------
      1          6           0       -3.506979    0.390332   -0.194073
      2          6           0       -3.612546   -0.763903   -1.191360
      3          6           0       -5.050829   -1.242505   -1.391547
      4          1           0       -3.926866    0.072896    0.770227
      5          1           0       -4.127239    1.226739   -0.544923
      6          1           0       -2.991179   -1.597372   -0.839439
      7          1           0       -3.192184   -0.443745   -2.153342
      8          1           0       -5.679369   -0.427881   -1.765613
      9          1           0       -5.477222   -1.588063   -0.444245
     10          1           0       -5.103171   -2.067963   -2.108303
     11          6           0       -2.075300    0.879825    0.016687
     12          6           0       -1.969732    2.034061    1.013973
     13          6           0       -0.531449    2.512663    1.214161
     14          1           0       -1.455039    0.043419    0.367537
     15          1           0       -1.655412    1.197262   -0.947613
     16          1           0       -2.390095    1.713903    1.975956
     17          1           0       -2.591100    2.867530    0.662053
     18          1           0       -0.105057    2.858220    0.266859
     19          1           0        0.097090    1.698038    1.588227
     20          1           0       -0.479107    3.338120    1.930917
     21          6           0        3.508567   -0.587923   -0.169194
     22          6           0        3.752131    0.626705   -1.065486
     23          6           0        5.191985    0.707249   -1.573547
     24          1           0        4.198638   -0.549737    0.684790
     25          1           0        3.752913   -1.502018   -0.727872
     26          1           0        3.506079    1.538164   -0.505740
     27          1           0        3.061268    0.585723   -1.917334
     28          1           0        5.445837   -0.185025   -2.154930
     29          1           0        5.893175    0.772827   -0.735315
     30          1           0        5.343940    1.582922   -2.212269
     31          6           0        2.073712   -0.682234    0.346580
     32          6           0        1.830148   -1.896863    1.242872
     33          6           0        0.390293   -1.977408    1.750933
     34          1           0        1.829365    0.231860    0.905258
     35          1           0        1.383639   -0.720421   -0.507404
     36          1           0        2.521010   -1.855881    2.094720
     37          1           0        2.076200   -2.808322    0.683126
     38          1           0       -0.310897   -2.042986    0.912701
     39          1           0        0.136441   -1.085133    2.332316
     40          1           0        0.238339   -2.853080    2.389656
 ---------------------------------------------------------------------

 SCF Done:  E(RHF) =  -470.732327308     A.U. after   11 cycles
 E2 =    -0.1584692311D+01 EUMP2 =    -0.47231701961884D+03

 The electronic state is 1-A.
 Alpha  occ. eigenvalues --  -11.21648 -11.21589 -11.21582 -11.21542 -11.21386
 Alpha  occ. eigenvalues --  -11.21323 -11.21323 -11.21215 -11.21178 -11.21058
 Alpha  occ. eigenvalues --  -11.21054 -11.21017  -1.08456  -1.08354  -1.03572
 Alpha  occ. eigenvalues --   -1.03479  -0.96027  -0.95921  -0.87054  -0.86935
 Alpha  occ. eigenvalues --   -0.79693  -0.79519  -0.78388  -0.78025  -0.65089
 Alpha  occ. eigenvalues --   -0.65009  -0.61032  -0.60840  -0.59416  -0.59256
 Alpha  occ. eigenvalues --   -0.57721  -0.57471  -0.55309  -0.55232  -0.52709
 Alpha  occ. eigenvalues --   -0.52643  -0.52566  -0.52255  -0.49977  -0.49879
 Alpha  occ. eigenvalues --   -0.48191  -0.47806  -0.46725  -0.46561  -0.46113
 Alpha  occ. eigenvalues --   -0.45675  -0.45632  -0.45071  -0.43798  -0.43728
 Alpha virt. eigenvalues --    0.20666   0.22777   0.23364   0.24165   0.25594
 Alpha virt. eigenvalues --    0.26155   0.26543   0.27822   0.28847   0.29545
 Alpha virt. eigenvalues --    0.30707   0.31271   0.31480   0.32043   0.32441

 Mulliken charges:
               1
     1  C   -0.297687
     2  C   -0.300505
     3  C   -0.475610
     4  H    0.149550
     5  H    0.149163
     6  H    0.151578
     7  H    0.151679
     8  H    0.155280
     9  H    0.155343
    10  H    0.160006
    11  C   -0.307960
    12  C   -0.298894
    13  C   -0.481608
    14  H    0.161671
    15  H    0.148504
    16  H    0.151310
    17  H    0.151572
    18  H    0.155525
    19  H    0.160260
    20  H    0.159577
    21  C   -0.297760
    22  C   -0.299856
    23  C   -0.475703
    24  H    0.149434
    25  H    0.149337
    26  H    0.152647
    27  H    0.151846
    28  H    0.155085
    29  H    0.155160
    30  H    0.160200
    31  C   -0.305584
    32  C   -0.299322
    33  C   -0.481400
    34  H    0.156365
    35  H    0.151190
    36  H    0.151969
    37  H    0.152133
    38  H    0.158071
    39  H    0.156251
    40  H    0.161183
 Sum of Mulliken charges =  -0.00000

 Dipole moment (field-independent basis, Debye):
    X=              0.0351    Y=             -0.0250    Z=              0.0115  Tot=              0.0446
 Quadrupole moment (field-independent basis, Debye-Ang):
   XX=            -86.8000   YY=            -84.3578   ZZ=            -83.8046
   XY=             -0.5194   XZ=              0.5044   YZ=             -0.1286

 Normal termination of Gaussian 16 at Wed May  5 16:54:15 2021.
