 Gaussian 16, Revision A.03,
 Gaussian 16:  EM64L-G16RevA.03 25-Dec-2016

 -------------
 #p 6-31g* mp2
 -------------

 ------------------------------------------------------
 Input file generated by CHIRIPA (05-May-2021 14:51:13)
 ------------------------------------------------------
 Symbolic Z-matrix:
 Charge =  0 Multiplicity = 1

                         Standard orientation:
 ---------------------------------------------------------------------
 Center     Atomic      Atomic             Coordinates (Angstroms)
 Number     Number       Type             X           Y           Z
 ---------------------------------------------------------------------
      1          6           0        1.525653   -1.027362   -0.195543
      2          6           0        1.117970   -2.400429   -0.730768
      3          6           0       -0.385880   -2.514151   -0.982356
      4          1           0        0.980299   -0.827689    0.737015
      5          1           0        1.213330   -0.254835   -0.911820
      6          1           0        1.432199   -3.170246   -0.014347
      7          1           0        1.664501   -2.596938   -1.662059
      8          1           0       -0.711646   -1.767526   -1.713812
      9          1           0       -0.945267   -2.344092   -0.056739
     10          1           0       -0.655274   -3.503673   -1.364632
     11          6           0        3.026074   -0.898201    0.060934
     12          6           0        3.433758    0.474867    0.596158
     13          6           0        4.937608    0.588589    0.847746
     14          1           0        3.338397   -1.670727    0.777210
     15          1           0        3.571429   -1.097873   -0.871625
     16          1           0        2.887226    0.671375    1.527450
     17          1           0        3.119528    1.244683   -0.120262
     18          1           0        5.496994    0.418529   -0.077871
     19          1           0        5.263373   -0.158036    1.579203
     20          1           0        5.207001    1.578110    1.230023
     21          6           0       -1.909784    1.355201   -0.476225
     22          6           0       -0.990677    2.444647    0.077247
     23          6           0       -0.265314    3.220977   -1.022278
     24          1           0       -1.317722    0.660709   -1.087851
     25          1           0       -2.646882    1.814246   -1.149545
     26          1           0       -0.256401    1.983868    0.750403
     27          1           0       -1.584962    3.136518    0.687784
     28          1           0       -0.984618    3.706977   -1.689366
     29          1           0        0.351492    2.547777   -1.626391
     30          1           0        0.386275    3.994710   -0.604392
     31          6           0       -2.641943    0.570361    0.610835
     32          6           0       -3.561051   -0.519085    0.057362
     33          6           0       -4.286413   -1.295415    1.156887
     34          1           0       -1.904845    0.111317    1.284155
     35          1           0       -3.234005    1.264853    1.222460
     36          1           0       -2.966766   -1.210956   -0.553175
     37          1           0       -4.295327   -0.058306   -0.615793
     38          1           0       -4.903218   -0.622215    1.761001
     39          1           0       -3.567108   -1.781414    1.823975
     40          1           0       -4.938003   -2.069148    0.739002
 ---------------------------------------------------------------------

 SCF Done:  E(RHF) =  -470.732009412     A.U. after   11 cycles
 E2 =    -0.1585944461D+01 EUMP2 =    -0.47231795387342D+03

 The electronic state is 1-A.
 Alpha  occ. eigenvalues --  -11.21711 -11.21661 -11.21514 -11.21506 -11.21442
 Alpha  occ. eigenvalues --  -11.21401 -11.21299 -11.21235 -11.21182 -11.21113
 Alpha  occ. eigenvalues --  -11.21047 -11.20999  -1.08553  -1.08311  -1.03632
 Alpha  occ. eigenvalues --   -1.03435  -0.96084  -0.95903  -0.87126  -0.86903
 Alpha  occ. eigenvalues --   -0.79738  -0.79480  -0.78383  -0.78116  -0.65169
 Alpha  occ. eigenvalues --   -0.64988  -0.61116  -0.60806  -0.59441  -0.59272
 Alpha  occ. eigenvalues --   -0.57671  -0.57507  -0.55426  -0.55141  -0.52774
 Alpha  occ. eigenvalues --   -0.52657  -0.52486  -0.52318  -0.50055  -0.49809
 Alpha  occ. eigenvalues --   -0.48149  -0.47784  -0.46775  -0.46510  -0.46190
 Alpha  occ. eigenvalues --   -0.45918  -0.45466  -0.45120  -0.43877  -0.43685
 Alpha virt. eigenvalues --    0.19648   0.21802   0.23398   0.24011   0.24886
 Alpha virt. eigenvalues --    0.25814   0.26747   0.28500   0.28848   0.30378
 Alpha virt. eigenvalues --    0.30573   0.30984   0.31567   0.31777   0.32255

 Mulliken charges:
               1
     1  C   -0.303512
     2  C   -0.300483
     3  C   -0.481605
     4  H    0.150935
     5  H    0.153041
     6  H    0.152389
     7  H    0.152320
     8  H    0.157657
     9  H    0.159495
    10  H    0.161238
    11  C   -0.298271
    12  C   -0.301066
    13  C   -0.475767
    14  H    0.149860
    15  H    0.149978
    16  H    0.151953
    17  H    0.153490
    18  H    0.155355
    19  H    0.155272
    20  H    0.160635
    21  C   -0.303499
    22  C   -0.301125
    23  C   -0.476736
    24  H    0.155716
    25  H    0.148735
    26  H    0.154597
    27  H    0.151486
    28  H    0.155021
    29  H    0.154511
    30  H    0.160240
    31  C   -0.298843
    32  C   -0.308143
    33  C   -0.475685
    34  H    0.148821
    35  H    0.149386
    36  H    0.162805
    37  H    0.151121
    38  H    0.154915
    39  H    0.153686
    40  H    0.160074
 Sum of Mulliken charges =  -0.00000

 Dipole moment (field-independent basis, Debye):
    X=              0.0659    Y=             -0.0571    Z=             -0.0281  Tot=              0.0916
 Quadrupole moment (field-independent basis, Debye-Ang):
   XX=            -85.7991   YY=            -84.7039   ZZ=            -84.3946
   XY=             -1.0537   XZ=              0.1390   YZ=              0.1172

 Normal termination of Gaussian 16 at Wed May  5 19:59:01 2021.
