 Gaussian 16, Revision A.03,
 Gaussian 16:  EM64L-G16RevA.03 25-Dec-2016

 -------------
 #p 6-31g* mp2
 -------------

 ------------------------------------------------------
 Input file generated by CHIRIPA (05-May-2021 14:55:21)
 ------------------------------------------------------
 Symbolic Z-matrix:
 Charge =  0 Multiplicity = 1

                         Standard orientation:
 ---------------------------------------------------------------------
 Center     Atomic      Atomic             Coordinates (Angstroms)
 Number     Number       Type             X           Y           Z
 ---------------------------------------------------------------------
      1          6           0        3.003633   -1.587027   -1.844708
      2          6           0        4.053877   -1.178050   -1.016307
      3          6           0        3.815414   -0.319551    0.061034
      4          6           0        2.508600    0.112575    0.281930
      5          6           0        1.441162   -0.277153   -0.525523
      6          6           0        1.702921   -1.136068   -1.597108
      7          1           0        3.197925   -2.254091   -2.679376
      8          1           0        5.065033   -1.526682   -1.206210
      9          1           0        4.609900    0.012724    0.718151
     10          1           0        0.443797    0.087120   -0.311081
     11          1           0        0.885341   -1.452043   -2.238799
     12          7           0        2.243819    1.021650    1.419415
     13          8           0        1.083561    1.388220    1.592802
     14          8           0        3.201556    1.350398    2.116051
     15          6           0       -3.728309   -0.412265    0.277781
     16          6           0       -3.115273   -1.782624    0.568100
     17          6           0       -4.050426   -2.691445    1.366430
     18          1           0       -3.991306    0.073341    1.227498
     19          1           0       -4.668436   -0.548458   -0.274495
     20          1           0       -2.175880   -1.643827    1.118456
     21          1           0       -2.853529   -2.264944   -0.382413
     22          1           0       -4.983899   -2.859388    0.819600
     23          1           0       -4.302400   -2.234742    2.328995
     24          1           0       -3.592263   -3.665809    1.562796
     25          6           0       -2.805423    0.507629   -0.519594
     26          6           0       -3.418459    1.877989   -0.809913
     27          6           0       -2.483307    2.786809   -1.608243
     28          1           0       -1.865296    0.643823    0.032681
     29          1           0       -2.542426    0.022023   -1.469311
     30          1           0       -3.680203    2.360308    0.140600
     31          1           0       -4.357852    1.739191   -1.360269
     32          1           0       -2.231332    2.330107   -2.570809
     33          1           0       -1.549833    2.954752   -1.061413
     34          1           0       -2.941470    3.761173   -1.804609
 ---------------------------------------------------------------------

 SCF Done:  E(RHF) =  -669.536061378     A.U. after   15 cycles
 E2 =    -0.2091762336D+01 EUMP2 =    -0.67162782371389D+03

 The electronic state is 1-A.
 Alpha  occ. eigenvalues --  -20.60809 -20.60800 -15.85853 -11.31155 -11.27733
 Alpha  occ. eigenvalues --  -11.27680 -11.27471 -11.26742 -11.26717 -11.21765
 Alpha  occ. eigenvalues --  -11.21637 -11.21577 -11.21465 -11.21152 -11.21009
 Alpha  occ. eigenvalues --   -1.59877  -1.39434  -1.19330  -1.08740  -1.08546
 Alpha  occ. eigenvalues --   -1.04723  -1.03590  -0.96044  -0.95582  -0.87060
 Alpha  occ. eigenvalues --   -0.86129  -0.82414  -0.79667  -0.78434  -0.77451
 Alpha  occ. eigenvalues --   -0.72075  -0.71196  -0.70447  -0.65184  -0.64983
 Alpha  occ. eigenvalues --   -0.64710  -0.62081  -0.60964  -0.59418  -0.57667
 Alpha  occ. eigenvalues --   -0.55334  -0.55222  -0.53060  -0.52860  -0.52713
 Alpha  occ. eigenvalues --   -0.52450  -0.49969  -0.48836  -0.48824  -0.47981
 Alpha  occ. eigenvalues --   -0.46683  -0.45924  -0.45812  -0.44851  -0.43870
 Alpha  occ. eigenvalues --   -0.37318  -0.36323
 Alpha virt. eigenvalues --    0.05054   0.11314   0.16561   0.20360   0.23021
 Alpha virt. eigenvalues --    0.24112   0.25075   0.26023   0.27903   0.28126
 Alpha virt. eigenvalues --    0.30058   0.30886   0.31460   0.31812   0.31927

 Mulliken charges:
               1
     1  C   -0.170305
     2  C   -0.219255
     3  C   -0.169770
     4  C    0.155877
     5  C   -0.177667
     6  C   -0.223411
     7  H    0.225485
     8  H    0.223272
     9  H    0.275403
    10  H    0.290603
    11  H    0.224400
    12  N    0.487325
    13  O   -0.464098
    14  O   -0.459715
    15  C   -0.296605
    16  C   -0.301526
    17  C   -0.475675
    18  H    0.155061
    19  H    0.149457
    20  H    0.154875
    21  H    0.145848
    22  H    0.154868
    23  H    0.158324
    24  H    0.159917
    25  C   -0.312374
    26  C   -0.297638
    27  C   -0.479374
    28  H    0.162570
    29  H    0.140713
    30  H    0.157473
    31  H    0.151075
    32  H    0.149905
    33  H    0.163030
    34  H    0.161933
 Sum of Mulliken charges =  -0.00000

 Dipole moment (field-independent basis, Debye):
    X=              0.8607    Y=             -3.1180    Z=             -3.8860  Tot=              5.0560
 Quadrupole moment (field-independent basis, Debye-Ang):
   XX=            -85.2137   YY=            -96.5716   ZZ=            -97.0899
   XY=             -8.6995   XZ=             -8.3523   YZ=             -0.5118

 Normal termination of Gaussian 16 at Wed May  5 18:59:26 2021.
