 Gaussian 16, Revision A.03,
 Gaussian 16:  EM64L-G16RevA.03 25-Dec-2016

 -------------
 #p 6-31g* mp2
 -------------

 ------------------------------------------------------
 Input file generated by CHIRIPA (05-May-2021 14:57:25)
 ------------------------------------------------------
 Symbolic Z-matrix:
 Charge =  0 Multiplicity = 1

                         Standard orientation:
 ---------------------------------------------------------------------
 Center     Atomic      Atomic             Coordinates (Angstroms)
 Number     Number       Type             X           Y           Z
 ---------------------------------------------------------------------
      1          6           0       -4.777920   -2.057585    0.007083
      2          6           0       -5.287611   -1.038479   -0.804187
      3          6           0       -4.694355    0.227440   -0.810846
      4          6           0       -3.587814    0.440400    0.009828
      5          6           0       -3.056756   -0.554556    0.829174
      6          6           0       -3.666079   -1.812803    0.819742
      7          1           0       -5.245015   -3.038001    0.006006
      8          1           0       -6.150968   -1.225720   -1.436326
      9          1           0       -5.068434    1.034402   -1.429147
     10          1           0       -2.194936   -0.337768    1.448599
     11          1           0       -3.268097   -2.602367    1.450807
     12          7           0       -2.951257    1.776511    0.011296
     13          8           0       -1.977391    1.938686    0.743362
     14          8           0       -3.438242    2.636280   -0.719648
     15          6           0        1.250527   -0.663562    0.443196
     16          6           0        2.069652   -0.156423    1.457281
     17          6           0        3.424241    0.093047    1.217694
     18          6           0        3.928830   -0.177330   -0.053359
     19          6           0        3.138309   -0.682827   -1.084300
     20          6           0        1.786525   -0.924685   -0.822126
     21          1           0        0.199340   -0.854399    0.638086
     22          1           0        1.656112    0.047313    2.440907
     23          1           0        4.080962    0.485460    1.984603
     24          1           0        3.579236   -0.875968   -2.054711
     25          1           0        1.152750   -1.318556   -1.611582
     26          7           0        5.361388    0.082744   -0.318954
     27          8           0        5.781708   -0.163863   -1.447295
     28          8           0        6.036779    0.528271    0.606242
 ---------------------------------------------------------------------

 SCF Done:  E(RHF) =  -868.337287774     A.U. after   16 cycles
 E2 =    -0.2599926138D+01 EUMP2 =    -0.87093721391142D+03

 The electronic state is 1-A.
 Alpha  occ. eigenvalues --  -20.61637 -20.61611 -20.60501 -20.60495 -15.86679
 Alpha  occ. eigenvalues --  -15.85553 -11.32150 -11.30890 -11.28798 -11.28631
 Alpha  occ. eigenvalues --  -11.28380 -11.27763 -11.27660 -11.27471 -11.27445
 Alpha  occ. eigenvalues --  -11.27255 -11.26503 -11.26463  -1.60695  -1.59575
 Alpha  occ. eigenvalues --   -1.40250  -1.39130  -1.20303  -1.19064  -1.09660
 Alpha  occ. eigenvalues --   -1.08474  -1.05723  -1.04466  -0.96492  -0.95316
 Alpha  occ. eigenvalues --   -0.87106  -0.85873  -0.83322  -0.82151  -0.78380
 Alpha  occ. eigenvalues --   -0.77189  -0.72891  -0.72024  -0.71775  -0.71409
 Alpha  occ. eigenvalues --   -0.70896  -0.70213  -0.65944  -0.65703  -0.64729
 Alpha  occ. eigenvalues --   -0.64485  -0.63078  -0.61821  -0.56179  -0.55049
 Alpha  occ. eigenvalues --   -0.54018  -0.53771  -0.52782  -0.52573  -0.49661
 Alpha  occ. eigenvalues --   -0.49640  -0.48531  -0.48529  -0.45629  -0.44542
 Alpha  occ. eigenvalues --   -0.38249  -0.37331  -0.37032  -0.36056
 Alpha virt. eigenvalues --    0.04121   0.05352   0.10229   0.11600   0.15652
 Alpha virt. eigenvalues --    0.16847   0.19394   0.21855   0.25371   0.27001
 Alpha virt. eigenvalues --    0.27609   0.29091   0.30512   0.30915   0.32335

 Mulliken charges:
               1
     1  C   -0.170849
     2  C   -0.217299
     3  C   -0.170621
     4  C    0.160333
     5  C   -0.178514
     6  C   -0.218640
     7  H    0.228861
     8  H    0.227136
     9  H    0.278612
    10  H    0.269374
    11  H    0.224420
    12  N    0.488176
    13  O   -0.463003
    14  O   -0.455512
    15  C   -0.164746
    16  C   -0.216257
    17  C   -0.170550
    18  C    0.158557
    19  C   -0.170545
    20  C   -0.219561
    21  H    0.219162
    22  H    0.223339
    23  H    0.275508
    24  H    0.274702
    25  H    0.221639
    26  N    0.488119
    27  O   -0.461244
    28  O   -0.460599
 Sum of Mulliken charges =  -0.00000

 Dipole moment (field-independent basis, Debye):
    X=             -7.5863    Y=             -5.5493    Z=              0.8504  Tot=              9.4377
 Quadrupole moment (field-independent basis, Debye-Ang):
   XX=           -125.8468   YY=           -108.7832   ZZ=            -98.7662
   XY=             12.6166   XZ=              7.6747   YZ=              0.3174

 Normal termination of Gaussian 16 at Thu May  6 03:33:34 2021.
