 Gaussian 16, Revision A.03,
 Gaussian 16:  EM64L-G16RevA.03 25-Dec-2016

 -------------
 #p 6-31g* mp2
 -------------

 ------------------------------------------------------
 Input file generated by CHIRIPA (05-May-2021 14:53:11)
 ------------------------------------------------------
 Symbolic Z-matrix:
 Charge =  0 Multiplicity = 1

                         Standard orientation:
 ---------------------------------------------------------------------
 Center     Atomic      Atomic             Coordinates (Angstroms)
 Number     Number       Type             X           Y           Z
 ---------------------------------------------------------------------
      1          6           0        5.639969   -0.068651   -0.358144
      2          6           0        6.907107   -0.281063    0.470848
      3          6           0        8.170193   -0.352664   -0.387804
      4          1           0        5.544378   -0.885932   -1.086058
      5          1           0        5.741891    0.857854   -0.940034
      6          1           0        6.802256   -1.206169    1.052054
      7          1           0        6.999590    0.536716    1.197002
      8          1           0        8.302312    0.573377   -0.956658
      9          1           0        8.103856   -1.179411   -1.102428
     10          1           0        9.064145   -0.504845    0.225018
     11          6           0        4.368947    0.005044    0.486133
     12          6           0        3.101809    0.217457   -0.342858
     13          6           0        1.838723    0.289057    0.515793
     14          1           0        4.267025   -0.921460    1.068023
     15          1           0        4.464538    0.822325    1.214047
     16          1           0        3.009325   -0.600323   -1.069012
     17          1           0        3.206660    1.142563   -0.924065
     18          1           0        1.905060    1.115805    1.230418
     19          1           0        1.706604   -0.636983    1.084647
     20          1           0        0.944771    0.441239   -0.097029
     21          6           0       -3.117904    2.419939   -0.099571
     22          6           0       -2.198289    1.375569   -0.241423
     23          6           0       -2.625741    0.044719   -0.215495
     24          6           0       -3.986284   -0.206703   -0.045203
     25          6           0       -4.926916    0.812005    0.098799
     26          6           0       -4.476886    2.135326    0.069789
     27          1           0       -2.777079    3.450852   -0.120910
     28          1           0       -1.142279    1.593630   -0.373094
     29          1           0       -1.935335   -0.783055   -0.322955
     30          1           0       -5.973211    0.563302    0.228540
     31          1           0       -5.193327    2.944379    0.180200
     32          7           0       -4.450759   -1.611628   -0.016123
     33          8           0       -5.654793   -1.806683    0.135185
     34          8           0       -3.601986   -2.491153   -0.145188
 ---------------------------------------------------------------------

 SCF Done:  E(RHF) =  -669.535450086     A.U. after   15 cycles
 E2 =    -0.2090800812D+01 EUMP2 =    -0.67162625089767D+03

 The electronic state is 1-A.
 Alpha  occ. eigenvalues --  -20.60719 -20.60714 -15.85772 -11.31128 -11.27699
 Alpha  occ. eigenvalues --  -11.27683 -11.27438 -11.26717 -11.26677 -11.22234
 Alpha  occ. eigenvalues --  -11.21981 -11.21879 -11.21847 -11.21721 -11.21293
 Alpha  occ. eigenvalues --   -1.59795  -1.39348  -1.19299  -1.08874  -1.08697
 Alpha  occ. eigenvalues --   -1.04703  -1.04017  -0.96485  -0.95534  -0.87510
 Alpha  occ. eigenvalues --   -0.86100  -0.82369  -0.80081  -0.78653  -0.77417
 Alpha  occ. eigenvalues --   -0.71991  -0.71117  -0.70411  -0.65496  -0.64954
 Alpha  occ. eigenvalues --   -0.64728  -0.62108  -0.61401  -0.59865  -0.58078
 Alpha  occ. eigenvalues --   -0.55753  -0.55211  -0.53311  -0.53028  -0.52937
 Alpha  occ. eigenvalues --   -0.52654  -0.50403  -0.48749  -0.48746  -0.48394
 Alpha  occ. eigenvalues --   -0.47091  -0.46204  -0.46104  -0.44756  -0.44269
 Alpha  occ. eigenvalues --   -0.37283  -0.36301
 Alpha virt. eigenvalues --    0.05118   0.11349   0.16605   0.19934   0.22605
 Alpha virt. eigenvalues --    0.23783   0.25799   0.26250   0.27098   0.28227
 Alpha virt. eigenvalues --    0.28647   0.30242   0.30969   0.31618   0.32376

 Mulliken charges:
               1
     1  C   -0.298725
     2  C   -0.300065
     3  C   -0.475979
     4  H    0.151104
     5  H    0.149348
     6  H    0.153132
     7  H    0.151971
     8  H    0.155104
     9  H    0.156004
    10  H    0.161246
    11  C   -0.299331
    12  C   -0.299278
    13  C   -0.480388
    14  H    0.152044
    15  H    0.149840
    16  H    0.155150
    17  H    0.151170
    18  H    0.156681
    19  H    0.162383
    20  H    0.150022
    21  C   -0.171293
    22  C   -0.222695
    23  C   -0.172418
    24  C    0.158544
    25  C   -0.171135
    26  C   -0.218538
    27  H    0.225658
    28  H    0.229357
    29  H    0.275653
    30  H    0.275382
    31  H    0.223125
    32  N    0.488150
    33  O   -0.460719
    34  O   -0.460504
 Sum of Mulliken charges =  -0.00000

 Dipole moment (field-independent basis, Debye):
    X=              1.8384    Y=              4.9153    Z=             -0.0657  Tot=              5.2483
 Quadrupole moment (field-independent basis, Debye-Ang):
   XX=           -103.7533   YY=            -95.8564   ZZ=            -95.7815
   XY=            -21.9115   XZ=              0.1686   YZ=              0.0822

 Normal termination of Gaussian 16 at Thu May  6 02:27:57 2021.
