 Gaussian 16, Revision A.03,
 Gaussian 16:  EM64L-G16RevA.03 25-Dec-2016

 -------------
 #p 6-31g* mp2
 -------------

 ------------------------------------------------------
 Input file generated by CHIRIPA (05-May-2021 14:57:25)
 ------------------------------------------------------
 Symbolic Z-matrix:
 Charge =  0 Multiplicity = 1

                         Standard orientation:
 ---------------------------------------------------------------------
 Center     Atomic      Atomic             Coordinates (Angstroms)
 Number     Number       Type             X           Y           Z
 ---------------------------------------------------------------------
      1          6           0       -2.070414    1.076935    0.710630
      2          6           0       -3.211669    1.861200    0.908079
      3          6           0       -4.474280    1.380812    0.548095
      4          6           0       -4.559412    0.105925   -0.009314
      5          6           0       -3.440973   -0.699424   -0.218590
      6          6           0       -2.188500   -0.198626    0.148916
      7          1           0       -1.093525    1.458039    0.993195
      8          1           0       -3.122969    2.852188    1.344106
      9          1           0       -5.374233    1.966817    0.689877
     10          1           0       -3.561087   -1.683378   -0.655427
     11          1           0       -1.303909   -0.809913   -0.005587
     12          7           0       -5.890715   -0.413444   -0.394395
     13          8           0       -5.938958   -1.539924   -0.883630
     14          8           0       -6.860740    0.315790   -0.199694
     15          6           0        6.375046    1.246046   -0.451505
     16          6           0        5.110154    1.701263   -0.837958
     17          6           0        3.975624    0.913190   -0.622713
     18          6           0        4.143256   -0.330503   -0.015737
     19          6           0        5.390084   -0.811845    0.380520
     20          6           0        6.510735   -0.006846    0.155431
     21          1           0        7.250986    1.864815   -0.622537
     22          1           0        5.001776    2.673850   -1.309523
     23          1           0        2.984549    1.241074   -0.911987
     24          1           0        5.466504   -1.785846    0.848387
     25          1           0        7.491826   -0.362944    0.456593
     26          7           0        2.949526   -1.173759    0.217346
     27          8           0        3.123903   -2.265673    0.753959
     28          8           0        1.862108   -0.726824   -0.140993
 ---------------------------------------------------------------------

 SCF Done:  E(RHF) =  -868.340192921     A.U. after   16 cycles
 E2 =    -0.2598275896D+01 EUMP2 =    -0.87093846881716D+03

 The electronic state is 1-A.
 Alpha  occ. eigenvalues --  -20.61853 -20.61802 -20.60103 -20.60092 -15.86861
 Alpha  occ. eigenvalues --  -15.85144 -11.31973 -11.30355 -11.28532 -11.28484
 Alpha  occ. eigenvalues --  -11.28188 -11.27469 -11.27440 -11.26937 -11.26801
 Alpha  occ. eigenvalues --  -11.26534 -11.25950 -11.25623  -1.60885  -1.59178
 Alpha  occ. eigenvalues --   -1.40449  -1.38736  -1.20116  -1.18485  -1.09555
 Alpha  occ. eigenvalues --   -1.07900  -1.05481  -1.03845  -0.96434  -0.94771
 Alpha  occ. eigenvalues --   -0.86890  -0.85236  -0.83279  -0.81598  -0.78356
 Alpha  occ. eigenvalues --   -0.76673  -0.73098  -0.72186  -0.71366  -0.71218
 Alpha  occ. eigenvalues --   -0.70499  -0.69581  -0.65774  -0.65478  -0.64121
 Alpha  occ. eigenvalues --   -0.63789  -0.62834  -0.61171  -0.55981  -0.54331
 Alpha  occ. eigenvalues --   -0.53822  -0.53568  -0.52213  -0.51896  -0.49857
 Alpha  occ. eigenvalues --   -0.49806  -0.48131  -0.48104  -0.45909  -0.44177
 Alpha  occ. eigenvalues --   -0.38075  -0.37073  -0.36462  -0.35453
 Alpha virt. eigenvalues --    0.04163   0.05820   0.10585   0.12202   0.15711
 Alpha virt. eigenvalues --    0.17370   0.20719   0.22419   0.26662   0.27485
 Alpha virt. eigenvalues --    0.28459   0.29133   0.30433   0.31788   0.32151

 Mulliken charges:
               1
     1  C   -0.173240
     2  C   -0.219002
     3  C   -0.173267
     4  C    0.158362
     5  C   -0.173283
     6  C   -0.226164
     7  H    0.226333
     8  H    0.218710
     9  H    0.272132
    10  H    0.275110
    11  H    0.248433
    12  N    0.488075
    13  O   -0.461318
    14  O   -0.463420
    15  C   -0.169819
    16  C   -0.218347
    17  C   -0.171147
    18  C    0.157890
    19  C   -0.170110
    20  C   -0.218416
    21  H    0.228222
    22  H    0.225138
    23  H    0.272737
    24  H    0.277156
    25  H    0.226054
    26  N    0.491809
    27  O   -0.454946
    28  O   -0.473682
 Sum of Mulliken charges =  -0.00000

 Dipole moment (field-independent basis, Debye):
    X=              9.5201    Y=              4.6713    Z=              0.5318  Tot=             10.6177
 Quadrupole moment (field-independent basis, Debye-Ang):
   XX=           -110.9828   YY=           -100.7996   ZZ=           -105.0347
   XY=             -0.8132   XZ=             -9.0476   YZ=              0.0185

 Normal termination of Gaussian 16 at Fri May  7 06:33:16 2021.
