 Gaussian 16, Revision A.03,
 Gaussian 16:  EM64L-G16RevA.03 25-Dec-2016

 -------------
 #p 6-31g* mp2
 -------------

 ------------------------------------------------------
 Input file generated by CHIRIPA (05-May-2021 14:57:24)
 ------------------------------------------------------
 Symbolic Z-matrix:
 Charge =  0 Multiplicity = 1

                         Standard orientation:
 ---------------------------------------------------------------------
 Center     Atomic      Atomic             Coordinates (Angstroms)
 Number     Number       Type             X           Y           Z
 ---------------------------------------------------------------------
      1          6           0       -2.758414    2.357317   -0.639876
      2          6           0       -2.138684    1.984808    0.557493
      3          6           0       -2.155120    0.652531    0.980950
      4          6           0       -2.803323   -0.285408    0.178831
      5          6           0       -3.429810    0.054559   -1.019179
      6          6           0       -3.400866    1.392704   -1.423010
      7          1           0       -2.740788    3.394540   -0.961205
      8          1           0       -1.638997    2.731800    1.167707
      9          1           0       -1.683318    0.336642    1.903465
     10          1           0       -3.920017   -0.712620   -1.606163
     11          1           0       -3.882992    1.679115   -2.353369
     12          7           0       -2.827343   -1.698935    0.616737
     13          8           0       -3.405085   -2.506230   -0.107919
     14          8           0       -2.267975   -1.972798    1.676333
     15          6           0        3.332209   -2.354769   -0.642701
     16          6           0        4.341513   -1.498317   -0.190684
     17          6           0        4.057738   -0.162650    0.109334
     18          6           0        2.747850    0.285162   -0.054836
     19          6           0        1.720534   -0.543582   -0.503272
     20          6           0        2.027242   -1.875513   -0.797280
     21          1           0        3.561561   -3.390895   -0.873428
     22          1           0        5.355866   -1.867768   -0.069697
     23          1           0        4.819939    0.522057    0.460964
     24          1           0        0.718844   -0.146366   -0.613978
     25          1           0        1.241395   -2.538373   -1.148145
     26          7           0        2.435291    1.697195    0.259598
     27          8           0        1.273286    2.067292    0.106605
     28          8           0        3.358231    2.407111    0.653091
 ---------------------------------------------------------------------

 SCF Done:  E(RHF) =  -868.340077897     A.U. after   16 cycles
 E2 =    -0.2600212112D+01 EUMP2 =    -0.87094029000938D+03

 The electronic state is 1-A.
 Alpha  occ. eigenvalues --  -20.61136 -20.61086 -20.60832 -20.60821 -15.86148
 Alpha  occ. eigenvalues --  -15.85867 -11.31217 -11.30978 -11.27764 -11.27710
 Alpha  occ. eigenvalues --  -11.27477 -11.27419 -11.27367 -11.27016 -11.26718
 Alpha  occ. eigenvalues --  -11.26640 -11.26450 -11.26222  -1.60191  -1.59921
 Alpha  occ. eigenvalues --   -1.39752  -1.39475  -1.19357  -1.19071  -1.08808
 Alpha  occ. eigenvalues --   -1.08496  -1.04710  -1.04386  -0.95695  -0.95386
 Alpha  occ. eigenvalues --   -0.86124  -0.85792  -0.82547  -0.82196  -0.77630
 Alpha  occ. eigenvalues --   -0.77299  -0.72397  -0.72077  -0.71501  -0.71265
 Alpha  occ. eigenvalues --   -0.70459  -0.70120  -0.65015  -0.64705  -0.64683
 Alpha  occ. eigenvalues --   -0.64330  -0.62066  -0.61723  -0.55221  -0.54856
 Alpha  occ. eigenvalues --   -0.53060  -0.52932  -0.52622  -0.52434  -0.49145
 Alpha  occ. eigenvalues --   -0.49114  -0.48855  -0.48812  -0.45230  -0.44934
 Alpha  occ. eigenvalues --   -0.37320  -0.37014  -0.36299  -0.35927
 Alpha virt. eigenvalues --    0.04815   0.05218   0.11289   0.11734   0.16379
 Alpha virt. eigenvalues --    0.16840   0.21471   0.21951   0.27272   0.27854
 Alpha virt. eigenvalues --    0.28295   0.28733   0.31077   0.31539   0.32272

 Mulliken charges:
               1
     1  C   -0.171743
     2  C   -0.200318
     3  C   -0.178709
     4  C    0.151543
     5  C   -0.176063
     6  C   -0.218847
     7  H    0.228554
     8  H    0.236258
     9  H    0.275280
    10  H    0.272303
    11  H    0.222099
    12  N    0.486468
    13  O   -0.463418
    14  O   -0.461475
    15  C   -0.169728
    16  C   -0.218687
    17  C   -0.171060
    18  C    0.156165
    19  C   -0.173206
    20  C   -0.217496
    21  H    0.227711
    22  H    0.223619
    23  H    0.274475
    24  H    0.276760
    25  H    0.229516
    26  N    0.490822
    27  O   -0.471242
    28  O   -0.459584
 Sum of Mulliken charges =  -0.00000

 Dipole moment (field-independent basis, Debye):
    X=              1.3173    Y=              0.1934    Z=             -2.5923  Tot=              2.9142
 Quadrupole moment (field-independent basis, Debye-Ang):
   XX=            -94.3466   YY=           -110.5694   ZZ=           -102.6688
   XY=            -27.0815   XZ=              4.8535   YZ=              2.9151

 Normal termination of Gaussian 16 at Thu May  6 19:39:54 2021.
