 Gaussian 16, Revision A.03,
 Gaussian 16:  EM64L-G16RevA.03 25-Dec-2016

 -------------
 #p 6-31g* mp2
 -------------

 ------------------------------------------------------
 Input file generated by CHIRIPA (05-May-2021 14:53:17)
 ------------------------------------------------------
 Symbolic Z-matrix:
 Charge =  0 Multiplicity = 1

                         Standard orientation:
 ---------------------------------------------------------------------
 Center     Atomic      Atomic             Coordinates (Angstroms)
 Number     Number       Type             X           Y           Z
 ---------------------------------------------------------------------
      1          6           0        5.720431    0.221137   -0.302097
      2          6           0        7.078775   -0.480851   -0.292157
      3          6           0        8.181833    0.356765   -0.939813
      4          1           0        5.443651    0.455744   -1.339063
      5          1           0        5.808400    1.182330    0.223036
      6          1           0        6.987935   -1.441062   -0.815950
      7          1           0        7.352265   -0.713984    0.744891
      8          1           0        8.301514    1.309292   -0.413535
      9          1           0        7.935114    0.578084   -1.983244
     10          1           0        9.144296   -0.164007   -0.921882
     11          6           0        4.607499   -0.603703    0.341913
     12          6           0        3.249154    0.098285    0.331973
     13          6           0        2.146096   -0.739330    0.979629
     14          1           0        4.519529   -1.564896   -0.183220
     15          1           0        4.884278   -0.838309    1.378879
     16          1           0        2.975665    0.331419   -0.705075
     17          1           0        3.339994    1.058496    0.855766
     18          1           0        2.392815   -0.960650    2.023060
     19          1           0        2.026416   -1.691858    0.453351
     20          1           0        1.183633   -0.218559    0.961698
     21          6           0       -2.033399    1.520616    0.678711
     22          6           0       -3.138088    2.143434    0.088556
     23          6           0       -4.252228    1.393627   -0.300065
     24          6           0       -4.227791    0.016879   -0.082673
     25          6           0       -3.142243   -0.632726    0.502892
     26          6           0       -2.038992    0.136963    0.883634
     27          1           0       -1.172138    2.110807    0.977540
     28          1           0       -3.136519    3.217829   -0.071813
     29          1           0       -5.120747    1.850134   -0.759080
     30          1           0       -3.173053   -1.705510    0.649870
     31          1           0       -1.182472   -0.349414    1.341732
     32          7           0       -5.401518   -0.787433   -0.489917
     33          8           0       -5.355298   -1.998850   -0.287514
     34          8           0       -6.345481   -0.191205   -1.003807
 ---------------------------------------------------------------------

 SCF Done:  E(RHF) =  -669.535492414     A.U. after   15 cycles
 E2 =    -0.2090789447D+01 EUMP2 =    -0.67162628186102D+03

 The electronic state is 1-A.
 Alpha  occ. eigenvalues --  -20.60738 -20.60733 -15.85791 -11.31156 -11.27726
 Alpha  occ. eigenvalues --  -11.27714 -11.27469 -11.26743 -11.26702 -11.22426
 Alpha  occ. eigenvalues --  -11.22134 -11.22023 -11.22009 -11.21880 -11.21423
 Alpha  occ. eigenvalues --   -1.59814  -1.39367  -1.19327  -1.09036  -1.08725
 Alpha  occ. eigenvalues --   -1.04729  -1.04173  -0.96638  -0.95559  -0.87665
 Alpha  occ. eigenvalues --   -0.86129  -0.82389  -0.80245  -0.78815  -0.77438
 Alpha  occ. eigenvalues --   -0.72010  -0.71137  -0.70439  -0.65658  -0.64981
 Alpha  occ. eigenvalues --   -0.64769  -0.62115  -0.61557  -0.60023  -0.58230
 Alpha  occ. eigenvalues --   -0.55904  -0.55236  -0.53475  -0.53096  -0.53037
 Alpha  occ. eigenvalues --   -0.52683  -0.50560  -0.48772  -0.48765  -0.48551
 Alpha  occ. eigenvalues --   -0.47255  -0.46366  -0.46265  -0.44773  -0.44423
 Alpha  occ. eigenvalues --   -0.37309  -0.36328
 Alpha virt. eigenvalues --    0.05096   0.11257   0.16589   0.20139   0.22437
 Alpha virt. eigenvalues --    0.23846   0.25875   0.26090   0.26879   0.27885
 Alpha virt. eigenvalues --    0.28391   0.30322   0.30803   0.31455   0.31719

 Mulliken charges:
               1
     1  C   -0.298736
     2  C   -0.300124
     3  C   -0.476022
     4  H    0.150550
     5  H    0.149495
     6  H    0.152990
     7  H    0.152468
     8  H    0.155289
     9  H    0.155759
    10  H    0.161620
    11  C   -0.299283
    12  C   -0.299539
    13  C   -0.479849
    14  H    0.151572
    15  H    0.150680
    16  H    0.154228
    17  H    0.150953
    18  H    0.157829
    19  H    0.160052
    20  H    0.150243
    21  C   -0.172356
    22  C   -0.218542
    23  C   -0.171198
    24  C    0.158742
    25  C   -0.171646
    26  C   -0.222734
    27  H    0.225429
    28  H    0.223296
    29  H    0.275499
    30  H    0.275944
    31  H    0.230336
    32  N    0.487991
    33  O   -0.460395
    34  O   -0.460541
 Sum of Mulliken charges =  -0.00000

 Dipole moment (field-independent basis, Debye):
    X=              4.3376    Y=              2.8036    Z=              1.4052  Tot=              5.3525
 Quadrupole moment (field-independent basis, Debye-Ang):
   XX=           -129.2548   YY=            -91.4200   ZZ=            -94.6244
   XY=            -14.6114   XZ=             -5.0479   YZ=             -1.2032

 Normal termination of Gaussian 16 at Thu May  6 02:47:58 2021.
