 Gaussian 16, Revision A.03,
 Gaussian 16:  EM64L-G16RevA.03 25-Dec-2016

 -------------
 #p 6-31g* mp2
 -------------

 ------------------------------------------------------
 Input file generated by CHIRIPA (05-May-2021 14:57:24)
 ------------------------------------------------------
 Symbolic Z-matrix:
 Charge =  0 Multiplicity = 1

                         Standard orientation:
 ---------------------------------------------------------------------
 Center     Atomic      Atomic             Coordinates (Angstroms)
 Number     Number       Type             X           Y           Z
 ---------------------------------------------------------------------
      1          6           0        2.471941   -2.391913   -0.446608
      2          6           0        1.746101   -1.627380   -1.365937
      3          6           0        1.788062   -0.230784   -1.317908
      4          6           0        2.569715    0.371022   -0.332951
      5          6           0        3.304088   -0.363207    0.597046
      6          6           0        3.247251   -1.758504    0.530227
      7          1           0        2.433566   -3.476318   -0.491217
      8          1           0        1.143134   -2.116587   -2.125643
      9          1           0        1.236024    0.385353   -2.017227
     10          1           0        3.896197    0.152990    1.342945
     11          1           0        3.811984   -2.349707    1.245489
     12          7           0        2.622012    1.848848   -0.272159
     13          8           0        3.318211    2.354951    0.605225
     14          8           0        1.965812    2.473081   -1.103045
     15          6           0       -4.301065    0.321686   -1.428103
     16          6           0       -3.188112   -0.471674   -1.725484
     17          6           0       -2.217776   -0.727165   -0.751974
     18          6           0       -2.392882   -0.170880    0.514191
     19          6           0       -3.490701    0.623589    0.841148
     20          6           0       -4.448548    0.865826   -0.147992
     21          1           0       -5.049994    0.515011   -2.190420
     22          1           0       -3.070970   -0.895569   -2.718779
     23          1           0       -1.346421   -1.337807   -0.955135
     24          1           0       -3.580026    1.032362    1.840319
     25          1           0       -5.311860    1.482333    0.085793
     26          7           0       -1.372242   -0.434341    1.553076
     27          8           0       -1.549685    0.067385    2.660967
     28          8           0       -0.414147   -1.137580    1.239792
 ---------------------------------------------------------------------

 SCF Done:  E(RHF) =  -868.336788684     A.U. after   16 cycles
 E2 =    -0.2602588872D+01 EUMP2 =    -0.87093937755586D+03

 The electronic state is 1-A.
 Alpha  occ. eigenvalues --  -20.60900 -20.60887 -20.60168 -20.60139 -15.85935
 Alpha  occ. eigenvalues --  -15.85205 -11.31329 -11.30385 -11.27947 -11.27860
 Alpha  occ. eigenvalues --  -11.27633 -11.27082 -11.26965 -11.26942 -11.26877
 Alpha  occ. eigenvalues --  -11.26738 -11.26102 -11.25908  -1.59972  -1.59233
 Alpha  occ. eigenvalues --   -1.39525  -1.38794  -1.19499  -1.18555  -1.08888
 Alpha  occ. eigenvalues --   -1.08000  -1.04921  -1.04000  -0.95726  -0.94871
 Alpha  occ. eigenvalues --   -0.86313  -0.85429  -0.82568  -0.81752  -0.77621
 Alpha  occ. eigenvalues --   -0.76809  -0.72184  -0.71444  -0.71300  -0.70619
 Alpha  occ. eigenvalues --   -0.70534  -0.69749  -0.65162  -0.64940  -0.64276
 Alpha  occ. eigenvalues --   -0.64092  -0.62300  -0.61391  -0.55408  -0.54537
 Alpha  occ. eigenvalues --   -0.53225  -0.53044  -0.52196  -0.52161  -0.48952
 Alpha  occ. eigenvalues --   -0.48897  -0.48201  -0.48180  -0.44900  -0.44240
 Alpha  occ. eigenvalues --   -0.37462  -0.36534  -0.36458  -0.35475
 Alpha virt. eigenvalues --    0.04868   0.05808   0.11090   0.12053   0.16416
 Alpha virt. eigenvalues --    0.17146   0.20694   0.22196   0.26198   0.27683
 Alpha virt. eigenvalues --    0.28898   0.29110   0.30687   0.31434   0.32840

 Mulliken charges:
               1
     1  C   -0.160871
     2  C   -0.214499
     3  C   -0.169089
     4  C    0.162749
     5  C   -0.163378
     6  C   -0.211427
     7  H    0.222337
     8  H    0.210013
     9  H    0.268156
    10  H    0.274713
    11  H    0.222136
    12  N    0.487768
    13  O   -0.459999
    14  O   -0.466335
    15  C   -0.169545
    16  C   -0.219255
    17  C   -0.173026
    18  C    0.158302
    19  C   -0.168667
    20  C   -0.217877
    21  H    0.226393
    22  H    0.220565
    23  H    0.271797
    24  H    0.277238
    25  H    0.224971
    26  N    0.488845
    27  O   -0.458386
    28  O   -0.463629
 Sum of Mulliken charges =  -0.00000

 Dipole moment (field-independent basis, Debye):
    X=             -3.7821    Y=             -4.2926    Z=             -3.5374  Tot=              6.7264
 Quadrupole moment (field-independent basis, Debye-Ang):
   XX=            -85.5747   YY=           -108.8865   ZZ=           -104.3209
   XY=            -17.6859   XZ=              7.8398   YZ=              4.4287

 Normal termination of Gaussian 16 at Fri May  7 11:05:56 2021.
