 Gaussian 16, Revision A.03,
 Gaussian 16:  EM64L-G16RevA.03 25-Dec-2016

 -------------
 #p 6-31g* mp2
 -------------

 ------------------------------------------------------
 Input file generated by CHIRIPA (05-May-2021 14:55:20)
 ------------------------------------------------------
 Symbolic Z-matrix:
 Charge =  0 Multiplicity = 1

                         Standard orientation:
 ---------------------------------------------------------------------
 Center     Atomic      Atomic             Coordinates (Angstroms)
 Number     Number       Type             X           Y           Z
 ---------------------------------------------------------------------
      1          6           0        3.631577    2.229855    0.805688
      2          6           0        2.696301    1.511028    1.557398
      3          6           0        2.216003    0.279196    1.103028
      4          6           0        2.694639   -0.206245   -0.112926
      5          6           0        3.626337    0.486306   -0.884679
      6          6           0        4.092797    1.716106   -0.410806
      7          1           0        3.999309    3.185983    1.166229
      8          1           0        2.336344    1.907569    2.502507
      9          1           0        1.491820   -0.298151    1.664853
     10          1           0        3.966535    0.065265   -1.822980
     11          1           0        4.819131    2.272171   -0.996703
     12          7           0        2.193494   -1.509255   -0.604270
     13          8           0        2.630897   -1.915190   -1.678762
     14          8           0        1.372782   -2.099946    0.094409
     15          6           0       -4.050971    0.450432   -0.311936
     16          6           0       -3.716441    1.934164   -0.155049
     17          6           0       -4.718037    2.844415   -0.866416
     18          1           0       -4.081997    0.199132   -1.380968
     19          1           0       -5.059937    0.265554    0.082023
     20          1           0       -2.707865    2.115932   -0.547924
     21          1           0       -3.686018    2.181919    0.913739
     22          1           0       -5.726723    2.692239   -0.468930
     23          1           0       -4.743012    2.625878   -1.938899
     24          1           0       -4.459862    3.900615   -0.741326
     25          6           0       -3.058746   -0.472209    0.393719
     26          6           0       -3.393277   -1.955942    0.236832
     27          6           0       -2.391681   -2.866192    0.948199
     28          1           0       -2.049781   -0.287331   -0.000240
     29          1           0       -3.027721   -0.220909    1.462752
     30          1           0       -3.423699   -2.203696   -0.831956
     31          1           0       -4.401853   -2.137710    0.629707
     32          1           0       -2.366706   -2.647654    2.020682
     33          1           0       -1.382995   -2.714017    0.550714
     34          1           0       -2.649856   -3.922391    0.823109
 ---------------------------------------------------------------------

 SCF Done:  E(RHF) =  -669.536299374     A.U. after   15 cycles
 E2 =    -0.2091012427D+01 EUMP2 =    -0.67162731180082D+03

 The electronic state is 1-A.
 Alpha  occ. eigenvalues --  -20.60958 -20.60945 -15.85989 -11.31287 -11.27850
 Alpha  occ. eigenvalues --  -11.27840 -11.27584 -11.26853 -11.26841 -11.21447
 Alpha  occ. eigenvalues --  -11.21054 -11.20960 -11.20915 -11.20846 -11.19925
 Alpha  occ. eigenvalues --   -1.60016  -1.39572  -1.19455  -1.08863  -1.08001
 Alpha  occ. eigenvalues --   -1.04847  -1.03023  -0.95710  -0.95451  -0.86469
 Alpha  occ. eigenvalues --   -0.86248  -0.82543  -0.79123  -0.77802  -0.77588
 Alpha  occ. eigenvalues --   -0.72214  -0.71330  -0.70562  -0.65112  -0.64849
 Alpha  occ. eigenvalues --   -0.64630  -0.62193  -0.60410  -0.58884  -0.57064
 Alpha  occ. eigenvalues --   -0.55353  -0.54720  -0.53181  -0.52937  -0.52147
 Alpha  occ. eigenvalues --   -0.51873  -0.49405  -0.48971  -0.48941  -0.47417
 Alpha  occ. eigenvalues --   -0.46168  -0.45359  -0.45290  -0.44868  -0.43298
 Alpha  occ. eigenvalues --   -0.37434  -0.36447
 Alpha virt. eigenvalues --    0.04902   0.11199   0.16380   0.21270   0.23252
 Alpha virt. eigenvalues --    0.24790   0.26873   0.27259   0.27677   0.28238
 Alpha virt. eigenvalues --    0.28852   0.30864   0.31848   0.32084   0.32514

 Mulliken charges:
               1
     1  C   -0.170565
     2  C   -0.218452
     3  C   -0.170884
     4  C    0.157389
     5  C   -0.170776
     6  C   -0.218614
     7  H    0.226030
     8  H    0.224107
     9  H    0.276713
    10  H    0.275748
    11  H    0.223775
    12  N    0.492493
    13  O   -0.458770
    14  O   -0.464542
    15  C   -0.297839
    16  C   -0.299028
    17  C   -0.475302
    18  H    0.150640
    19  H    0.148766
    20  H    0.150320
    21  H    0.149265
    22  H    0.155223
    23  H    0.155782
    24  H    0.157983
    25  C   -0.297944
    26  C   -0.298627
    27  C   -0.487554
    28  H    0.150779
    29  H    0.144777
    30  H    0.152808
    31  H    0.147693
    32  H    0.146926
    33  H    0.183697
    34  H    0.157986
 Sum of Mulliken charges =  -0.00000

 Dipole moment (field-independent basis, Debye):
    X=              1.9981    Y=              4.5328    Z=              1.6600  Tot=              5.2244
 Quadrupole moment (field-independent basis, Debye-Ang):
   XX=            -84.8010   YY=            -97.9643   ZZ=            -91.7071
   XY=             13.0298   XZ=              1.2567   YZ=             -0.6185

 Normal termination of Gaussian 16 at Wed May  5 20:33:00 2021.
