 Gaussian 16, Revision A.03,
 Gaussian 16:  EM64L-G16RevA.03 25-Dec-2016

 -------------
 #p 6-31g* mp2
 -------------

 ------------------------------------------------------
 Input file generated by CHIRIPA (05-May-2021 14:51:07)
 ------------------------------------------------------
 Symbolic Z-matrix:
 Charge =  0 Multiplicity = 1

                         Standard orientation:
 ---------------------------------------------------------------------
 Center     Atomic      Atomic             Coordinates (Angstroms)
 Number     Number       Type             X           Y           Z
 ---------------------------------------------------------------------
      1          6           0        3.379016    0.785182   -0.009146
      2          6           0        4.568978    1.736627   -0.138479
      3          6           0        4.231740    3.166178    0.286313
      4          1           0        2.547083    1.163739   -0.618677
      5          1           0        3.029120    0.786281    1.032471
      6          1           0        4.917398    1.732682   -1.179250
      7          1           0        5.398240    1.355660    0.471279
      8          1           0        3.904766    3.190686    1.330865
      9          1           0        3.421191    3.569850   -0.329042
     10          1           0        5.096539    3.829424    0.185876
     11          6           0        3.700500   -0.647705   -0.430111
     12          6           0        2.510538   -1.599151   -0.300778
     13          6           0        2.847777   -3.028701   -0.725570
     14          1           0        4.050396   -0.648804   -1.471728
     15          1           0        4.532433   -1.026262    0.179420
     16          1           0        1.681276   -1.218183   -0.910536
     17          1           0        2.162119   -1.595205    0.739993
     18          1           0        3.658325   -3.432373   -0.110215
     19          1           0        3.174751   -3.053209   -1.770122
     20          1           0        1.982977   -3.691947   -0.625133
     21          6           0       -3.088505   -0.680696    0.292500
     22          6           0       -1.792850   -0.391778    1.051308
     23          6           0       -0.900634   -1.625798    1.188927
     24          1           0       -3.639569   -1.477407    0.810696
     25          1           0       -2.842000   -1.069204   -0.705344
     26          1           0       -2.041722   -0.002628    2.046918
     27          1           0       -1.244900    0.404470    0.531351
     28          1           0       -0.623501   -2.012699    0.202971
     29          1           0       -1.424851   -2.422110    1.727151
     30          1           0        0.020065   -1.396697    1.734531
     31          6           0       -3.991011    0.543219    0.146757
     32          6           0       -5.286666    0.254301   -0.612051
     33          6           0       -6.178882    1.488321   -0.749669
     34          1           0       -4.237516    0.931727    1.144601
     35          1           0       -3.439949    1.339929   -0.371440
     36          1           0       -5.834617   -0.541947   -0.092094
     37          1           0       -5.037795   -0.134850   -1.607662
     38          1           0       -5.654665    2.284632   -1.287894
     39          1           0       -6.456015    1.875222    0.236285
     40          1           0       -7.099583    1.259221   -1.295273
 ---------------------------------------------------------------------

 SCF Done:  E(RHF) =  -470.732372259     A.U. after   11 cycles
 E2 =    -0.1583204747D+01 EUMP2 =    -0.47231557700523D+03

 The electronic state is 1-A.
 Alpha  occ. eigenvalues --  -11.21598 -11.21595 -11.21563 -11.21499 -11.21391
 Alpha  occ. eigenvalues --  -11.21387 -11.21331 -11.21315 -11.21071 -11.21067
 Alpha  occ. eigenvalues --  -11.21030 -11.20969  -1.08429  -1.08389  -1.03556
 Alpha  occ. eigenvalues --   -1.03453  -0.95999  -0.95914  -0.87020  -0.86931
 Alpha  occ. eigenvalues --   -0.79706  -0.79445  -0.78255  -0.78184  -0.65058
 Alpha  occ. eigenvalues --   -0.65031  -0.60945  -0.60900  -0.59469  -0.59190
 Alpha  occ. eigenvalues --   -0.57582  -0.57565  -0.55252  -0.55220  -0.52736
 Alpha  occ. eigenvalues --   -0.52600  -0.52429  -0.52318  -0.49922  -0.49890
 Alpha  occ. eigenvalues --   -0.47932  -0.47821  -0.46610  -0.46576  -0.45801
 Alpha  occ. eigenvalues --   -0.45734  -0.45677  -0.45646  -0.43787  -0.43663
 Alpha virt. eigenvalues --    0.21625   0.23124   0.23588   0.24744   0.25518
 Alpha virt. eigenvalues --    0.26504   0.26832   0.27277   0.28107   0.29226
 Alpha virt. eigenvalues --    0.29977   0.31028   0.31657   0.32012   0.32450

 Mulliken charges:
               1
     1  C   -0.298069
     2  C   -0.299549
     3  C   -0.475673
     4  H    0.149123
     5  H    0.148956
     6  H    0.151948
     7  H    0.151976
     8  H    0.155193
     9  H    0.155038
    10  H    0.160247
    11  C   -0.298231
    12  C   -0.301405
    13  C   -0.476980
    14  H    0.148998
    15  H    0.149279
    16  H    0.151501
    17  H    0.156741
    18  H    0.155027
    19  H    0.154710
    20  H    0.160979
    21  C   -0.298505
    22  C   -0.300156
    23  C   -0.477276
    24  H    0.149632
    25  H    0.149203
    26  H    0.151581
    27  H    0.152156
    28  H    0.157918
    29  H    0.153670
    30  H    0.162136
    31  C   -0.298215
    32  C   -0.299619
    33  C   -0.475683
    34  H    0.149542
    35  H    0.149514
    36  H    0.151938
    37  H    0.151821
    38  H    0.155127
    39  H    0.155195
    40  H    0.160215
 Sum of Mulliken charges =  -0.00000

 Dipole moment (field-independent basis, Debye):
    X=              0.0024    Y=             -0.0102    Z=              0.0118  Tot=              0.0158
 Quadrupole moment (field-independent basis, Debye-Ang):
   XX=            -85.2448   YY=            -86.5261   ZZ=            -83.1964
   XY=              0.7262   XZ=             -0.1901   YZ=             -0.5927

 Normal termination of Gaussian 16 at Thu May  6 02:02:36 2021.
