 Gaussian 16, Revision A.03,
 Gaussian 16:  EM64L-G16RevA.03 25-Dec-2016

 -------------
 #p 6-31g* mp2
 -------------

 ------------------------------------------------------
 Input file generated by CHIRIPA (05-May-2021 14:55:20)
 ------------------------------------------------------
 Symbolic Z-matrix:
 Charge =  0 Multiplicity = 1

                         Standard orientation:
 ---------------------------------------------------------------------
 Center     Atomic      Atomic             Coordinates (Angstroms)
 Number     Number       Type             X           Y           Z
 ---------------------------------------------------------------------
      1          6           0       -3.267094    2.634789   -0.048917
      2          6           0       -2.227238    1.782424   -0.434525
      3          6           0       -2.410030    0.396381   -0.439177
      4          6           0       -3.651185   -0.105423   -0.050569
      5          6           0       -4.706611    0.717820    0.338838
      6          6           0       -4.501286    2.100708    0.335856
      7          1           0       -3.116345    3.710275   -0.048268
      8          1           0       -1.267685    2.194394   -0.733830
      9          1           0       -1.622119   -0.286425   -0.733100
     10          1           0       -5.651934    0.277604    0.632083
     11          1           0       -5.310645    2.760263    0.635806
     12          7           0       -3.856626   -1.571094   -0.051453
     13          8           0       -4.959547   -1.988242    0.295230
     14          8           0       -2.910839   -2.274987   -0.398812
     15          6           0        5.264547    0.005448   -0.321091
     16          6           0        6.494158    0.163003    0.574016
     17          6           0        7.755391    0.522530   -0.212004
     18          1           0        5.463298   -0.770414   -1.073075
     19          1           0        5.099350    0.940947   -0.873312
     20          1           0        6.656172   -0.772049    1.125420
     21          1           0        6.292386    0.938447    1.324077
     22          1           0        7.618376    1.466426   -0.749486
     23          1           0        7.984230   -0.253788   -0.949272
     24          1           0        8.622278    0.630321    0.447351
     25          6           0        3.995807   -0.353961    0.450176
     26          6           0        2.766196   -0.511515   -0.444931
     27          6           0        1.504964   -0.871042    0.341088
     28          1           0        4.161006   -1.289459    1.002396
     29          1           0        3.797056    0.421902    1.202160
     30          1           0        2.967969   -1.286959   -1.194993
     31          1           0        2.604182    0.423536   -0.996335
     32          1           0        1.276124   -0.094725    1.078357
     33          1           0        1.641979   -1.814939    0.878570
     34          1           0        0.638077   -0.978833   -0.318267
 ---------------------------------------------------------------------

 SCF Done:  E(RHF) =  -669.535422912     A.U. after   15 cycles
 E2 =    -0.2090929568D+01 EUMP2 =    -0.67162635248017D+03

 The electronic state is 1-A.
 Alpha  occ. eigenvalues --  -20.60730 -20.60725 -15.85782 -11.31142 -11.27722
 Alpha  occ. eigenvalues --  -11.27698 -11.27470 -11.26740 -11.26726 -11.21920
 Alpha  occ. eigenvalues --  -11.21769 -11.21636 -11.21566 -11.21421 -11.21217
 Alpha  occ. eigenvalues --   -1.59805  -1.39359  -1.19321  -1.08719  -1.08665
 Alpha  occ. eigenvalues --   -1.04726  -1.03774  -0.96224  -0.95553  -0.87240
 Alpha  occ. eigenvalues --   -0.86124  -0.82385  -0.79833  -0.78469  -0.77432
 Alpha  occ. eigenvalues --   -0.72003  -0.71126  -0.70444  -0.65294  -0.64975
 Alpha  occ. eigenvalues --   -0.64742  -0.62121  -0.61163  -0.59586  -0.57833
 Alpha  occ. eigenvalues --   -0.55499  -0.55236  -0.53117  -0.53029  -0.52718
 Alpha  occ. eigenvalues --   -0.52559  -0.50148  -0.48761  -0.48758  -0.48148
 Alpha  occ. eigenvalues --   -0.46862  -0.46011  -0.45935  -0.44765  -0.44025
 Alpha  occ. eigenvalues --   -0.37308  -0.36323
 Alpha virt. eigenvalues --    0.05096   0.11315   0.16586   0.20389   0.22752
 Alpha virt. eigenvalues --    0.23843   0.26079   0.26400   0.27298   0.27785
 Alpha virt. eigenvalues --    0.28829   0.30054   0.31283   0.31566   0.31765

 Mulliken charges:
               1
     1  C   -0.170700
     2  C   -0.221706
     3  C   -0.176007
     4  C    0.158157
     5  C   -0.170295
     6  C   -0.218924
     7  H    0.225347
     8  H    0.223629
     9  H    0.285112
    10  H    0.275510
    11  H    0.223260
    12  N    0.487085
    13  O   -0.460537
    14  O   -0.460680
    15  C   -0.298294
    16  C   -0.299823
    17  C   -0.475801
    18  H    0.150987
    19  H    0.148097
    20  H    0.153110
    21  H    0.151480
    22  H    0.154602
    23  H    0.155902
    24  H    0.160817
    25  C   -0.298812
    26  C   -0.299220
    27  C   -0.480653
    28  H    0.152152
    29  H    0.148610
    30  H    0.155700
    31  H    0.146297
    32  H    0.152950
    33  H    0.163949
    34  H    0.158699
 Sum of Mulliken charges =  -0.00000

 Dipole moment (field-independent basis, Debye):
    X=              0.8258    Y=              5.0904    Z=              0.0423  Tot=              5.1571
 Quadrupole moment (field-independent basis, Debye-Ang):
   XX=            -96.3964   YY=            -95.3338   ZZ=            -95.2705
   XY=            -20.5586   XZ=             -1.3555   YZ=              0.1768

 Normal termination of Gaussian 16 at Thu May  6 12:28:12 2021.
