 Gaussian 16, Revision A.03,
 Gaussian 16:  EM64L-G16RevA.03 25-Dec-2016

 -------------
 #p 6-31g* mp2
 -------------

 ------------------------------------------------------
 Input file generated by CHIRIPA (05-May-2021 14:51:08)
 ------------------------------------------------------
 Symbolic Z-matrix:
 Charge =  0 Multiplicity = 1

                         Standard orientation:
 ---------------------------------------------------------------------
 Center     Atomic      Atomic             Coordinates (Angstroms)
 Number     Number       Type             X           Y           Z
 ---------------------------------------------------------------------
      1          6           0       -5.277642    0.010875    0.229099
      2          6           0       -6.308462   -0.208272   -0.878769
      3          6           0       -7.683176    0.361957   -0.528349
      4          1           0       -5.642113   -0.450972    1.156895
      5          1           0       -5.188715    1.087527    0.429864
      6          1           0       -6.394406   -1.284097   -1.078343
      7          1           0       -5.941407    0.253984   -1.804083
      8          1           0       -7.618811    1.440121   -0.349411
      9          1           0       -8.074383   -0.106699    0.380453
     10          1           0       -8.404642    0.194256   -1.334092
     11          6           0       -3.898365   -0.553683   -0.106454
     12          6           0       -2.867546   -0.334536    1.001414
     13          6           0       -1.492831   -0.904765    0.650993
     14          1           0       -3.987292   -1.630335   -0.307219
     15          1           0       -3.533894   -0.091836   -1.034250
     16          1           0       -3.234600   -0.796793    1.926728
     17          1           0       -2.781601    0.741289    1.200988
     18          1           0       -1.101624   -0.436109   -0.257808
     19          1           0       -1.557196   -1.982930    0.472056
     20          1           0       -0.771365   -0.737064    1.456737
     21          6           0        5.315315    0.355455   -0.279002
     22          6           0        6.156615   -0.906188   -0.082900
     23          6           0        7.609319   -0.722329   -0.522951
     24          1           0        5.345084    0.647451   -1.337679
     25          1           0        5.768788    1.181626    0.285976
     26          1           0        5.700920   -1.730074   -0.646964
     27          1           0        6.124686   -1.195324    0.975400
     28          1           0        8.085966    0.081217    0.047770
     29          1           0        7.659793   -0.456572   -1.583812
     30          1           0        8.192649   -1.636338   -0.374050
     31          6           0        3.860692    0.187353    0.156358
     32          6           0        3.019391    1.448996   -0.039746
     33          6           0        1.566689    1.265137    0.400306
     34          1           0        3.407219   -0.638818   -0.408620
     35          1           0        3.830923   -0.104642    1.215034
     36          1           0        3.051322    1.738132   -1.098045
     37          1           0        3.475087    2.272882    0.524320
     38          1           0        1.516214    0.999380    1.461168
     39          1           0        1.090041    0.461591   -0.170414
     40          1           0        0.983358    2.179146    0.251406
 ---------------------------------------------------------------------

 SCF Done:  E(RHF) =  -470.732487153     A.U. after   11 cycles
 E2 =    -0.1582626861D+01 EUMP2 =    -0.47231511401443D+03

 The electronic state is 1-A.
 Alpha  occ. eigenvalues --  -11.21581 -11.21579 -11.21540 -11.21535 -11.21372
 Alpha  occ. eigenvalues --  -11.21371 -11.21312 -11.21310 -11.21055 -11.21054
 Alpha  occ. eigenvalues --  -11.20958 -11.20947  -1.08401  -1.08384  -1.03523
 Alpha  occ. eigenvalues --   -1.03451  -0.96021  -0.95858  -0.87089  -0.86829
 Alpha  occ. eigenvalues --   -0.79665  -0.79445  -0.78226  -0.78185  -0.65052
 Alpha  occ. eigenvalues --   -0.64999  -0.60998  -0.60795  -0.59335  -0.59290
 Alpha  occ. eigenvalues --   -0.57594  -0.57510  -0.55439  -0.55054  -0.52826
 Alpha  occ. eigenvalues --   -0.52611  -0.52365  -0.52185  -0.50099  -0.49656
 Alpha  occ. eigenvalues --   -0.47873  -0.47846  -0.46703  -0.46433  -0.45782
 Alpha  occ. eigenvalues --   -0.45726  -0.45688  -0.45597  -0.43753  -0.43707
 Alpha virt. eigenvalues --    0.22513   0.22960   0.23641   0.24712   0.26240
 Alpha virt. eigenvalues --    0.26661   0.26937   0.27507   0.27670   0.29227
 Alpha virt. eigenvalues --    0.29583   0.31293   0.31648   0.32018   0.32421

 Mulliken charges:
               1
     1  C   -0.298229
     2  C   -0.299608
     3  C   -0.475678
     4  H    0.149583
     5  H    0.149480
     6  H    0.151853
     7  H    0.151847
     8  H    0.155150
     9  H    0.155149
    10  H    0.160159
    11  C   -0.298527
    12  C   -0.299832
    13  C   -0.477711
    14  H    0.149322
    15  H    0.149569
    16  H    0.151455
    17  H    0.152216
    18  H    0.156847
    19  H    0.153691
    20  H    0.163519
    21  C   -0.298200
    22  C   -0.299622
    23  C   -0.475682
    24  H    0.149528
    25  H    0.149436
    26  H    0.151944
    27  H    0.151887
    28  H    0.155130
    29  H    0.155129
    30  H    0.160183
    31  C   -0.298217
    32  C   -0.300218
    33  C   -0.477688
    34  H    0.149713
    35  H    0.149406
    36  H    0.151359
    37  H    0.151286
    38  H    0.154174
    39  H    0.161386
    40  H    0.158811
 Sum of Mulliken charges =  -0.00000

 Dipole moment (field-independent basis, Debye):
    X=             -0.0048    Y=             -0.0089    Z=              0.0026  Tot=              0.0104
 Quadrupole moment (field-independent basis, Debye-Ang):
   XX=            -87.2032   YY=            -84.0982   ZZ=            -83.7933
   XY=              0.6389   XZ=              0.5255   YZ=             -0.1371

 Normal termination of Gaussian 16 at Wed May  5 21:17:13 2021.
