 Gaussian 16, Revision A.03,
 Gaussian 16:  EM64L-G16RevA.03 25-Dec-2016

 -------------
 #p 6-31g* mp2
 -------------

 ------------------------------------------------------
 Input file generated by CHIRIPA (05-May-2021 14:55:24)
 ------------------------------------------------------
 Symbolic Z-matrix:
 Charge =  0 Multiplicity = 1

                         Standard orientation:
 ---------------------------------------------------------------------
 Center     Atomic      Atomic             Coordinates (Angstroms)
 Number     Number       Type             X           Y           Z
 ---------------------------------------------------------------------
      1          6           0        6.174061    0.570947   -0.065372
      2          6           0        5.826391   -0.676735    0.462771
      3          6           0        4.500013   -1.117347    0.429156
      4          6           0        3.542581   -0.280892   -0.142646
      5          6           0        3.857618    0.967475   -0.677081
      6          6           0        5.190299    1.387631   -0.632612
      7          1           0        7.206872    0.905280   -0.035043
      8          1           0        6.588293   -1.313088    0.903912
      9          1           0        4.203192   -2.078611    0.830761
     10          1           0        3.075979    1.579630   -1.110355
     11          1           0        5.457404    2.357085   -1.043536
     12          7           0        2.135067   -0.736520   -0.183977
     13          8           0        1.310258    0.019135   -0.693204
     14          8           0        1.883319   -1.840669    0.293636
     15          6           0       -4.088333    0.126525    0.285641
     16          6           0       -3.311417    1.352733    0.766058
     17          6           0       -1.826210    1.063017    0.985183
     18          1           0       -3.975587   -0.682192    1.020631
     19          1           0       -3.642811   -0.237548   -0.650497
     20          1           0       -3.759130    1.715212    1.700284
     21          1           0       -3.426183    2.158688    0.029932
     22          1           0       -1.358842    0.722678    0.055485
     23          1           0       -1.693682    0.276683    1.735328
     24          1           0       -1.289906    1.953199    1.328425
     25          6           0       -5.574532    0.400322    0.062093
     26          6           0       -6.351447   -0.825887   -0.418324
     27          6           0       -7.836655   -0.536170   -0.637449
     28          1           0       -6.020054    0.764394    0.998231
     29          1           0       -5.687277    1.209038   -0.672898
     30          1           0       -6.236682   -1.631842    0.317802
     31          1           0       -5.903734   -1.188366   -1.352550
     32          1           0       -7.969183    0.250163   -1.387594
     33          1           0       -8.304023   -0.195831    0.292249
     34          1           0       -8.372958   -1.426352   -0.980691
 ---------------------------------------------------------------------

 SCF Done:  E(RHF) =  -669.535999898     A.U. after   15 cycles
 E2 =    -0.2090785192D+01 EUMP2 =    -0.67162678508991D+03

 The electronic state is 1-A.
 Alpha  occ. eigenvalues --  -20.60899 -20.60879 -15.85925 -11.31261 -11.27826
 Alpha  occ. eigenvalues --  -11.27822 -11.27567 -11.26837 -11.26828 -11.20908
 Alpha  occ. eigenvalues --  -11.20582 -11.20508 -11.20463 -11.20334 -11.19453
 Alpha  occ. eigenvalues --   -1.59949  -1.39506  -1.19430  -1.08832  -1.07508
 Alpha  occ. eigenvalues --   -1.04829  -1.02554  -0.95674  -0.94977  -0.86230
 Alpha  occ. eigenvalues --   -0.85985  -0.82507  -0.78640  -0.77556  -0.77287
 Alpha  occ. eigenvalues --   -0.72151  -0.71261  -0.70540  -0.65087  -0.64833
 Alpha  occ. eigenvalues --   -0.64147  -0.62177  -0.59952  -0.58411  -0.56592
 Alpha  occ. eigenvalues --   -0.55334  -0.54254  -0.53160  -0.52922  -0.51690
 Alpha  occ. eigenvalues --   -0.51392  -0.49094  -0.48898  -0.48714  -0.46915
 Alpha  occ. eigenvalues --   -0.45686  -0.44959  -0.44808  -0.44671  -0.42824
 Alpha  occ. eigenvalues --   -0.37410  -0.36431
 Alpha virt. eigenvalues --    0.04969   0.11224   0.16458   0.21354   0.23738
 Alpha virt. eigenvalues --    0.25325   0.27271   0.27563   0.28198   0.28407
 Alpha virt. eigenvalues --    0.29107   0.30922   0.32344   0.32514   0.32674

 Mulliken charges:
               1
     1  C   -0.170659
     2  C   -0.218591
     3  C   -0.170647
     4  C    0.158030
     5  C   -0.170756
     6  C   -0.218560
     7  H    0.225849
     8  H    0.223688
     9  H    0.275805
    10  H    0.275770
    11  H    0.223692
    12  N    0.490211
    13  O   -0.460830
    14  O   -0.459286
    15  C   -0.297765
    16  C   -0.299773
    17  C   -0.480971
    18  H    0.149729
    19  H    0.152982
    20  H    0.145951
    21  H    0.147518
    22  H    0.181061
    23  H    0.153407
    24  H    0.150692
    25  C   -0.297534
    26  C   -0.299110
    27  C   -0.475190
    28  H    0.147170
    29  H    0.147642
    30  H    0.151681
    31  H    0.152305
    32  H    0.154011
    33  H    0.153901
    34  H    0.158577
 Sum of Mulliken charges =  -0.00000

 Dipole moment (field-independent basis, Debye):
    X=              5.2839    Y=              1.5057    Z=              0.0593  Tot=              5.4946
 Quadrupole moment (field-independent basis, Debye-Ang):
   XX=            -62.2702   YY=            -92.4323   ZZ=            -93.7846
   XY=              3.5280   XZ=              0.3238   YZ=             -3.0030

 Normal termination of Gaussian 16 at Wed May  5 22:22:54 2021.
