 Gaussian 16, Revision A.03,
 Gaussian 16:  EM64L-G16RevA.03 25-Dec-2016

 -------------
 #p 6-31g* mp2
 -------------

 ------------------------------------------------------
 Input file generated by CHIRIPA (05-May-2021 14:57:25)
 ------------------------------------------------------
 Symbolic Z-matrix:
 Charge =  0 Multiplicity = 1

                         Standard orientation:
 ---------------------------------------------------------------------
 Center     Atomic      Atomic             Coordinates (Angstroms)
 Number     Number       Type             X           Y           Z
 ---------------------------------------------------------------------
      1          6           0        1.808526   -2.500998    0.422807
      2          6           0        2.040491   -1.700543    1.546189
      3          6           0        2.425516   -0.364654    1.398868
      4          6           0        2.569817    0.140476    0.107624
      5          6           0        2.345992   -0.631694   -1.031211
      6          6           0        1.961748   -1.964963   -0.860046
      7          1           0        1.509733   -3.537731    0.546511
      8          1           0        1.922270   -2.114158    2.543682
      9          1           0        2.611524    0.277392    2.251274
     10          1           0        2.471984   -0.191184   -2.012789
     11          1           0        1.782275   -2.584263   -1.734290
     12          7           0        2.977013    1.553335   -0.060960
     13          8           0        3.097268    1.974549   -1.209330
     14          8           0        3.168208    2.212768    0.958467
     15          6           0       -2.941761    2.551829    0.217102
     16          6           0       -3.566455    1.604913    1.035410
     17          6           0       -3.330578    0.239548    0.849168
     18          6           0       -2.460260   -0.145391   -0.169488
     19          6           0       -1.822775    0.773929   -1.001205
     20          6           0       -2.073446    2.134051   -0.796807
     21          1           0       -3.130742    3.610441    0.368831
     22          1           0       -4.241281    1.926470    1.823610
     23          1           0       -3.800883   -0.514803    1.468189
     24          1           0       -1.155137    0.422878   -1.778664
     25          1           0       -1.586906    2.867209   -1.433835
     26          7           0       -2.202717   -1.588066   -0.376266
     27          8           0       -1.431693   -1.901441   -1.280673
     28          8           0       -2.776757   -2.378146    0.369986
 ---------------------------------------------------------------------

 SCF Done:  E(RHF) =  -868.340146696     A.U. after   16 cycles
 E2 =    -0.2600526981D+01 EUMP2 =    -0.87094067367629D+03

 The electronic state is 1-A.
 Alpha  occ. eigenvalues --  -20.61212 -20.61188 -20.60673 -20.60658 -15.86221
 Alpha  occ. eigenvalues --  -15.85708 -11.31320 -11.30786 -11.27868 -11.27830
 Alpha  occ. eigenvalues --  -11.27514 -11.27296 -11.27245 -11.26822 -11.26817
 Alpha  occ. eigenvalues --  -11.26743 -11.26247 -11.26114  -1.60266  -1.59753
 Alpha  occ. eigenvalues --   -1.39830  -1.39314  -1.19458  -1.18889  -1.08899
 Alpha  occ. eigenvalues --   -1.08308  -1.04818  -1.04237  -0.95787  -0.95206
 Alpha  occ. eigenvalues --   -0.86226  -0.85630  -0.82633  -0.82051  -0.77716
 Alpha  occ. eigenvalues --   -0.77162  -0.72482  -0.71930  -0.71572  -0.71077
 Alpha  occ. eigenvalues --   -0.70559  -0.69931  -0.65114  -0.64809  -0.64517
 Alpha  occ. eigenvalues --   -0.64200  -0.62172  -0.61597  -0.55317  -0.54660
 Alpha  occ. eigenvalues --   -0.53164  -0.52910  -0.52580  -0.52304  -0.49242
 Alpha  occ. eigenvalues --   -0.49200  -0.48705  -0.48656  -0.45302  -0.44787
 Alpha  occ. eigenvalues --   -0.37430  -0.36790  -0.36378  -0.35784
 Alpha virt. eigenvalues --    0.04787   0.05329   0.11221   0.11855   0.16354
 Alpha virt. eigenvalues --    0.16976   0.21368   0.22091   0.27155   0.27776
 Alpha virt. eigenvalues --    0.28424   0.28998   0.31026   0.31682   0.32255

 Mulliken charges:
               1
     1  C   -0.168914
     2  C   -0.220766
     3  C   -0.173889
     4  C    0.156966
     5  C   -0.180644
     6  C   -0.200973
     7  H    0.231943
     8  H    0.222663
     9  H    0.272147
    10  H    0.270947
    11  H    0.230288
    12  N    0.487808
    13  O   -0.465336
    14  O   -0.462399
    15  C   -0.169523
    16  C   -0.218621
    17  C   -0.171932
    18  C    0.158518
    19  C   -0.170359
    20  C   -0.218222
    21  H    0.228288
    22  H    0.223708
    23  H    0.273894
    24  H    0.273507
    25  H    0.229901
    26  N    0.489392
    27  O   -0.465569
    28  O   -0.462823
 Sum of Mulliken charges =  -0.00000

 Dipole moment (field-independent basis, Debye):
    X=             -2.4895    Y=             -0.0473    Z=              1.2657  Tot=              2.7932
 Quadrupole moment (field-independent basis, Debye-Ang):
   XX=           -107.7615   YY=           -107.7571   ZZ=            -97.5995
   XY=            -25.7571   XZ=             -2.9404   YZ=             -1.6530

 Normal termination of Gaussian 16 at Fri May  7 08:08:14 2021.
