 Gaussian 16, Revision A.03,
 Gaussian 16:  EM64L-G16RevA.03 25-Dec-2016

 -------------
 #p 6-31g* mp2
 -------------

 ------------------------------------------------------
 Input file generated by CHIRIPA (05-May-2021 14:55:21)
 ------------------------------------------------------
 Symbolic Z-matrix:
 Charge =  0 Multiplicity = 1

                         Standard orientation:
 ---------------------------------------------------------------------
 Center     Atomic      Atomic             Coordinates (Angstroms)
 Number     Number       Type             X           Y           Z
 ---------------------------------------------------------------------
      1          6           0        2.507988    2.120890    1.099162
      2          6           0        3.754064    1.551786    1.381888
      3          6           0        4.118229    0.324704    0.819569
      4          6           0        3.207796   -0.308712   -0.024934
      5          6           0        1.958967    0.232721   -0.325874
      6          6           0        1.615988    1.460705    0.247684
      7          1           0        2.233325    3.074467    1.540350
      8          1           0        4.448811    2.062243    2.042801
      9          1           0        5.076430   -0.138448    1.021459
     10          1           0        1.287568   -0.299851   -0.988452
     11          1           0        0.647590    1.900313    0.026335
     12          7           0        3.582107   -1.608246   -0.626186
     13          8           0        2.762150   -2.146257   -1.367031
     14          8           0        4.688360   -2.064202   -0.345217
     15          6           0       -3.423465    0.466937   -0.410342
     16          6           0       -3.649574    1.955066   -0.679286
     17          6           0       -2.433200    2.633228   -1.310416
     18          1           0       -2.552573    0.348137    0.248733
     19          1           0       -3.171533   -0.035078   -1.354750
     20          1           0       -3.902360    2.453876    0.265121
     21          1           0       -4.520144    2.070347   -1.337642
     22          1           0       -2.182201    2.162051   -2.266236
     23          1           0       -1.560906    2.547758   -0.654367
     24          1           0       -2.616656    3.696457   -1.494125
     25          6           0       -4.630565   -0.224933    0.220494
     26          6           0       -4.404456   -1.713062    0.489439
     27          6           0       -5.620830   -2.391224    1.120568
     28          1           0       -4.882497    0.277082    1.164902
     29          1           0       -5.501456   -0.106133   -0.438580
     30          1           0       -3.533885   -1.828343    1.147795
     31          1           0       -4.151669   -2.211873   -0.454967
     32          1           0       -6.493123   -2.305754    0.464519
     33          1           0       -5.871829   -1.920047    2.076388
     34          1           0       -5.437374   -3.454453    1.304278
 ---------------------------------------------------------------------

 SCF Done:  E(RHF) =  -669.535559608     A.U. after   15 cycles
 E2 =    -0.2090944562D+01 EUMP2 =    -0.67162650417043D+03

 The electronic state is 1-A.
 Alpha  occ. eigenvalues --  -20.60729 -20.60724 -15.85782 -11.31142 -11.27715
 Alpha  occ. eigenvalues --  -11.27700 -11.27456 -11.26732 -11.26699 -11.22284
 Alpha  occ. eigenvalues --  -11.22042 -11.21959 -11.21843 -11.21751 -11.21242
 Alpha  occ. eigenvalues --   -1.59804  -1.39358  -1.19315  -1.08923  -1.08713
 Alpha  occ. eigenvalues --   -1.04717  -1.04032  -0.96504  -0.95547  -0.87525
 Alpha  occ. eigenvalues --   -0.86118  -0.82380  -0.80107  -0.78702  -0.77426
 Alpha  occ. eigenvalues --   -0.72001  -0.71127  -0.70425  -0.65565  -0.64967
 Alpha  occ. eigenvalues --   -0.64736  -0.62103  -0.61405  -0.59879  -0.58093
 Alpha  occ. eigenvalues --   -0.55824  -0.55217  -0.53193  -0.53055  -0.53043
 Alpha  occ. eigenvalues --   -0.52694  -0.50446  -0.48764  -0.48755  -0.48407
 Alpha  occ. eigenvalues --   -0.47129  -0.46252  -0.46146  -0.44764  -0.44271
 Alpha  occ. eigenvalues --   -0.37300  -0.36320
 Alpha virt. eigenvalues --    0.05106   0.11330   0.16590   0.19505   0.22676
 Alpha virt. eigenvalues --    0.23745   0.25205   0.26525   0.27216   0.28341
 Alpha virt. eigenvalues --    0.28934   0.29874   0.31201   0.31598   0.32194

 Mulliken charges:
               1
     1  C   -0.173366
     2  C   -0.218530
     3  C   -0.171214
     4  C    0.158782
     5  C   -0.174336
     6  C   -0.226897
     7  H    0.226001
     8  H    0.223191
     9  H    0.275418
    10  H    0.276523
    11  H    0.236319
    12  N    0.488117
    13  O   -0.460393
    14  O   -0.460732
    15  C   -0.299178
    16  C   -0.299428
    17  C   -0.481079
    18  H    0.145545
    19  H    0.151814
    20  H    0.152741
    21  H    0.155953
    22  H    0.159232
    23  H    0.145789
    24  H    0.164321
    25  C   -0.298599
    26  C   -0.300455
    27  C   -0.476129
    28  H    0.149628
    29  H    0.151152
    30  H    0.152701
    31  H    0.154207
    32  H    0.155571
    33  H    0.154879
    34  H    0.162451
 Sum of Mulliken charges =  -0.00000

 Dipole moment (field-independent basis, Debye):
    X=             -1.5093    Y=              4.5477    Z=              2.0823  Tot=              5.2245
 Quadrupole moment (field-independent basis, Debye-Ang):
   XX=            -99.2804   YY=            -98.5226   ZZ=            -93.6616
   XY=             15.0082   XZ=             10.1834   YZ=             -0.1904

 Normal termination of Gaussian 16 at Thu May  6 06:11:40 2021.
