 Gaussian 16, Revision A.03,
 Gaussian 16:  EM64L-G16RevA.03 25-Dec-2016

 -------------
 #p 6-31g* mp2
 -------------

 ------------------------------------------------------
 Input file generated by CHIRIPA (05-May-2021 14:57:23)
 ------------------------------------------------------
 Symbolic Z-matrix:
 Charge =  0 Multiplicity = 1

                         Standard orientation:
 ---------------------------------------------------------------------
 Center     Atomic      Atomic             Coordinates (Angstroms)
 Number     Number       Type             X           Y           Z
 ---------------------------------------------------------------------
      1          6           0       -5.879318    0.614448   -0.271693
      2          6           0       -5.509982    0.086495    0.969829
      3          6           0       -4.224106   -0.424399    1.169973
      4          6           0       -3.328829   -0.391378    0.101948
      5          6           0       -3.666857    0.128016   -1.146754
      6          6           0       -4.958201    0.633490   -1.324167
      7          1           0       -6.880341    1.009218   -0.418340
      8          1           0       -6.223257    0.070407    1.788990
      9          1           0       -3.911750   -0.838962    2.120757
     10          1           0       -2.933945    0.130361   -1.944409
     11          1           0       -5.242262    1.042893   -2.289435
     12          7           0       -1.964635   -0.929370    0.301799
     13          8           0       -1.194371   -0.888719   -0.655112
     14          8           0       -1.691475   -1.381512    1.411569
     15          6           0        4.882891   -1.834570   -0.245398
     16          6           0        5.406033   -0.740368    0.451427
     17          6           0        4.678367    0.448834    0.555581
     18          6           0        3.425160    0.509335   -0.051957
     19          6           0        2.876848   -0.563574   -0.753036
     20          6           0        3.622190   -1.742842   -0.844349
     21          1           0        5.455024   -2.754513   -0.321321
     22          1           0        6.384844   -0.808749    0.917578
     23          1           0        5.059460    1.311168    1.089027
     24          1           0        1.898332   -0.465304   -1.207204
     25          1           0        3.213405   -2.591017   -1.386143
     26          7           0        2.645456    1.763033    0.051510
     27          8           0        1.543733    1.790918   -0.492609
     28          8           0        3.150811    2.694056    0.674766
 ---------------------------------------------------------------------

 SCF Done:  E(RHF) =  -868.339294487     A.U. after   16 cycles
 E2 =    -0.2598793033D+01 EUMP2 =    -0.87093808752017D+03

 The electronic state is 1-A.
 Alpha  occ. eigenvalues --  -20.60689 -20.60660 -20.59799 -20.59765 -15.85713
 Alpha  occ. eigenvalues --  -15.84835 -11.30961 -11.30090 -11.27533 -11.27508
 Alpha  occ. eigenvalues --  -11.27270 -11.26766 -11.26535 -11.26526 -11.26514
 Alpha  occ. eigenvalues --  -11.26501 -11.25774 -11.25637  -1.59725  -1.58864
 Alpha  occ. eigenvalues --   -1.39285  -1.38415  -1.19127  -1.18289  -1.08548
 Alpha  occ. eigenvalues --   -1.07726  -1.04520  -1.03672  -0.95404  -0.94562
 Alpha  occ. eigenvalues --   -0.85925  -0.85085  -0.82246  -0.81393  -0.77297
 Alpha  occ. eigenvalues --   -0.76425  -0.71962  -0.71085  -0.70993  -0.70251
 Alpha  occ. eigenvalues --   -0.70179  -0.69416  -0.64793  -0.64534  -0.63952
 Alpha  occ. eigenvalues --   -0.63694  -0.61871  -0.60996  -0.55043  -0.54238
 Alpha  occ. eigenvalues --   -0.52847  -0.52620  -0.52025  -0.51768  -0.48711
 Alpha  occ. eigenvalues --   -0.48687  -0.47833  -0.47799  -0.44708  -0.43841
 Alpha  occ. eigenvalues --   -0.37104  -0.36313  -0.36113  -0.35264
 Alpha virt. eigenvalues --    0.05242   0.06093   0.11544   0.12381   0.16740
 Alpha virt. eigenvalues --    0.17570   0.21634   0.22460   0.27561   0.28292
 Alpha virt. eigenvalues --    0.28556   0.29400   0.31193   0.31940   0.32743

 Mulliken charges:
               1
     1  C   -0.170356
     2  C   -0.218636
     3  C   -0.170232
     4  C    0.159349
     5  C   -0.168236
     6  C   -0.218526
     7  H    0.225168
     8  H    0.222843
     9  H    0.275006
    10  H    0.276341
    11  H    0.223447
    12  N    0.492396
    13  O   -0.465167
    14  O   -0.461117
    15  C   -0.170728
    16  C   -0.219797
    17  C   -0.171445
    18  C    0.155415
    19  C   -0.168728
    20  C   -0.220108
    21  H    0.221916
    22  H    0.219193
    23  H    0.272019
    24  H    0.292464
    25  H    0.223603
    26  N    0.487813
    27  O   -0.457376
    28  O   -0.466518
 Sum of Mulliken charges =  -0.00000

 Dipole moment (field-independent basis, Debye):
    X=             -2.3924    Y=             -2.5602    Z=             -1.1510  Tot=              3.6882
 Quadrupole moment (field-independent basis, Debye-Ang):
   XX=            -53.3910   YY=           -111.4607   ZZ=            -99.6816
   XY=            -16.7667   XZ=              1.3634   YZ=              0.4935

 Normal termination of Gaussian 16 at Wed May  5 16:18:46 2021.
