 Gaussian 16, Revision A.03,
 Gaussian 16:  EM64L-G16RevA.03 25-Dec-2016

 -------------
 #p 6-31g* mp2
 -------------

 ------------------------------------------------------
 Input file generated by CHIRIPA (05-May-2021 14:53:15)
 ------------------------------------------------------
 Symbolic Z-matrix:
 Charge =  0 Multiplicity = 1

                         Standard orientation:
 ---------------------------------------------------------------------
 Center     Atomic      Atomic             Coordinates (Angstroms)
 Number     Number       Type             X           Y           Z
 ---------------------------------------------------------------------
      1          6           0        3.554682    0.071329    0.089893
      2          6           0        3.405035   -1.056616   -0.931542
      3          6           0        4.450568   -2.157955   -0.753469
      4          1           0        4.561593    0.502567    0.005567
      5          1           0        3.478051   -0.347993    1.102658
      6          1           0        3.480543   -0.635087   -1.942100
      7          1           0        2.398298   -1.485092   -0.844904
      8          1           0        4.372753   -2.605596    0.242604
      9          1           0        5.461147   -1.750762   -0.860825
     10          1           0        4.325156   -2.954089   -1.493943
     11          6           0        2.516598    1.179857   -0.075263
     12          6           0        2.666245    2.307802    0.946172
     13          6           0        1.620713    3.409140    0.768100
     14          1           0        2.593229    1.599178   -1.088027
     15          1           0        1.509688    0.748619    0.009064
     16          1           0        3.672982    2.736278    0.859535
     17          1           0        2.590737    1.886273    1.956730
     18          1           0        0.610134    3.001948    0.875456
     19          1           0        1.698528    3.856782   -0.227974
     20          1           0        1.746124    4.205275    1.508574
     21          6           0       -1.008244   -2.203494    1.246018
     22          6           0       -0.672309   -1.866612   -0.069345
     23          6           0       -1.420644   -0.917870   -0.772505
     24          6           0       -2.503398   -0.322968   -0.126728
     25          6           0       -2.863161   -0.637408    1.182848
     26          6           0       -2.100673   -1.588901    1.866821
     27          1           0       -0.421423   -2.941569    1.784796
     28          1           0        0.175561   -2.342301   -0.553990
     29          1           0       -1.182688   -0.638355   -1.791654
     30          1           0       -3.713875   -0.146227    1.639406
     31          1           0       -2.363882   -1.848567    2.888261
     32          7           0       -3.303118    0.682878   -0.860975
     33          8           0       -4.252368    1.192643   -0.269621
     34          8           0       -2.965544    0.942451   -2.013930
 ---------------------------------------------------------------------

 SCF Done:  E(RHF) =  -669.535542956     A.U. after   15 cycles
 E2 =    -0.2092328747D+01 EUMP2 =    -0.67162787170341D+03

 The electronic state is 1-A.
 Alpha  occ. eigenvalues --  -20.60806 -20.60801 -15.85862 -11.31261 -11.27844
 Alpha  occ. eigenvalues --  -11.27836 -11.27585 -11.26854 -11.26844 -11.22309
 Alpha  occ. eigenvalues --  -11.21847 -11.21760 -11.21728 -11.21604 -11.21066
 Alpha  occ. eigenvalues --   -1.59881  -1.39433  -1.19444  -1.08844  -1.08807
 Alpha  occ. eigenvalues --   -1.04851  -1.03910  -0.96329  -0.95656  -0.87347
 Alpha  occ. eigenvalues --   -0.86244  -0.82490  -0.80010  -0.78610  -0.77523
 Alpha  occ. eigenvalues --   -0.72078  -0.71206  -0.70540  -0.65521  -0.65092
 Alpha  occ. eigenvalues --   -0.64819  -0.62217  -0.61288  -0.59729  -0.57940
 Alpha  occ. eigenvalues --   -0.55614  -0.55344  -0.53195  -0.53055  -0.52948
 Alpha  occ. eigenvalues --   -0.52721  -0.50269  -0.48847  -0.48831  -0.48295
 Alpha  occ. eigenvalues --   -0.47049  -0.46141  -0.46045  -0.44831  -0.44148
 Alpha  occ. eigenvalues --   -0.37419  -0.36417
 Alpha virt. eigenvalues --    0.04988   0.11129   0.16368   0.20195   0.22831
 Alpha virt. eigenvalues --    0.23873   0.25420   0.26626   0.27617   0.28229
 Alpha virt. eigenvalues --    0.28738   0.29988   0.31296   0.31466   0.32122

 Mulliken charges:
               1
     1  C   -0.297133
     2  C   -0.303204
     3  C   -0.475758
     4  H    0.152067
     5  H    0.147526
     6  H    0.155605
     7  H    0.142219
     8  H    0.153224
     9  H    0.159255
    10  H    0.159705
    11  C   -0.302977
    12  C   -0.299655
    13  C   -0.475916
    14  H    0.151191
    15  H    0.151947
    16  H    0.152005
    17  H    0.150283
    18  H    0.156960
    19  H    0.157664
    20  H    0.160637
    21  C   -0.172253
    22  C   -0.220435
    23  C   -0.171856
    24  C    0.158014
    25  C   -0.170712
    26  C   -0.218597
    27  H    0.226131
    28  H    0.229270
    29  H    0.276933
    30  H    0.276029
    31  H    0.223810
    32  N    0.488143
    33  O   -0.460292
    34  O   -0.459830
 Sum of Mulliken charges =  -0.00000

 Dipole moment (field-independent basis, Debye):
    X=              2.8079    Y=             -3.4718    Z=              2.5826  Tot=              5.1583
 Quadrupole moment (field-independent basis, Debye-Ang):
   XX=           -107.4785   YY=            -93.5321   ZZ=            -92.0250
   XY=              8.6755   XZ=            -10.1324   YZ=             -0.3114

 Normal termination of Gaussian 16 at Wed May  5 18:40:12 2021.
