 Gaussian 16, Revision A.03,
 Gaussian 16:  EM64L-G16RevA.03 25-Dec-2016

 -------------
 #p 6-31g* mp2
 -------------

 ------------------------------------------------------
 Input file generated by CHIRIPA (05-May-2021 14:57:24)
 ------------------------------------------------------
 Symbolic Z-matrix:
 Charge =  0 Multiplicity = 1

                         Standard orientation:
 ---------------------------------------------------------------------
 Center     Atomic      Atomic             Coordinates (Angstroms)
 Number     Number       Type             X           Y           Z
 ---------------------------------------------------------------------
      1          6           0       -5.092894    1.558578   -1.104453
      2          6           0       -4.130860    2.117893   -0.256999
      3          6           0       -3.234275    1.299906    0.436961
      4          6           0       -3.328437   -0.079525    0.259218
      5          6           0       -4.275813   -0.666841   -0.577936
      6          6           0       -5.162178    0.170443   -1.261939
      7          1           0       -5.785413    2.201506   -1.639670
      8          1           0       -4.074728    3.195604   -0.132766
      9          1           0       -2.479686    1.706388    1.099371
     10          1           0       -4.307275   -1.744667   -0.681472
     11          1           0       -5.908278   -0.266708   -1.919418
     12          7           0       -2.384673   -0.955706    0.988612
     13          8           0       -2.488309   -2.168023    0.814877
     14          8           0       -1.559185   -0.413549    1.720236
     15          6           0        5.137421    1.827635    0.085595
     16          6           0        5.412217    0.755884   -0.770183
     17          6           0        4.503339   -0.298148   -0.902494
     18          6           0        3.324133   -0.247842   -0.160719
     19          6           0        3.021753    0.806074    0.700163
     20          6           0        3.945167    1.849272    0.816747
     21          1           0        5.849105    2.642225    0.182269
     22          1           0        6.337335    0.736422   -1.339237
     23          1           0        4.690848   -1.140123   -1.557731
     24          1           0        2.091104    0.797457    1.254453
     25          1           0        3.729112    2.680323    1.482120
     26          7           0        2.354249   -1.357963   -0.292466
     27          8           0        1.322496   -1.289988    0.371989
     28          8           0        2.644174   -2.275031   -1.057690
 ---------------------------------------------------------------------

 SCF Done:  E(RHF) =  -868.335744345     A.U. after   16 cycles
 E2 =    -0.2600466238D+01 EUMP2 =    -0.87093621058316D+03

 The electronic state is 1-A.
 Alpha  occ. eigenvalues --  -20.59865 -20.59808 -20.59802 -20.59783 -15.84878
 Alpha  occ. eigenvalues --  -15.84877 -11.30598 -11.30550 -11.27245 -11.27187
 Alpha  occ. eigenvalues --  -11.27179 -11.27110 -11.27021 -11.26991 -11.26333
 Alpha  occ. eigenvalues --  -11.26285 -11.26266 -11.26241  -1.58917  -1.58842
 Alpha  occ. eigenvalues --   -1.38457  -1.38399  -1.18801  -1.18763  -1.08129
 Alpha  occ. eigenvalues --   -1.08107  -1.04265  -1.04207  -0.94923  -0.94865
 Alpha  occ. eigenvalues --   -0.85646  -0.85590  -0.81768  -0.81683  -0.76742
 Alpha  occ. eigenvalues --   -0.76686  -0.71215  -0.70997  -0.70282  -0.70109
 Alpha  occ. eigenvalues --   -0.69918  -0.69857  -0.64458  -0.64399  -0.64275
 Alpha  occ. eigenvalues --   -0.64216  -0.61615  -0.61539  -0.54756  -0.54713
 Alpha  occ. eigenvalues --   -0.52565  -0.52531  -0.52368  -0.52300  -0.47981
 Alpha  occ. eigenvalues --   -0.47833  -0.47808  -0.47757  -0.43856  -0.43655
 Alpha  occ. eigenvalues --   -0.36797  -0.36775  -0.35884  -0.35829
 Alpha virt. eigenvalues --    0.05798   0.05855   0.11767   0.11820   0.17236
 Alpha virt. eigenvalues --    0.17267   0.21786   0.21959   0.27667   0.27821
 Alpha virt. eigenvalues --    0.28619   0.28979   0.31220   0.31541   0.32828

 Mulliken charges:
               1
     1  C   -0.172060
     2  C   -0.218437
     3  C   -0.171254
     4  C    0.161292
     5  C   -0.170627
     6  C   -0.218403
     7  H    0.223116
     8  H    0.219904
     9  H    0.271137
    10  H    0.276809
    11  H    0.222069
    12  N    0.491209
    13  O   -0.455020
    14  O   -0.458882
    15  C   -0.171833
    16  C   -0.218907
    17  C   -0.171711
    18  C    0.157646
    19  C   -0.173677
    20  C   -0.219251
    21  H    0.222857
    22  H    0.221070
    23  H    0.274477
    24  H    0.283528
    25  H    0.221036
    26  N    0.486375
    27  O   -0.446753
    28  O   -0.465707
 Sum of Mulliken charges =  -0.00000

 Dipole moment (field-independent basis, Debye):
    X=             -0.0151    Y=              6.7616    Z=             -1.9742  Tot=              7.0440
 Quadrupole moment (field-independent basis, Debye-Ang):
   XX=            -60.1351   YY=           -104.0445   ZZ=           -104.6005
   XY=              2.9469   XZ=              7.7455   YZ=              3.7711

 Normal termination of Gaussian 16 at Thu May  6 16:19:19 2021.
