 Gaussian 16, Revision A.03,
 Gaussian 16:  EM64L-G16RevA.03 25-Dec-2016

 -------------
 #p 6-31g* mp2
 -------------

 ------------------------------------------------------
 Input file generated by CHIRIPA (05-May-2021 14:53:15)
 ------------------------------------------------------
 Symbolic Z-matrix:
 Charge =  0 Multiplicity = 1

                         Standard orientation:
 ---------------------------------------------------------------------
 Center     Atomic      Atomic             Coordinates (Angstroms)
 Number     Number       Type             X           Y           Z
 ---------------------------------------------------------------------
      1          6           0        3.782657   -0.294723    0.124846
      2          6           0        4.955384   -0.935669   -0.618044
      3          6           0        4.996923   -2.455665   -0.457792
      4          1           0        3.848397   -0.550770    1.191177
      5          1           0        2.842927   -0.729006   -0.243529
      6          1           0        5.892547   -0.499310   -0.249355
      7          1           0        4.886951   -0.677908   -1.682700
      8          1           0        4.077920   -2.908933   -0.843255
      9          1           0        5.089229   -2.729320    0.598235
     10          1           0        5.842989   -2.893215   -0.996849
     11          6           0        3.727629    1.224484   -0.025844
     12          6           0        2.554903    1.865430    0.717046
     13          6           0        2.513364    3.385426    0.556794
     14          1           0        4.667360    1.658767    0.342531
     15          1           0        3.661890    1.480531   -1.092176
     16          1           0        2.623336    1.607669    1.781701
     17          1           0        1.617739    1.429071    0.348356
     18          1           0        2.421057    3.659081   -0.499234
     19          1           0        3.432367    3.838694    0.942256
     20          1           0        1.667298    3.822976    1.095851
     21          6           0       -0.737714   -1.545689    0.342419
     22          6           0       -1.911779   -2.048694    0.912573
     23          6           0       -3.134143   -1.401724    0.708114
     24          6           0       -3.146006   -0.248868   -0.075515
     25          6           0       -1.993325    0.276901   -0.657049
     26          6           0       -0.782155   -0.386540   -0.439194
     27          1           0        0.207500   -2.054669    0.506451
     28          1           0       -1.880263   -2.948717    1.520036
     29          1           0       -4.058127   -1.769416    1.137618
     30          1           0       -2.056332    1.176071   -1.257834
     31          1           0        0.128062    0.006378   -0.883230
     32          7           0       -4.434143    0.444770   -0.299057
     33          8           0       -4.417924    1.458763   -0.993456
     34          8           0       -5.435612   -0.038686    0.224362
 ---------------------------------------------------------------------

 SCF Done:  E(RHF) =  -669.535320454     A.U. after   15 cycles
 E2 =    -0.2091978114D+01 EUMP2 =    -0.67162729856821D+03

 The electronic state is 1-A.
 Alpha  occ. eigenvalues --  -20.60754 -20.60749 -15.85809 -11.31177 -11.27756
 Alpha  occ. eigenvalues --  -11.27752 -11.27484 -11.26758 -11.26743 -11.22484
 Alpha  occ. eigenvalues --  -11.22424 -11.22415 -11.22236 -11.21896 -11.21682
 Alpha  occ. eigenvalues --   -1.59830  -1.39384  -1.19354  -1.09337  -1.08743
 Alpha  occ. eigenvalues --   -1.04762  -1.04341  -0.96789  -0.95578  -0.87799
 Alpha  occ. eigenvalues --   -0.86161  -0.82415  -0.80411  -0.79174  -0.77460
 Alpha  occ. eigenvalues --   -0.72027  -0.71153  -0.70453  -0.66042  -0.65004
 Alpha  occ. eigenvalues --   -0.64736  -0.62160  -0.61693  -0.60148  -0.58399
 Alpha  occ. eigenvalues --   -0.56088  -0.55248  -0.53446  -0.53214  -0.53079
 Alpha  occ. eigenvalues --   -0.52867  -0.50732  -0.48807  -0.48781  -0.48697
 Alpha  occ. eigenvalues --   -0.47452  -0.46677  -0.46617  -0.44789  -0.44620
 Alpha  occ. eigenvalues --   -0.37320  -0.36350
 Alpha virt. eigenvalues --    0.05078   0.11180   0.16514   0.18665   0.22822
 Alpha virt. eigenvalues --    0.23214   0.24903   0.26244   0.27077   0.27566
 Alpha virt. eigenvalues --    0.29679   0.30462   0.31012   0.31391   0.31766

 Mulliken charges:
               1
     1  C   -0.299125
     2  C   -0.300047
     3  C   -0.476096
     4  H    0.151995
     5  H    0.137901
     6  H    0.155799
     7  H    0.153695
     8  H    0.151632
     9  H    0.155875
    10  H    0.164155
    11  C   -0.299340
    12  C   -0.304224
    13  C   -0.476324
    14  H    0.154022
    15  H    0.149876
    16  H    0.154824
    17  H    0.146879
    18  H    0.155250
    19  H    0.157796
    20  H    0.164280
    21  C   -0.172632
    22  C   -0.218757
    23  C   -0.170548
    24  C    0.158469
    25  C   -0.172058
    26  C   -0.219352
    27  H    0.227551
    28  H    0.223547
    29  H    0.275647
    30  H    0.275667
    31  H    0.226476
    32  N    0.488073
    33  O   -0.460443
    34  O   -0.460466
 Sum of Mulliken charges =  -0.00000

 Dipole moment (field-independent basis, Debye):
    X=              4.7218    Y=             -2.3819    Z=              0.8402  Tot=              5.3549
 Quadrupole moment (field-independent basis, Debye-Ang):
   XX=           -121.4785   YY=            -92.4356   ZZ=            -93.1648
   XY=              8.8418   XZ=             -3.7941   YZ=             -2.0868

 Normal termination of Gaussian 16 at Thu May  6 07:28:22 2021.
