 Gaussian 16, Revision A.03,
 Gaussian 16:  EM64L-G16RevA.03 25-Dec-2016

 -------------
 #p 6-31g* mp2
 -------------

 ------------------------------------------------------
 Input file generated by CHIRIPA (05-May-2021 14:53:15)
 ------------------------------------------------------
 Symbolic Z-matrix:
 Charge =  0 Multiplicity = 1

                         Standard orientation:
 ---------------------------------------------------------------------
 Center     Atomic      Atomic             Coordinates (Angstroms)
 Number     Number       Type             X           Y           Z
 ---------------------------------------------------------------------
      1          6           0       -4.371291    0.555138   -0.289069
      2          6           0       -3.653160    1.365526    0.790534
      3          6           0       -2.469245    2.162548    0.241995
      4          1           0       -3.654280   -0.129555   -0.762392
      5          1           0       -4.720374    1.236181   -1.077559
      6          1           0       -3.306746    0.683322    1.577433
      7          1           0       -4.372008    2.048234    1.261473
      8          1           0       -2.802012    2.865675   -0.528381
      9          1           0       -1.730697    1.493008   -0.210626
     10          1           0       -1.970383    2.734447    1.030619
     11          6           0       -5.557153   -0.247018    0.243855
     12          6           0       -6.275284   -1.057406   -0.835748
     13          6           0       -7.459200   -1.854428   -0.287209
     14          1           0       -5.208071   -0.928061    1.032345
     15          1           0       -6.274165    0.437675    0.717178
     16          1           0       -5.556436   -1.740114   -1.306687
     17          1           0       -6.621698   -0.375202   -1.622647
     18          1           0       -8.197747   -1.184888    0.165412
     19          1           0       -7.126432   -2.557555    0.483167
     20          1           0       -7.958061   -2.426327   -1.075833
     21          6           0        1.525543    0.716634    0.378092
     22          6           0        2.413527    1.446022   -0.419404
     23          6           0        3.719484    0.991785   -0.626025
     24          6           0        4.105754   -0.201277   -0.017183
     25          6           0        3.244348   -0.950477    0.782797
     26          6           0        1.943052   -0.477183    0.975594
     27          1           0        0.512856    1.076899    0.533232
     28          1           0        2.092031    2.373493   -0.884684
     29          1           0        4.427500    1.536606   -1.238643
     30          1           0        3.593779   -1.871486    1.233418
     31          1           0        1.255589   -1.045715    1.595441
     32          7           0        5.485845   -0.692245   -0.228607
     33          8           0        5.801710   -1.746323    0.318921
     34          8           0        6.225563   -0.013691   -0.937845
 ---------------------------------------------------------------------

 SCF Done:  E(RHF) =  -669.535602707     A.U. after   15 cycles
 E2 =    -0.2090755979D+01 EUMP2 =    -0.67162635868567D+03

 The electronic state is 1-A.
 Alpha  occ. eigenvalues --  -20.60722 -20.60717 -15.85776 -11.31130 -11.27702
 Alpha  occ. eigenvalues --  -11.27696 -11.27381 -11.26708 -11.26693 -11.22607
 Alpha  occ. eigenvalues --  -11.22374 -11.22187 -11.22132 -11.22014 -11.21512
 Alpha  occ. eigenvalues --   -1.59798  -1.39352  -1.19299  -1.09196  -1.08691
 Alpha  occ. eigenvalues --   -1.04704  -1.04333  -0.96803  -0.95529  -0.87825
 Alpha  occ. eigenvalues --   -0.86098  -0.82367  -0.80406  -0.78961  -0.77417
 Alpha  occ. eigenvalues --   -0.71993  -0.71121  -0.70417  -0.65828  -0.64949
 Alpha  occ. eigenvalues --   -0.64709  -0.62053  -0.61741  -0.60190  -0.58381
 Alpha  occ. eigenvalues --   -0.56218  -0.55112  -0.53488  -0.53211  -0.53028
 Alpha  occ. eigenvalues --   -0.52793  -0.50725  -0.48756  -0.48749  -0.48704
 Alpha  occ. eigenvalues --   -0.47422  -0.46513  -0.46411  -0.44760  -0.44566
 Alpha  occ. eigenvalues --   -0.37271  -0.36313
 Alpha virt. eigenvalues --    0.05107   0.11342   0.16560   0.20154   0.22426
 Alpha virt. eigenvalues --    0.23686   0.25766   0.26299   0.26877   0.27384
 Alpha virt. eigenvalues --    0.29238   0.30607   0.30801   0.31224   0.32029

 Mulliken charges:
               1
     1  C   -0.299203
     2  C   -0.299379
     3  C   -0.483828
     4  H    0.149547
     5  H    0.151652
     6  H    0.150630
     7  H    0.156493
     8  H    0.161690
     9  H    0.149629
    10  H    0.160102
    11  C   -0.298798
    12  C   -0.300221
    13  C   -0.476092
    14  H    0.149513
    15  H    0.151132
    16  H    0.152456
    17  H    0.152946
    18  H    0.155930
    19  H    0.155537
    20  H    0.161975
    21  C   -0.178502
    22  C   -0.220958
    23  C   -0.170843
    24  C    0.158267
    25  C   -0.170758
    26  C   -0.220600
    27  H    0.237309
    28  H    0.223827
    29  H    0.275383
    30  H    0.275259
    31  H    0.223088
    32  N    0.488041
    33  O   -0.460651
    34  O   -0.460574
 Sum of Mulliken charges =  -0.00000

 Dipole moment (field-independent basis, Debye):
    X=             -5.1347    Y=              1.7580    Z=              0.7273  Tot=              5.4758
 Quadrupole moment (field-independent basis, Debye-Ang):
   XX=           -134.6171   YY=            -92.2037   ZZ=            -93.7556
   XY=              7.8738   XZ=              2.8707   YZ=             -2.8805

 Normal termination of Gaussian 16 at Wed May  5 18:38:51 2021.
