 Gaussian 16, Revision A.03,
 Gaussian 16:  EM64L-G16RevA.03 25-Dec-2016

 -------------
 #p 6-31g* mp2
 -------------

 ------------------------------------------------------
 Input file generated by CHIRIPA (05-May-2021 14:55:24)
 ------------------------------------------------------
 Symbolic Z-matrix:
 Charge =  0 Multiplicity = 1

                         Standard orientation:
 ---------------------------------------------------------------------
 Center     Atomic      Atomic             Coordinates (Angstroms)
 Number     Number       Type             X           Y           Z
 ---------------------------------------------------------------------
      1          6           0        5.137279   -0.409281   -0.460698
      2          6           0        4.173980   -0.977653   -1.300656
      3          6           0        2.815275   -0.892271   -0.982570
      4          6           0        2.453631   -0.228244    0.188571
      5          6           0        3.389683    0.348242    1.045754
      6          6           0        4.742752    0.250688    0.707766
      7          1           0        6.190564   -0.480335   -0.715525
      8          1           0        4.477467   -1.490793   -2.208746
      9          1           0        2.048602   -1.323282   -1.614915
     10          1           0        3.056516    0.853448    1.944189
     11          1           0        5.488670    0.693037    1.361967
     12          7           0        1.018215   -0.131411    0.535849
     13          8           0        0.725470    0.458932    1.573362
     14          8           0        0.213059   -0.647690   -0.236043
     15          6           0       -3.671641   -0.368438   -0.428075
     16          6           0       -4.402551   -1.204782    0.622774
     17          6           0       -4.852813   -2.564446    0.087636
     18          1           0       -4.330657   -0.222942   -1.294951
     19          1           0       -2.798317   -0.928610   -0.789886
     20          1           0       -5.273453   -0.642622    0.983499
     21          1           0       -3.741789   -1.348142    1.487330
     22          1           0       -3.992052   -3.147964   -0.254704
     23          1           0       -5.532419   -2.438437   -0.761398
     24          1           0       -5.373084   -3.145744    0.855276
     25          6           0       -3.215285    0.993597    0.091856
     26          6           0       -2.484375    1.829941   -0.958993
     27          6           0       -2.034113    3.189605   -0.423855
     28          1           0       -4.088609    1.553769    0.453668
     29          1           0       -2.556270    0.848101    0.958733
     30          1           0       -3.145137    1.973301   -1.823549
     31          1           0       -1.613473    1.267781   -1.319717
     32          1           0       -1.354507    3.063595    0.425179
     33          1           0       -2.894874    3.773124   -0.081515
     34          1           0       -1.513842    3.770902   -1.191496
 ---------------------------------------------------------------------

 SCF Done:  E(RHF) =  -669.537217983     A.U. after   15 cycles
 E2 =    -0.2092496668D+01 EUMP2 =    -0.67162971465122D+03

 The electronic state is 1-A.
 Alpha  occ. eigenvalues --  -20.61243 -20.61237 -15.86228 -11.31448 -11.27995
 Alpha  occ. eigenvalues --  -11.27990 -11.27714 -11.26977 -11.26967 -11.20228
 Alpha  occ. eigenvalues --  -11.19979 -11.19931 -11.19718 -11.19683 -11.19548
 Alpha  occ. eigenvalues --   -1.60268  -1.39830  -1.19602  -1.09028  -1.06799
 Alpha  occ. eigenvalues --   -1.04982  -1.02090  -0.95885  -0.94552  -0.86388
 Alpha  occ. eigenvalues --   -0.85584  -0.82725  -0.78156  -0.77792  -0.76602
 Alpha  occ. eigenvalues --   -0.72447  -0.71569  -0.70711  -0.65261  -0.64989
 Alpha  occ. eigenvalues --   -0.63382  -0.62329  -0.59477  -0.57949  -0.56181
 Alpha  occ. eigenvalues --   -0.55490  -0.53823  -0.53317  -0.53072  -0.51334
 Alpha  occ. eigenvalues --   -0.51002  -0.49217  -0.49209  -0.48473  -0.46497
 Alpha  occ. eigenvalues --   -0.45491  -0.44941  -0.44141  -0.43916  -0.42285
 Alpha  occ. eigenvalues --   -0.37573  -0.36576
 Alpha virt. eigenvalues --    0.04695   0.11081   0.16194   0.21200   0.24528
 Alpha virt. eigenvalues --    0.25639   0.27152   0.27883   0.28519   0.29076
 Alpha virt. eigenvalues --    0.29379   0.30841   0.32325   0.32732   0.33109

 Mulliken charges:
               1
     1  C   -0.170169
     2  C   -0.218577
     3  C   -0.170482
     4  C    0.158114
     5  C   -0.170208
     6  C   -0.218617
     7  H    0.226623
     8  H    0.224429
     9  H    0.275965
    10  H    0.276190
    11  H    0.224417
    12  N    0.490776
    13  O   -0.458789
    14  O   -0.460704
    15  C   -0.301928
    16  C   -0.299078
    17  C   -0.474894
    18  H    0.140152
    19  H    0.165527
    20  H    0.146585
    21  H    0.155668
    22  H    0.155001
    23  H    0.151367
    24  H    0.155503
    25  C   -0.298088
    26  C   -0.302768
    27  C   -0.478598
    28  H    0.139378
    29  H    0.167102
    30  H    0.142275
    31  H    0.164155
    32  H    0.162376
    33  H    0.149991
    34  H    0.151304
 Sum of Mulliken charges =  -0.00000

 Dipole moment (field-independent basis, Debye):
    X=              5.5975    Y=             -0.4972    Z=             -1.1017  Tot=              5.7265
 Quadrupole moment (field-independent basis, Debye-Ang):
   XX=            -71.1960   YY=            -95.8583   ZZ=            -92.1114
   XY=             -1.8920   XZ=             -1.1599   YZ=              2.7128

 Normal termination of Gaussian 16 at Wed May  5 19:09:09 2021.
