 Gaussian 16, Revision A.03,
 Gaussian 16:  EM64L-G16RevA.03 25-Dec-2016

 -------------
 #p 6-31g* mp2
 -------------

 ------------------------------------------------------
 Input file generated by CHIRIPA (05-May-2021 14:57:26)
 ------------------------------------------------------
 Symbolic Z-matrix:
 Charge =  0 Multiplicity = 1

                         Standard orientation:
 ---------------------------------------------------------------------
 Center     Atomic      Atomic             Coordinates (Angstroms)
 Number     Number       Type             X           Y           Z
 ---------------------------------------------------------------------
      1          6           0        2.529815    1.720818    0.434089
      2          6           0        3.877424    2.062988    0.587028
      3          6           0        4.880848    1.117924    0.353485
      4          6           0        4.499189   -0.165778   -0.033472
      5          6           0        3.165227   -0.537205   -0.194337
      6          6           0        2.178637    0.424100    0.044581
      7          1           0        1.756870    2.461274    0.617598
      8          1           0        4.153093    3.069273    0.889422
      9          1           0        5.931793    1.355896    0.464396
     10          1           0        2.921391   -1.548361   -0.496869
     11          1           0        1.132870    0.155543   -0.074979
     12          7           0        5.552558   -1.174871   -0.283559
     13          8           0        5.190175   -2.299026   -0.623548
     14          8           0        6.720627   -0.822537   -0.134852
     15          6           0       -6.620242   -1.045600    0.083295
     16          6           0       -5.630443   -1.450371    0.984948
     17          6           0       -4.355506   -0.878199    0.943689
     18          6           0       -4.103742    0.100501   -0.016546
     19          6           0       -5.068848    0.524996   -0.928504
     20          6           0       -6.336785   -0.060944   -0.868874
     21          1           0       -7.607926   -1.495425    0.122481
     22          1           0       -5.847744   -2.214851    1.725485
     23          1           0       -3.570657   -1.172843    1.629703
     24          1           0       -4.822358    1.289345   -1.655436
     25          1           0       -7.103530    0.255368   -1.570369
     26          7           0       -2.757728    0.713521   -0.069949
     27          8           0       -2.561143    1.573833   -0.925434
     28          8           0       -1.924793    0.322086    0.744689
 ---------------------------------------------------------------------

 SCF Done:  E(RHF) =  -868.340939891     A.U. after   16 cycles
 E2 =    -0.2598044368D+01 EUMP2 =    -0.87093898425865D+03

 The electronic state is 1-A.
 Alpha  occ. eigenvalues --  -20.61881 -20.61873 -20.59973 -20.59967 -15.86881
 Alpha  occ. eigenvalues --  -15.85014 -11.31915 -11.30150 -11.28442 -11.28437
 Alpha  occ. eigenvalues --  -11.28120 -11.27379 -11.27369 -11.26717 -11.26614
 Alpha  occ. eigenvalues --  -11.26241 -11.25681 -11.25389  -1.60937  -1.59053
 Alpha  occ. eigenvalues --   -1.40495  -1.38613  -1.20056  -1.18267  -1.09514
 Alpha  occ. eigenvalues --   -1.07679  -1.05406  -1.03623  -0.96403  -0.94567
 Alpha  occ. eigenvalues --   -0.86819  -0.85007  -0.83245  -0.81407  -0.78329
 Alpha  occ. eigenvalues --   -0.76504  -0.73115  -0.72226  -0.71238  -0.71156
 Alpha  occ. eigenvalues --   -0.70373  -0.69327  -0.65710  -0.65404  -0.63897
 Alpha  occ. eigenvalues --   -0.63563  -0.62755  -0.60962  -0.55918  -0.54053
 Alpha  occ. eigenvalues --   -0.53754  -0.53491  -0.51984  -0.51681  -0.49883
 Alpha  occ. eigenvalues --   -0.49849  -0.48009  -0.47967  -0.45966  -0.44071
 Alpha  occ. eigenvalues --   -0.38014  -0.36993  -0.36208  -0.35236
 Alpha virt. eigenvalues --    0.04162   0.05996   0.10667   0.12430   0.15724
 Alpha virt. eigenvalues --    0.17578   0.20847   0.22749   0.26784   0.27693
 Alpha virt. eigenvalues --    0.28664   0.29548   0.30456   0.31893   0.32419

 Mulliken charges:
               1
     1  C   -0.172506
     2  C   -0.219304
     3  C   -0.173388
     4  C    0.157975
     5  C   -0.173993
     6  C   -0.224674
     7  H    0.232483
     8  H    0.219728
     9  H    0.271613
    10  H    0.272137
    11  H    0.244697
    12  N    0.488213
    13  O   -0.463167
    14  O   -0.463589
    15  C   -0.169507
    16  C   -0.218513
    17  C   -0.170525
    18  C    0.157317
    19  C   -0.170289
    20  C   -0.218566
    21  H    0.228292
    22  H    0.225938
    23  H    0.275879
    24  H    0.276285
    25  H    0.225739
    26  N    0.489300
    27  O   -0.459365
    28  O   -0.468212
 Sum of Mulliken charges =  -0.00000

 Dipole moment (field-independent basis, Debye):
    X=             -9.1580    Y=              1.4295    Z=              1.0599  Tot=              9.3293
 Quadrupole moment (field-independent basis, Debye-Ang):
   XX=            -97.6505   YY=           -103.4213   ZZ=           -102.8580
   XY=             27.3438   XZ=              5.6832   YZ=             -2.0254

 Normal termination of Gaussian 16 at Thu May  6 09:57:08 2021.
