 Gaussian 16, Revision A.03,
 Gaussian 16:  EM64L-G16RevA.03 25-Dec-2016

 -------------
 #p 6-31g* mp2
 -------------

 ------------------------------------------------------
 Input file generated by CHIRIPA (05-May-2021 14:53:16)
 ------------------------------------------------------
 Symbolic Z-matrix:
 Charge =  0 Multiplicity = 1

                         Standard orientation:
 ---------------------------------------------------------------------
 Center     Atomic      Atomic             Coordinates (Angstroms)
 Number     Number       Type             X           Y           Z
 ---------------------------------------------------------------------
      1          6           0       -1.693555   -0.698857   -0.586808
      2          6           0       -1.353340   -1.915070   -1.448821
      3          6           0        0.132677   -1.993636   -1.800070
      4          1           0       -1.391948    0.214610   -1.117427
      5          1           0       -1.098979   -0.734730    0.336549
      6          1           0       -1.949398   -1.877640   -2.369652
      7          1           0       -1.655967   -2.825738   -0.916171
      8          1           0        0.740504   -2.055672   -0.891610
      9          1           0        0.445405   -1.102186   -2.353349
     10          1           0        0.353651   -2.870486   -2.416645
     11          6           0       -3.175451   -0.606495   -0.227393
     12          6           0       -3.515666    0.609718    0.634620
     13          6           0       -5.001683    0.688285    0.985869
     14          1           0       -3.770027   -0.570622   -1.150750
     15          1           0       -3.477058   -1.519962    0.303225
     16          1           0       -3.213040    1.520387    0.101970
     17          1           0       -2.919608    0.572288    1.555451
     18          1           0       -5.314411   -0.203166    1.539148
     19          1           0       -5.609510    0.750320    0.077409
     20          1           0       -5.222657    1.565134    1.602444
     21          6           0        2.575425   -1.460941    1.742175
     22          6           0        3.220578   -1.224758    0.523767
     23          6           0        2.855663   -0.135821   -0.273478
     24          6           0        1.836847    0.700437    0.180368
     25          6           0        1.175174    0.491547    1.389436
     26          6           0        1.556578   -0.603546    2.170365
     27          1           0        2.865303   -2.309245    2.355157
     28          1           0        4.012172   -1.888959    0.188711
     29          1           0        3.338452    0.070340   -1.221018
     30          1           0        0.389694    1.171184    1.696899
     31          1           0        1.053796   -0.784525    3.116146
     32          7           0        1.441800    1.856505   -0.655004
     33          8           0        0.541165    2.578450   -0.232760
     34          8           0        2.040277    2.018794   -1.716194
 ---------------------------------------------------------------------

 SCF Done:  E(RHF) =  -669.533619790     A.U. after   15 cycles
 E2 =    -0.2096959061D+01 EUMP2 =    -0.67163057885144D+03

 The electronic state is 1-A.
 Alpha  occ. eigenvalues --  -20.60869 -20.60857 -15.85888 -11.31169 -11.27820
 Alpha  occ. eigenvalues --  -11.27797 -11.27608 -11.26842 -11.26797 -11.21421
 Alpha  occ. eigenvalues --  -11.21386 -11.21182 -11.21063 -11.20901 -11.20840
 Alpha  occ. eigenvalues --   -1.59923  -1.39479  -1.19441  -1.08828  -1.08227
 Alpha  occ. eigenvalues --   -1.04848  -1.03346  -0.95800  -0.95664  -0.86836
 Alpha  occ. eigenvalues --   -0.86220  -0.82499  -0.79424  -0.78105  -0.77518
 Alpha  occ. eigenvalues --   -0.72121  -0.71226  -0.70552  -0.65088  -0.64899
 Alpha  occ. eigenvalues --   -0.64806  -0.62180  -0.60764  -0.59193  -0.57459
 Alpha  occ. eigenvalues --   -0.55355  -0.55113  -0.53390  -0.52924  -0.52499
 Alpha  occ. eigenvalues --   -0.52163  -0.49754  -0.48879  -0.48876  -0.47644
 Alpha  occ. eigenvalues --   -0.46407  -0.45602  -0.45457  -0.44788  -0.43589
 Alpha  occ. eigenvalues --   -0.37386  -0.36314
 Alpha virt. eigenvalues --    0.04956   0.11168   0.16386   0.20998   0.23119
 Alpha virt. eigenvalues --    0.24253   0.25981   0.26890   0.27596   0.28220
 Alpha virt. eigenvalues --    0.29239   0.30723   0.31356   0.31830   0.32054

 Mulliken charges:
               1
     1  C   -0.308575
     2  C   -0.297004
     3  C   -0.485583
     4  H    0.158550
     5  H    0.147821
     6  H    0.153041
     7  H    0.147991
     8  H    0.160268
     9  H    0.157423
    10  H    0.156688
    11  C   -0.297295
    12  C   -0.300066
    13  C   -0.475639
    14  H    0.150904
    15  H    0.145873
    16  H    0.163474
    17  H    0.142479
    18  H    0.152440
    19  H    0.156483
    20  H    0.160423
    21  C   -0.170524
    22  C   -0.220278
    23  C   -0.168125
    24  C    0.165314
    25  C   -0.172264
    26  C   -0.219828
    27  H    0.226303
    28  H    0.224136
    29  H    0.275928
    30  H    0.277931
    31  H    0.223853
    32  N    0.488041
    33  O   -0.459677
    34  O   -0.460505
 Sum of Mulliken charges =  -0.00000

 Dipole moment (field-independent basis, Debye):
    X=              1.5096    Y=             -3.9110    Z=              2.9192  Tot=              5.1085
 Quadrupole moment (field-independent basis, Debye-Ang):
   XX=            -88.6866   YY=           -100.8116   ZZ=            -91.2812
   XY=             -7.8901   XZ=              3.7782   YZ=              1.5670

 Normal termination of Gaussian 16 at Thu May  6 09:05:53 2021.
