 Gaussian 16, Revision A.03,
 Gaussian 16:  EM64L-G16RevA.03 25-Dec-2016

 -------------
 #p 6-31g* mp2
 -------------

 ------------------------------------------------------
 Input file generated by CHIRIPA (05-May-2021 14:55:19)
 ------------------------------------------------------
 Symbolic Z-matrix:
 Charge =  0 Multiplicity = 1

                         Standard orientation:
 ---------------------------------------------------------------------
 Center     Atomic      Atomic             Coordinates (Angstroms)
 Number     Number       Type             X           Y           Z
 ---------------------------------------------------------------------
      1          6           0        1.556159   -2.689784   -0.835339
      2          6           0        0.757345   -2.175551    0.191297
      3          6           0        1.028280   -0.918458    0.739805
      4          6           0        2.110826   -0.199406    0.235477
      5          6           0        2.925159   -0.684591   -0.786651
      6          6           0        2.635613   -1.943978   -1.320182
      7          1           0        1.338461   -3.667215   -1.255616
      8          1           0       -0.081626   -2.752532    0.569799
      9          1           0        0.426151   -0.496392    1.535241
     10          1           0        3.754608   -0.086025   -1.143235
     11          1           0        3.257689   -2.340827   -2.117414
     12          7           0        2.407504    1.132636    0.808230
     13          8           0        3.367037    1.746365    0.346417
     14          8           0        1.674890    1.537740    1.708122
     15          6           0       -2.042632    1.005491   -0.265813
     16          6           0       -2.426485    2.381608   -0.810736
     17          6           0       -1.222155    3.309058   -0.975723
     18          1           0       -1.537968    1.129189    0.702153
     19          1           0       -1.311542    0.541774   -0.942474
     20          1           0       -3.157676    2.842012   -0.133976
     21          1           0       -2.930464    2.254609   -1.777427
     22          1           0       -0.493199    2.874531   -1.667395
     23          1           0       -0.721702    3.465273   -0.014606
     24          1           0       -1.519309    4.287270   -1.366439
     25          6           0       -3.235909    0.067002   -0.095352
     26          6           0       -2.852056   -1.309116    0.449570
     27          6           0       -4.056386   -2.236566    0.614557
     28          1           0       -3.966999    0.530719    0.581308
     29          1           0       -3.740572   -0.056696   -1.063318
     30          1           0       -2.348076   -1.182116    1.416262
     31          1           0       -2.120864   -1.769519   -0.227190
     32          1           0       -4.556839   -2.392780   -0.346559
     33          1           0       -4.785342   -1.802039    1.306230
     34          1           0       -3.759231   -3.214778    1.005273
 ---------------------------------------------------------------------

 SCF Done:  E(RHF) =  -669.534628115     A.U. after   15 cycles
 E2 =    -0.2094664530D+01 EUMP2 =    -0.67162929264516D+03

 The electronic state is 1-A.
 Alpha  occ. eigenvalues --  -20.60802 -20.60795 -15.85837 -11.31151 -11.27730
 Alpha  occ. eigenvalues --  -11.27697 -11.27463 -11.26734 -11.26657 -11.22244
 Alpha  occ. eigenvalues --  -11.21658 -11.21654 -11.21412 -11.21336 -11.20575
 Alpha  occ. eigenvalues --   -1.59860  -1.39418  -1.19332  -1.08738  -1.08622
 Alpha  occ. eigenvalues --   -1.04727  -1.03676  -0.96085  -0.95575  -0.87111
 Alpha  occ. eigenvalues --   -0.86125  -0.82426  -0.79848  -0.78449  -0.77389
 Alpha  occ. eigenvalues --   -0.72060  -0.71170  -0.70444  -0.65317  -0.64981
 Alpha  occ. eigenvalues --   -0.64688  -0.62104  -0.61059  -0.59527  -0.57705
 Alpha  occ. eigenvalues --   -0.55353  -0.55226  -0.53136  -0.52890  -0.52769
 Alpha  occ. eigenvalues --   -0.52430  -0.50027  -0.48820  -0.48815  -0.48078
 Alpha  occ. eigenvalues --   -0.46868  -0.45929  -0.45781  -0.44767  -0.43915
 Alpha  occ. eigenvalues --   -0.37310  -0.36233
 Alpha virt. eigenvalues --    0.05044   0.11220   0.16456   0.20358   0.22950
 Alpha virt. eigenvalues --    0.23994   0.24699   0.26430   0.27353   0.28467
 Alpha virt. eigenvalues --    0.29644   0.30842   0.31202   0.31753   0.32311

 Mulliken charges:
               1
     1  C   -0.172756
     2  C   -0.219954
     3  C   -0.167099
     4  C    0.157439
     5  C   -0.171207
     6  C   -0.218858
     7  H    0.225388
     8  H    0.228118
     9  H    0.276657
    10  H    0.275341
    11  H    0.223115
    12  N    0.489206
    13  O   -0.459750
    14  O   -0.462181
    15  C   -0.306317
    16  C   -0.299253
    17  C   -0.479545
    18  H    0.156178
    19  H    0.150261
    20  H    0.152165
    21  H    0.149397
    22  H    0.152450
    23  H    0.169469
    24  H    0.159428
    25  C   -0.296802
    26  C   -0.306781
    27  C   -0.475270
    28  H    0.151891
    29  H    0.150294
    30  H    0.145514
    31  H    0.150894
    32  H    0.157403
    33  H    0.159228
    34  H    0.155938
 Sum of Mulliken charges =  -0.00000

 Dipole moment (field-independent basis, Debye):
    X=             -1.0427    Y=             -4.5611    Z=             -1.9926  Tot=              5.0854
 Quadrupole moment (field-independent basis, Debye-Ang):
   XX=            -97.0258   YY=            -93.8600   ZZ=            -93.5215
   XY=            -10.0624   XZ=             -7.3900   YZ=             -0.3475

 Normal termination of Gaussian 16 at Thu May  6 06:05:40 2021.
