 Gaussian 16, Revision A.03,
 Gaussian 16:  EM64L-G16RevA.03 25-Dec-2016

 -------------
 #p 6-31g* mp2
 -------------

 ------------------------------------------------------
 Input file generated by CHIRIPA (05-May-2021 14:55:18)
 ------------------------------------------------------
 Symbolic Z-matrix:
 Charge =  0 Multiplicity = 1

                         Standard orientation:
 ---------------------------------------------------------------------
 Center     Atomic      Atomic             Coordinates (Angstroms)
 Number     Number       Type             X           Y           Z
 ---------------------------------------------------------------------
      1          6           0       -1.254392    2.524084    0.490880
      2          6           0       -1.960498    1.733157    1.403223
      3          6           0       -2.573022    0.546626    0.989088
      4          6           0       -2.458860    0.179515   -0.350870
      5          6           0       -1.762271    0.946134   -1.283794
      6          6           0       -1.157702    2.128745   -0.847357
      7          1           0       -0.781658    3.444286    0.821252
      8          1           0       -2.037237    2.037706    2.443130
      9          1           0       -3.125773   -0.084566    1.674275
     10          1           0       -1.703148    0.616452   -2.313955
     11          1           0       -0.609971    2.741010   -1.558109
     12          7           0       -3.103101   -1.074537   -0.801101
     13          8           0       -2.987857   -1.375932   -1.987067
     14          8           0       -3.711102   -1.732321    0.040499
     15          6           0        2.515845   -1.020385    0.601305
     16          6           0        1.303143   -0.422750    1.315568
     17          6           0        0.320797   -1.487648    1.804222
     18          1           0        2.171630   -1.622365   -0.250799
     19          1           0        3.031203   -1.710476    1.283636
     20          1           0        0.791020    0.267062    0.632556
     21          1           0        1.650297    0.178034    2.165956
     22          1           0        0.810546   -2.170566    2.505912
     23          1           0       -0.053613   -2.081033    0.963799
     24          1           0       -0.538510   -1.038449    2.311835
     25          6           0        3.507021    0.031719    0.106961
     26          6           0        4.719722   -0.565918   -0.607303
     27          6           0        5.702068    0.498980   -1.095956
     28          1           0        2.991663    0.721809   -0.575372
     29          1           0        3.851236    0.633699    0.959064
     30          1           0        4.372569   -1.166701   -1.457691
     31          1           0        5.231845   -1.255728    0.075710
     32          1           0        6.076478    1.092366   -0.255533
     33          1           0        5.212320    1.181900   -1.797647
     34          1           0        6.561375    0.049782   -1.603569
 ---------------------------------------------------------------------

 SCF Done:  E(RHF) =  -669.534267717     A.U. after   15 cycles
 E2 =    -0.2095001725D+01 EUMP2 =    -0.67162926944129D+03

 The electronic state is 1-A.
 Alpha  occ. eigenvalues --  -20.60832 -20.60820 -15.85883 -11.31264 -11.27878
 Alpha  occ. eigenvalues --  -11.27848 -11.27596 -11.26862 -11.26843 -11.21762
 Alpha  occ. eigenvalues --  -11.21586 -11.21552 -11.21417 -11.21282 -11.20999
 Alpha  occ. eigenvalues --   -1.59904  -1.39456  -1.19474  -1.08849  -1.08537
 Alpha  occ. eigenvalues --   -1.04883  -1.03615  -0.96083  -0.95674  -0.87096
 Alpha  occ. eigenvalues --   -0.86261  -0.82510  -0.79688  -0.78359  -0.77552
 Alpha  occ. eigenvalues --   -0.72101  -0.71233  -0.70569  -0.65185  -0.65114
 Alpha  occ. eigenvalues --   -0.64868  -0.62226  -0.61055  -0.59506  -0.57758
 Alpha  occ. eigenvalues --   -0.55430  -0.55358  -0.53269  -0.52964  -0.52586
 Alpha  occ. eigenvalues --   -0.52436  -0.50022  -0.48862  -0.48854  -0.48009
 Alpha  occ. eigenvalues --   -0.46709  -0.45889  -0.45798  -0.44854  -0.43894
 Alpha  occ. eigenvalues --   -0.37387  -0.36408
 Alpha virt. eigenvalues --    0.04966   0.11136   0.16412   0.21173   0.22772
 Alpha virt. eigenvalues --    0.24142   0.26425   0.26762   0.27388   0.27874
 Alpha virt. eigenvalues --    0.28354   0.30841   0.31343   0.31570   0.31789

 Mulliken charges:
               1
     1  C   -0.169899
     2  C   -0.215886
     3  C   -0.170042
     4  C    0.162214
     5  C   -0.172234
     6  C   -0.220117
     7  H    0.226573
     8  H    0.224093
     9  H    0.276306
    10  H    0.276022
    11  H    0.223992
    12  N    0.487797
    13  O   -0.460815
    14  O   -0.459668
    15  C   -0.298370
    16  C   -0.306187
    17  C   -0.474678
    18  H    0.151895
    19  H    0.149904
    20  H    0.159606
    21  H    0.145702
    22  H    0.154682
    23  H    0.158484
    24  H    0.154688
    25  C   -0.296994
    26  C   -0.299829
    27  C   -0.475461
    28  H    0.144916
    29  H    0.147825
    30  H    0.153381
    31  H    0.153107
    32  H    0.154473
    33  H    0.153137
    34  H    0.161383
 Sum of Mulliken charges =  -0.00000

 Dipole moment (field-independent basis, Debye):
    X=              2.1552    Y=              4.4320    Z=              1.5511  Tot=              5.1666
 Quadrupole moment (field-independent basis, Debye-Ang):
   XX=           -106.5921   YY=            -93.9758   ZZ=            -91.1937
   XY=            -10.9141   XZ=             -5.8712   YZ=             -1.8112

 Normal termination of Gaussian 16 at Wed May  5 15:48:55 2021.
