 Gaussian 16, Revision A.03,
 Gaussian 16:  EM64L-G16RevA.03 25-Dec-2016

 -------------
 #p 6-31g* mp2
 -------------

 ------------------------------------------------------
 Input file generated by CHIRIPA (05-May-2021 14:51:11)
 ------------------------------------------------------
 Symbolic Z-matrix:
 Charge =  0 Multiplicity = 1

                         Standard orientation:
 ---------------------------------------------------------------------
 Center     Atomic      Atomic             Coordinates (Angstroms)
 Number     Number       Type             X           Y           Z
 ---------------------------------------------------------------------
      1          6           0        4.519948   -0.094213   -0.199343
      2          6           0        4.530222   -1.561584    0.230428
      3          6           0        5.809559   -2.289711   -0.182999
      4          1           0        4.639827   -0.037310   -1.289910
      5          1           0        5.390186    0.414740    0.237747
      6          1           0        3.659465   -2.067292   -0.206215
      7          1           0        4.410113   -1.615007    1.320077
      8          1           0        6.686832   -1.811235    0.264274
      9          1           0        5.931919   -2.266089   -1.270690
     10          1           0        5.795735   -3.337122    0.134177
     11          6           0        3.247464    0.647108    0.206805
     12          6           0        3.237189    2.114478   -0.222966
     13          6           0        1.957853    2.842606    0.190461
     14          1           0        2.377226    0.138155   -0.230285
     15          1           0        3.127585    0.590205    1.297372
     16          1           0        3.357299    2.167902   -1.312615
     17          1           0        4.107947    2.620186    0.213676
     18          1           0        1.835493    2.818983    1.278152
     19          1           0        1.080580    2.364129   -0.256812
     20          1           0        1.971677    3.890016   -0.126715
     21          6           0       -4.543760   -0.643457    0.110568
     22          6           0       -5.772954    0.197123   -0.236553
     23          6           0       -7.085842   -0.550803   -0.002620
     24          1           0       -4.555229   -1.563542   -0.489645
     25          1           0       -4.606685   -0.955521    1.162259
     26          1           0       -5.707045    0.508666   -1.286893
     27          1           0       -5.758457    1.115404    0.364417
     28          1           0       -7.178093   -0.848112    1.046998
     29          1           0       -7.126388   -1.458297   -0.613695
     30          1           0       -7.951569    0.068548   -0.257141
     31          6           0       -3.223652    0.090562   -0.118030
     32          6           0       -1.994458   -0.750017    0.229092
     33          6           0       -0.681570   -0.002091   -0.004841
     34          1           0       -3.160727    0.402627   -1.169720
     35          1           0       -3.212183    1.010647    0.482184
     36          1           0       -2.008955   -1.668298   -0.371880
     37          1           0       -2.060367   -1.061561    1.279431
     38          1           0       -0.641024    0.905402    0.606233
     39          1           0       -0.589319    0.295217   -1.054460
     40          1           0        0.184157   -0.621443    0.249678
 ---------------------------------------------------------------------

 SCF Done:  E(RHF) =  -470.732064487     A.U. after   11 cycles
 E2 =    -0.1583615606D+01 EUMP2 =    -0.47231568009305D+03

 The electronic state is 1-A.
 Alpha  occ. eigenvalues --  -11.21604 -11.21599 -11.21575 -11.21500 -11.21410
 Alpha  occ. eigenvalues --  -11.21351 -11.21320 -11.21226 -11.21073 -11.21063
 Alpha  occ. eigenvalues --  -11.21049 -11.20896  -1.08442  -1.08350  -1.03561
 Alpha  occ. eigenvalues --   -1.03438  -0.96010  -0.95895  -0.87044  -0.86912
 Alpha  occ. eigenvalues --   -0.79728  -0.79438  -0.78282  -0.78118  -0.65068
 Alpha  occ. eigenvalues --   -0.64993  -0.60944  -0.60862  -0.59428  -0.59229
 Alpha  occ. eigenvalues --   -0.57783  -0.57387  -0.55322  -0.55163  -0.52787
 Alpha  occ. eigenvalues --   -0.52644  -0.52574  -0.52101  -0.49984  -0.49797
 Alpha  occ. eigenvalues --   -0.48035  -0.47684  -0.46636  -0.46542  -0.45863
 Alpha  occ. eigenvalues --   -0.45728  -0.45660  -0.45580  -0.43722  -0.43655
 Alpha virt. eigenvalues --    0.22244   0.22983   0.23809   0.24480   0.25959
 Alpha virt. eigenvalues --    0.26533   0.26975   0.27078   0.27918   0.29407
 Alpha virt. eigenvalues --    0.30694   0.31307   0.31630   0.31941   0.32372

 Mulliken charges:
               1
     1  C   -0.297552
     2  C   -0.299667
     3  C   -0.475572
     4  H    0.149226
     5  H    0.149210
     6  H    0.151126
     7  H    0.151745
     8  H    0.155231
     9  H    0.155132
    10  H    0.160046
    11  C   -0.305051
    12  C   -0.298899
    13  C   -0.482016
    14  H    0.158503
    15  H    0.148471
    16  H    0.151045
    17  H    0.151171
    18  H    0.153468
    19  H    0.165139
    20  H    0.158910
    21  C   -0.298236
    22  C   -0.299614
    23  C   -0.475702
    24  H    0.149598
    25  H    0.149566
    26  H    0.151892
    27  H    0.152019
    28  H    0.155198
    29  H    0.155151
    30  H    0.160274
    31  C   -0.298648
    32  C   -0.300349
    33  C   -0.480700
    34  H    0.149301
    35  H    0.149844
    36  H    0.151556
    37  H    0.152098
    38  H    0.159413
    39  H    0.153415
    40  H    0.164257
 Sum of Mulliken charges =  -0.00000

 Dipole moment (field-independent basis, Debye):
    X=             -0.0475    Y=             -0.0132    Z=              0.0024  Tot=              0.0494
 Quadrupole moment (field-independent basis, Debye-Ang):
   XX=            -86.7119   YY=            -85.3665   ZZ=            -83.1283
   XY=              0.1534   XZ=              0.6394   YZ=              0.4647

 Normal termination of Gaussian 16 at Thu May  6 00:42:04 2021.
