 Gaussian 16, Revision A.03,
 Gaussian 16:  EM64L-G16RevA.03 25-Dec-2016

 -------------
 #p 6-31g* mp2
 -------------

 ------------------------------------------------------
 Input file generated by CHIRIPA (05-May-2021 14:51:09)
 ------------------------------------------------------
 Symbolic Z-matrix:
 Charge =  0 Multiplicity = 1

                         Standard orientation:
 ---------------------------------------------------------------------
 Center     Atomic      Atomic             Coordinates (Angstroms)
 Number     Number       Type             X           Y           Z
 ---------------------------------------------------------------------
      1          6           0       -1.579791   -1.406982   -0.477810
      2          6           0       -1.079117   -2.767819    0.007404
      3          6           0       -0.025786   -3.375071   -0.919707
      4          1           0       -1.997510   -1.516003   -1.488042
      5          1           0       -0.726680   -0.719936   -0.564792
      6          1           0       -1.933109   -3.451691    0.094770
      7          1           0       -0.662714   -2.655582    1.016675
      8          1           0        0.844187   -2.715160   -0.998858
      9          1           0       -0.433425   -3.515791   -1.926001
     10          1           0        0.318231   -4.347567   -0.553969
     11          6           0       -2.633236   -0.787124    0.438573
     12          6           0       -3.133910    0.573713   -0.046641
     13          6           0       -4.187241    1.180965    0.880470
     14          1           0       -3.486346   -1.474170    0.525555
     15          1           0       -2.215516   -0.678103    1.448805
     16          1           0       -3.550312    0.461476   -1.055912
     17          1           0       -2.279918    1.257585   -0.134007
     18          1           0       -3.779601    1.321685    1.886764
     19          1           0       -5.057214    0.521054    0.959621
     20          1           0       -4.531257    2.153461    0.514732
     21          6           0        1.805606    1.775015    0.201976
     22          6           0        0.901790    2.350445   -0.888887
     23          6           0        0.307305    3.707032   -0.509346
     24          1           0        1.229841    1.677231    1.132502
     25          1           0        2.616683    2.486666    0.409586
     26          1           0        0.093447    1.637305   -1.095354
     27          1           0        1.479721    2.446692   -1.816976
     28          1           0        1.101543    4.437171   -0.323105
     29          1           0       -0.292608    3.623186    0.402616
     30          1           0       -0.335415    4.099992   -1.303295
     31          6           0        2.407421    0.419091   -0.162739
     32          6           0        3.311237   -0.156339    0.928124
     33          6           0        3.905722   -1.512927    0.548583
     34          1           0        1.596344   -0.292560   -0.370349
     35          1           0        2.983185    0.516875   -1.093265
     36          1           0        2.733306   -0.252586    1.856213
     37          1           0        4.119580    0.556801    1.134591
     38          1           0        4.505634   -1.429080   -0.363379
     39          1           0        3.111484   -2.243066    0.362342
     40          1           0        4.548442   -1.905885    1.342532
 ---------------------------------------------------------------------

 SCF Done:  E(RHF) =  -470.732385481     A.U. after   11 cycles
 E2 =    -0.1585661522D+01 EUMP2 =    -0.47231804700331D+03

 The electronic state is 1-A.
 Alpha  occ. eigenvalues --  -11.21663 -11.21642 -11.21635 -11.21625 -11.21456
 Alpha  occ. eigenvalues --  -11.21452 -11.21395 -11.21392 -11.21111 -11.21111
 Alpha  occ. eigenvalues --  -11.21101 -11.21085  -1.08546  -1.08434  -1.03614
 Alpha  occ. eigenvalues --   -1.03540  -0.96052  -0.96000  -0.87059  -0.87023
 Alpha  occ. eigenvalues --   -0.79699  -0.79585  -0.78501  -0.78129  -0.65546
 Alpha  occ. eigenvalues --   -0.64733  -0.61259  -0.60728  -0.59431  -0.59354
 Alpha  occ. eigenvalues --   -0.57666  -0.57609  -0.55498  -0.55148  -0.52731
 Alpha  occ. eigenvalues --   -0.52700  -0.52473  -0.52422  -0.50074  -0.49871
 Alpha  occ. eigenvalues --   -0.48104  -0.47851  -0.46901  -0.46755  -0.46311
 Alpha  occ. eigenvalues --   -0.45827  -0.45794  -0.44852  -0.43833  -0.43817
 Alpha virt. eigenvalues --    0.19513   0.21199   0.24141   0.24650   0.25783
 Alpha virt. eigenvalues --    0.26181   0.26822   0.27412   0.28449   0.30150
 Alpha virt. eigenvalues --    0.31244   0.31624   0.31661   0.31817   0.32141

 Mulliken charges:
               1
     1  C   -0.310370
     2  C   -0.299195
     3  C   -0.482889
     4  H    0.150044
     5  H    0.159953
     6  H    0.152621
     7  H    0.151408
     8  H    0.161179
     9  H    0.155796
    10  H    0.160654
    11  C   -0.297361
    12  C   -0.306045
    13  C   -0.475474
    14  H    0.149936
    15  H    0.148955
    16  H    0.152081
    17  H    0.158124
    18  H    0.154881
    19  H    0.155355
    20  H    0.160679
    21  C   -0.297636
    22  C   -0.308582
    23  C   -0.476033
    24  H    0.148782
    25  H    0.150207
    26  H    0.159248
    27  H    0.152578
    28  H    0.155471
    29  H    0.155285
    30  H    0.160764
    31  C   -0.309565
    32  C   -0.298882
    33  C   -0.479922
    34  H    0.158979
    35  H    0.150162
    36  H    0.151403
    37  H    0.152240
    38  H    0.155344
    39  H    0.159326
    40  H    0.160502
 Sum of Mulliken charges =  -0.00000

 Dipole moment (field-independent basis, Debye):
    X=             -0.0024    Y=              0.0022    Z=             -0.0231  Tot=              0.0233
 Quadrupole moment (field-independent basis, Debye-Ang):
   XX=            -84.3978   YY=            -85.5982   ZZ=            -84.6507
   XY=              1.6434   XZ=              0.5664   YZ=             -0.4020

 Normal termination of Gaussian 16 at Thu May  6 03:44:51 2021.
