 Gaussian 16, Revision A.03,
 Gaussian 16:  EM64L-G16RevA.03 25-Dec-2016

 -------------
 #p 6-31g* mp2
 -------------

 ------------------------------------------------------
 Input file generated by CHIRIPA (05-May-2021 14:53:15)
 ------------------------------------------------------
 Symbolic Z-matrix:
 Charge =  0 Multiplicity = 1

                         Standard orientation:
 ---------------------------------------------------------------------
 Center     Atomic      Atomic             Coordinates (Angstroms)
 Number     Number       Type             X           Y           Z
 ---------------------------------------------------------------------
      1          6           0        3.706941   -0.404943    0.674127
      2          6           0        2.438528   -0.856457   -0.050613
      3          6           0        1.383574   -1.421883    0.900786
      4          1           0        4.128148   -1.255644    1.227153
      5          1           0        3.442411    0.354502    1.422900
      6          1           0        2.705561   -1.613821   -0.798751
      7          1           0        2.020398   -0.004631   -0.602133
      8          1           0        1.088548   -0.669843    1.639702
      9          1           0        1.777604   -2.288176    1.441967
     10          1           0        0.485246   -1.738506    0.361698
     11          6           0        4.770980    0.162682   -0.263611
     12          6           0        6.039393    0.614197    0.461129
     13          6           0        7.094347    1.179622   -0.490270
     14          1           0        5.035510   -0.596763   -1.012385
     15          1           0        4.349773    1.013383   -0.816637
     16          1           0        6.457523   -0.237630    1.012649
     17          1           0        5.772360    1.371560    1.209266
     18          1           0        6.700317    2.045916   -1.031451
     19          1           0        7.389373    0.427582   -1.229186
     20          1           0        7.992675    1.496245    0.048818
     21          6           0       -4.142851    2.431033    0.304752
     22          6           0       -3.115227    2.225081   -0.621583
     23          6           0       -2.646795    0.934899   -0.887193
     24          6           0       -3.231335   -0.131241   -0.205323
     25          6           0       -4.256643    0.041622    0.723198
     26          6           0       -4.709280    1.340568    0.973008
     27          1           0       -4.500606    3.436681    0.504947
     28          1           0       -2.673464    3.070072   -1.142045
     29          1           0       -1.852534    0.746930   -1.599397
     30          1           0       -4.677337   -0.820506    1.226358
     31          1           0       -5.507481    1.497522    1.692928
     32          7           0       -2.743786   -1.501739   -0.478150
     33          8           0       -3.275380   -2.424294    0.135803
     34          8           0       -1.839284   -1.627428   -1.300776
 ---------------------------------------------------------------------

 SCF Done:  E(RHF) =  -669.536343168     A.U. after   15 cycles
 E2 =    -0.2090980167D+01 EUMP2 =    -0.67162732333458D+03

 The electronic state is 1-A.
 Alpha  occ. eigenvalues --  -20.60949 -20.60944 -15.85966 -11.31271 -11.27834
 Alpha  occ. eigenvalues --  -11.27831 -11.27574 -11.26841 -11.26831 -11.21374
 Alpha  occ. eigenvalues --  -11.21076 -11.20997 -11.20924 -11.20899 -11.20168
 Alpha  occ. eigenvalues --   -1.60002  -1.39559  -1.19440  -1.08848  -1.08033
 Alpha  occ. eigenvalues --   -1.04835  -1.03073  -0.95695  -0.95511  -0.86534
 Alpha  occ. eigenvalues --   -0.86236  -0.82528  -0.79157  -0.77837  -0.77583
 Alpha  occ. eigenvalues --   -0.72191  -0.71314  -0.70551  -0.65097  -0.64840
 Alpha  occ. eigenvalues --   -0.64675  -0.62183  -0.60486  -0.58887  -0.57099
 Alpha  occ. eigenvalues --   -0.55343  -0.54825  -0.53168  -0.52928  -0.52171
 Alpha  occ. eigenvalues --   -0.51937  -0.49487  -0.48959  -0.48944  -0.47465
 Alpha  occ. eigenvalues --   -0.46216  -0.45382  -0.45311  -0.44956  -0.43279
 Alpha  occ. eigenvalues --   -0.37417  -0.36435
 Alpha virt. eigenvalues --    0.04915   0.11216   0.16390   0.21303   0.23209
 Alpha virt. eigenvalues --    0.24731   0.26904   0.27269   0.27750   0.28203
 Alpha virt. eigenvalues --    0.28637   0.30808   0.31763   0.32045   0.32410

 Mulliken charges:
               1
     1  C   -0.297700
     2  C   -0.296376
     3  C   -0.486692
     4  H    0.149697
     5  H    0.146525
     6  H    0.154809
     7  H    0.146111
     8  H    0.146894
     9  H    0.153853
    10  H    0.180991
    11  C   -0.297548
    12  C   -0.299202
    13  C   -0.475380
    14  H    0.150235
    15  H    0.147075
    16  H    0.152192
    17  H    0.150505
    18  H    0.153888
    19  H    0.155507
    20  H    0.159345
    21  C   -0.170547
    22  C   -0.218660
    23  C   -0.170615
    24  C    0.158901
    25  C   -0.170678
    26  C   -0.218621
    27  H    0.225908
    28  H    0.223711
    29  H    0.275969
    30  H    0.275854
    31  H    0.223761
    32  N    0.487791
    33  O   -0.458111
    34  O   -0.459392
 Sum of Mulliken charges =  -0.00000

 Dipole moment (field-independent basis, Debye):
    X=             -1.9375    Y=              4.7457    Z=              0.9078  Tot=              5.2057
 Quadrupole moment (field-independent basis, Debye-Ang):
   XX=            -82.8696   YY=            -95.0050   ZZ=            -93.9338
   XY=            -15.1555   XZ=             -5.0929   YZ=             -2.1081

 Normal termination of Gaussian 16 at Thu May  6 13:48:36 2021.
