 Gaussian 16, Revision A.03,
 Gaussian 16:  EM64L-G16RevA.03 25-Dec-2016

 -------------
 #p 6-31g* mp2
 -------------

 ------------------------------------------------------
 Input file generated by CHIRIPA (05-May-2021 14:51:10)
 ------------------------------------------------------
 Symbolic Z-matrix:
 Charge =  0 Multiplicity = 1

                         Standard orientation:
 ---------------------------------------------------------------------
 Center     Atomic      Atomic             Coordinates (Angstroms)
 Number     Number       Type             X           Y           Z
 ---------------------------------------------------------------------
      1          6           0        2.919059   -0.114153   -0.156353
      2          6           0        4.273076   -0.696844   -0.562670
      3          6           0        4.271576   -2.225366   -0.600263
      4          1           0        2.639684   -0.506365    0.831100
      5          1           0        2.151147   -0.463790   -0.860243
      6          1           0        5.038442   -0.345097    0.140968
      7          1           0        4.549350   -0.303050   -1.549187
      8          1           0        3.528924   -2.592385   -1.316060
      9          1           0        4.020794   -2.634672    0.383698
     10          1           0        5.249255   -2.620712   -0.893016
     11          6           0        2.904716    1.412853   -0.114213
     12          6           0        1.550698    1.995544    0.292104
     13          6           0        1.552199    3.524065    0.329696
     14          1           0        3.672627    1.762489    0.589676
     15          1           0        3.184091    1.805065   -1.101667
     16          1           0        1.274424    1.601749    1.278620
     17          1           0        0.785333    1.643797   -0.411534
     18          1           0        1.802980    3.933372   -0.654264
     19          1           0        2.294851    3.891085    1.045493
     20          1           0        0.574519    3.919412    0.622449
     21          6           0       -3.378252   -0.045766    0.094989
     22          6           0       -4.714704   -0.356101   -0.579972
     23          6           0       -5.636829    0.861330   -0.653065
     24          1           0       -3.566142    0.335037    1.108217
     25          1           0       -2.876771    0.762726   -0.454783
     26          1           0       -5.212884   -1.164715   -0.029903
     27          1           0       -4.523602   -0.736392   -1.591643
     28          1           0       -5.163512    1.669631   -1.219828
     29          1           0       -5.856710    1.238874    0.350784
     30          1           0       -6.586489    0.617042   -1.139201
     31          6           0       -2.445523   -1.252933    0.175577
     32          6           0       -1.109071   -0.942598    0.850539
     33          6           0       -0.186946   -2.160029    0.923631
     34          1           0       -2.947004   -2.061426    0.725350
     35          1           0       -2.257632   -1.633737   -0.837650
     36          1           0       -1.300173   -0.562308    1.862209
     37          1           0       -0.610891   -0.133985    0.300470
     38          1           0        0.032936   -2.537574   -0.080217
     39          1           0       -0.660263   -2.968331    1.490395
     40          1           0        0.762714   -1.915741    1.409768
 ---------------------------------------------------------------------

 SCF Done:  E(RHF) =  -470.731962826     A.U. after   11 cycles
 E2 =    -0.1584696919D+01 EUMP2 =    -0.47231665974454D+03

 The electronic state is 1-A.
 Alpha  occ. eigenvalues --  -11.21621 -11.21605 -11.21575 -11.21426 -11.21413
 Alpha  occ. eigenvalues --  -11.21353 -11.21348 -11.21283 -11.21089 -11.21064
 Alpha  occ. eigenvalues --  -11.21054 -11.20924  -1.08475  -1.08346  -1.03550
 Alpha  occ. eigenvalues --   -1.03455  -0.96007  -0.95898  -0.87042  -0.86900
 Alpha  occ. eigenvalues --   -0.79753  -0.79405  -0.78377  -0.78083  -0.65139
 Alpha  occ. eigenvalues --   -0.64960  -0.60970  -0.60846  -0.59368  -0.59300
 Alpha  occ. eigenvalues --   -0.57682  -0.57463  -0.55285  -0.55205  -0.52730
 Alpha  occ. eigenvalues --   -0.52646  -0.52456  -0.52245  -0.49952  -0.49853
 Alpha  occ. eigenvalues --   -0.48229  -0.47638  -0.46750  -0.46466  -0.46013
 Alpha  occ. eigenvalues --   -0.45731  -0.45685  -0.45231  -0.43794  -0.43678
 Alpha virt. eigenvalues --    0.21228   0.22983   0.23711   0.24178   0.24845
 Alpha virt. eigenvalues --    0.26175   0.27286   0.27706   0.27835   0.29856
 Alpha virt. eigenvalues --    0.30698   0.31277   0.31581   0.31912   0.32257

 Mulliken charges:
               1
     1  C   -0.301700
     2  C   -0.299608
     3  C   -0.475655
     4  H    0.152928
     5  H    0.151211
     6  H    0.151749
     7  H    0.151710
     8  H    0.155257
     9  H    0.155454
    10  H    0.160195
    11  C   -0.297878
    12  C   -0.303329
    13  C   -0.475132
    14  H    0.149417
    15  H    0.149302
    16  H    0.154439
    17  H    0.153307
    18  H    0.154964
    19  H    0.155229
    20  H    0.160579
    21  C   -0.298024
    22  C   -0.299542
    23  C   -0.475658
    24  H    0.149566
    25  H    0.148698
    26  H    0.151976
    27  H    0.151722
    28  H    0.155026
    29  H    0.155133
    30  H    0.160150
    31  C   -0.297699
    32  C   -0.308550
    33  C   -0.476270
    34  H    0.149128
    35  H    0.148682
    36  H    0.150250
    37  H    0.162565
    38  H    0.153987
    39  H    0.153653
    40  H    0.162769
 Sum of Mulliken charges =  -0.00000

 Dipole moment (field-independent basis, Debye):
    X=              0.0546    Y=              0.0309    Z=              0.0015  Tot=              0.0628
 Quadrupole moment (field-independent basis, Debye-Ang):
   XX=            -85.3035   YY=            -86.6646   ZZ=            -83.0022
   XY=              0.8105   XZ=             -0.1377   YZ=             -0.1833

 Normal termination of Gaussian 16 at Thu May  6 03:46:39 2021.
