 Gaussian 16, Revision A.03,
 Gaussian 16:  EM64L-G16RevA.03 25-Dec-2016

 -------------
 #p 6-31g* mp2
 -------------

 ------------------------------------------------------
 Input file generated by CHIRIPA (05-May-2021 14:53:13)
 ------------------------------------------------------
 Symbolic Z-matrix:
 Charge =  0 Multiplicity = 1

                         Standard orientation:
 ---------------------------------------------------------------------
 Center     Atomic      Atomic             Coordinates (Angstroms)
 Number     Number       Type             X           Y           Z
 ---------------------------------------------------------------------
      1          6           0        3.578572    1.062646   -0.595199
      2          6           0        2.132750    1.510230   -0.377823
      3          6           0        1.693683    2.591301   -1.365902
      4          1           0        4.242491    1.933495   -0.507006
      5          1           0        3.688703    0.688397   -1.622430
      6          1           0        2.025047    1.882238    0.649127
      7          1           0        1.472214    0.638180   -0.466354
      8          1           0        1.772632    2.227277   -2.395395
      9          1           0        2.328606    3.478402   -1.273576
     10          1           0        0.657032    2.896524   -1.192542
     11          6           0        4.032156   -0.017767    0.384953
     12          6           0        5.477978   -0.465351    0.167577
     13          6           0        5.917045   -1.546422    1.155656
     14          1           0        3.922024    0.356482    1.412184
     15          1           0        3.368236   -0.888616    0.296760
     16          1           0        6.138514    0.406698    0.256108
     17          1           0        5.585681   -0.837359   -0.859373
     18          1           0        5.282122   -2.433524    1.063330
     19          1           0        5.838096   -1.182398    2.185149
     20          1           0        6.953696   -1.851645    0.982296
     21          6           0       -4.776885    1.149960    0.909159
     22          6           0       -5.093412    0.128638    0.007365
     23          6           0       -4.101969   -0.740529   -0.457543
     24          6           0       -2.798542   -0.558789    0.002173
     25          6           0       -2.451755    0.449226    0.900468
     26          6           0       -3.459390    1.306719    1.352052
     27          1           0       -5.553351    1.820614    1.265136
     28          1           0       -6.115743    0.004533   -0.338298
     29          1           0       -4.319285   -1.539631   -1.155845
     30          1           0       -1.423653    0.548034    1.227059
     31          1           0       -3.210665    2.099007    2.052380
     32          7           0       -1.740374   -1.472756   -0.482952
     33          8           0       -0.599645   -1.291615   -0.062759
     34          8           0       -2.071750   -2.352959   -1.274199
 ---------------------------------------------------------------------

 SCF Done:  E(RHF) =  -669.536368524     A.U. after   15 cycles
 E2 =    -0.2091160232D+01 EUMP2 =    -0.67162752875609D+03

 The electronic state is 1-A.
 Alpha  occ. eigenvalues --  -20.60960 -20.60945 -15.85985 -11.31278 -11.27843
 Alpha  occ. eigenvalues --  -11.27830 -11.27578 -11.26846 -11.26835 -11.20975
 Alpha  occ. eigenvalues --  -11.20815 -11.20695 -11.20608 -11.20598 -11.20497
 Alpha  occ. eigenvalues --   -1.60014  -1.39571  -1.19447  -1.08857  -1.07733
 Alpha  occ. eigenvalues --   -1.04839  -1.02902  -0.95703  -0.95374  -0.86391
 Alpha  occ. eigenvalues --   -0.86241  -0.82540  -0.78958  -0.77639  -0.77484
 Alpha  occ. eigenvalues --   -0.72212  -0.71324  -0.70556  -0.65106  -0.64843
 Alpha  occ. eigenvalues --   -0.64348  -0.62186  -0.60287  -0.58750  -0.56987
 Alpha  occ. eigenvalues --   -0.55347  -0.54657  -0.53173  -0.52930  -0.52097
 Alpha  occ. eigenvalues --   -0.51802  -0.49313  -0.48973  -0.48963  -0.47283
 Alpha  occ. eigenvalues --   -0.45991  -0.45184  -0.45076  -0.44714  -0.43145
 Alpha  occ. eigenvalues --   -0.37426  -0.36440
 Alpha virt. eigenvalues --    0.04897   0.11206   0.16372   0.21175   0.23540
 Alpha virt. eigenvalues --    0.24639   0.26874   0.27348   0.27640   0.28561
 Alpha virt. eigenvalues --    0.28937   0.30781   0.31759   0.32005   0.32394

 Mulliken charges:
               1
     1  C   -0.296834
     2  C   -0.313233
     3  C   -0.474196
     4  H    0.145125
     5  H    0.150483
     6  H    0.142670
     7  H    0.178831
     8  H    0.156771
     9  H    0.151873
    10  H    0.153185
    11  C   -0.300585
    12  C   -0.299229
    13  C   -0.475634
    14  H    0.145457
    15  H    0.161222
    16  H    0.148939
    17  H    0.152241
    18  H    0.157855
    19  H    0.153180
    20  H    0.158057
    21  C   -0.170487
    22  C   -0.218621
    23  C   -0.170801
    24  C    0.158002
    25  C   -0.171511
    26  C   -0.218773
    27  H    0.225978
    28  H    0.223755
    29  H    0.275700
    30  H    0.277720
    31  H    0.224011
    32  N    0.490625
    33  O   -0.462868
    34  O   -0.458908
 Sum of Mulliken charges =  -0.00000

 Dipole moment (field-independent basis, Debye):
    X=             -3.9281    Y=              3.0239    Z=              1.6752  Tot=              5.2327
 Quadrupole moment (field-independent basis, Debye-Ang):
   XX=            -72.6178   YY=            -98.3165   ZZ=            -93.8583
   XY=             -5.0439   XZ=             -2.9812   YZ=              1.8099

 Normal termination of Gaussian 16 at Thu May  6 18:43:09 2021.
