 Gaussian 16, Revision A.03,
 Gaussian 16:  EM64L-G16RevA.03 25-Dec-2016

 -------------
 #p 6-31g* mp2
 -------------

 ------------------------------------------------------
 Input file generated by CHIRIPA (05-May-2021 14:53:15)
 ------------------------------------------------------
 Symbolic Z-matrix:
 Charge =  0 Multiplicity = 1

                         Standard orientation:
 ---------------------------------------------------------------------
 Center     Atomic      Atomic             Coordinates (Angstroms)
 Number     Number       Type             X           Y           Z
 ---------------------------------------------------------------------
      1          6           0        2.400522    0.730084   -0.179214
      2          6           0        2.222132    1.821135   -1.235514
      3          6           0        0.852148    2.496139   -1.162660
      4          1           0        1.611472   -0.024180   -0.303442
      5          1           0        2.259413    1.168668    0.818347
      6          1           0        2.364902    1.380909   -2.230719
      7          1           0        3.011811    2.572790   -1.108878
      8          1           0        0.703542    2.961392   -0.182835
      9          1           0        0.052957    1.762739   -1.311050
     10          1           0        0.746091    3.272714   -1.926560
     11          6           0        3.765125    0.045999   -0.239318
     12          6           0        3.943515   -1.045052    0.816982
     13          6           0        5.313499   -1.720057    0.744128
     14          1           0        3.906234   -0.392586   -1.236878
     15          1           0        4.554174    0.800262   -0.115090
     16          1           0        3.153835   -1.796708    0.690346
     17          1           0        3.800745   -0.604827    1.812188
     18          1           0        6.112690   -0.986657    0.892518
     19          1           0        5.462105   -2.185310   -0.235697
     20          1           0        5.419556   -2.496631    1.508028
     21          6           0       -2.333313    1.407178    2.016873
     22          6           0       -2.334426    0.042422    2.323404
     23          6           0       -2.375866   -0.914071    1.304603
     24          6           0       -2.415720   -0.468506   -0.015690
     25          6           0       -2.415726    0.884058   -0.353124
     26          6           0       -2.373895    1.822907    0.681940
     27          1           0       -2.300970    2.143352    2.814619
     28          1           0       -2.302963   -0.283340    3.359229
     29          1           0       -2.377711   -1.976952    1.513646
     30          1           0       -2.447654    1.178227   -1.395172
     31          1           0       -2.373134    2.882130    0.440923
     32          7           0       -2.459798   -1.471763   -1.102857
     33          8           0       -2.494433   -1.053414   -2.258028
     34          8           0       -2.458876   -2.657468   -0.779222
 ---------------------------------------------------------------------

 SCF Done:  E(RHF) =  -669.534556862     A.U. after   15 cycles
 E2 =    -0.2092901026D+01 EUMP2 =    -0.67162745788829D+03

 The electronic state is 1-A.
 Alpha  occ. eigenvalues --  -20.60808 -20.60802 -15.85861 -11.31211 -11.27761
 Alpha  occ. eigenvalues --  -11.27749 -11.27495 -11.26776 -11.26750 -11.21711
 Alpha  occ. eigenvalues --  -11.21603 -11.21449 -11.21367 -11.21304 -11.21047
 Alpha  occ. eigenvalues --   -1.59885  -1.39439  -1.19379  -1.08773  -1.08478
 Alpha  occ. eigenvalues --   -1.04783  -1.03603  -0.96077  -0.95611  -0.87103
 Alpha  occ. eigenvalues --   -0.86176  -0.82444  -0.79686  -0.78288  -0.77488
 Alpha  occ. eigenvalues --   -0.72077  -0.71212  -0.70491  -0.65117  -0.65024
 Alpha  occ. eigenvalues --   -0.64770  -0.62141  -0.60997  -0.59441  -0.57695
 Alpha  occ. eigenvalues --   -0.55396  -0.55260  -0.53267  -0.52863  -0.52775
 Alpha  occ. eigenvalues --   -0.52363  -0.50003  -0.48835  -0.48834  -0.47984
 Alpha  occ. eigenvalues --   -0.46697  -0.45829  -0.45744  -0.44843  -0.43859
 Alpha  occ. eigenvalues --   -0.37352  -0.36270
 Alpha virt. eigenvalues --    0.05021   0.11161   0.16504   0.21162   0.22827
 Alpha virt. eigenvalues --    0.24241   0.26433   0.26494   0.27512   0.28065
 Alpha virt. eigenvalues --    0.28774   0.30185   0.31446   0.31733   0.32024

 Mulliken charges:
               1
     1  C   -0.297840
     2  C   -0.299417
     3  C   -0.479795
     4  H    0.151885
     5  H    0.146385
     6  H    0.156044
     7  H    0.151062
     8  H    0.149183
     9  H    0.159360
    10  H    0.158545
    11  C   -0.298656
    12  C   -0.299941
    13  C   -0.475769
    14  H    0.152178
    15  H    0.148686
    16  H    0.154192
    17  H    0.149376
    18  H    0.154408
    19  H    0.156905
    20  H    0.160065
    21  C   -0.171983
    22  C   -0.217813
    23  C   -0.171430
    24  C    0.158368
    25  C   -0.174156
    26  C   -0.212217
    27  H    0.225492
    28  H    0.223444
    29  H    0.275490
    30  H    0.276290
    31  H    0.224876
    32  N    0.488052
    33  O   -0.460981
    34  O   -0.460287
 Sum of Mulliken charges =  -0.00000

 Dipole moment (field-independent basis, Debye):
    X=              0.1463    Y=              3.4875    Z=              3.8193  Tot=              5.1741
 Quadrupole moment (field-independent basis, Debye-Ang):
   XX=            -97.0915   YY=            -95.7478   ZZ=            -92.4871
   XY=             -8.1857   XZ=             -9.2975   YZ=             -4.1191

 Normal termination of Gaussian 16 at Thu May  6 09:00:52 2021.
