 Gaussian 16, Revision A.03,
 Gaussian 16:  EM64L-G16RevA.03 25-Dec-2016

 -------------
 #p 6-31g* mp2
 -------------

 ------------------------------------------------------
 Input file generated by CHIRIPA (05-May-2021 14:53:13)
 ------------------------------------------------------
 Symbolic Z-matrix:
 Charge =  0 Multiplicity = 1

                         Standard orientation:
 ---------------------------------------------------------------------
 Center     Atomic      Atomic             Coordinates (Angstroms)
 Number     Number       Type             X           Y           Z
 ---------------------------------------------------------------------
      1          6           0       -2.602679   -0.137194   -0.114350
      2          6           0       -3.831087   -1.044160   -0.194415
      3          6           0       -3.475055   -2.529364   -0.122260
      4          1           0       -1.913730   -0.390688   -0.931683
      5          1           0       -2.065261   -0.341296    0.822090
      6          1           0       -4.366791   -0.837433   -1.129777
      7          1           0       -4.517280   -0.788349    0.623090
      8          1           0       -2.960481   -2.756976    0.816892
      9          1           0       -2.809137   -2.806338   -0.945934
     10          1           0       -4.367926   -3.159569   -0.181269
     11          6           0       -2.942405    1.350522   -0.185175
     12          6           0       -1.713997    2.257488   -0.105109
     13          6           0       -2.070029    3.742691   -0.177264
     14          1           0       -3.479823    1.554623   -1.121615
     15          1           0       -3.631354    1.604015    0.632159
     16          1           0       -1.027804    2.001676   -0.922615
     17          1           0       -1.178293    2.050760    0.830252
     18          1           0       -2.735947    4.019666    0.646410
     19          1           0       -2.584603    3.970303   -1.116417
     20          1           0       -1.177158    4.372897   -0.118256
     21          6           0        0.687652   -2.505909    0.343796
     22          6           0        1.672018   -2.463734   -0.649062
     23          6           0        2.496864   -1.343027   -0.783940
     24          6           0        2.308975   -0.277514    0.095076
     25          6           0        1.337083   -0.289556    1.094363
     26          6           0        0.523616   -1.420599    1.210811
     27          1           0        0.051310   -3.380515    0.441415
     28          1           0        1.801672   -3.305138   -1.323802
     29          1           0        3.266743   -1.283924   -1.543685
     30          1           0        1.231673    0.564604    1.752175
     31          1           0       -0.240036   -1.450580    1.982810
     32          7           0        3.176180    0.914399   -0.037958
     33          8           0        2.990525    1.840110    0.748953
     34          8           0        4.025130    0.900340   -0.926623
 ---------------------------------------------------------------------

 SCF Done:  E(RHF) =  -669.534124753     A.U. after   15 cycles
 E2 =    -0.2094246439D+01 EUMP2 =    -0.67162837119163D+03

 The electronic state is 1-A.
 Alpha  occ. eigenvalues --  -20.60749 -20.60744 -15.85802 -11.31163 -11.27714
 Alpha  occ. eigenvalues --  -11.27704 -11.27428 -11.26747 -11.26723 -11.22195
 Alpha  occ. eigenvalues --  -11.21961 -11.21805 -11.21752 -11.21645 -11.21036
 Alpha  occ. eigenvalues --   -1.59824  -1.39378  -1.19330  -1.08851  -1.08702
 Alpha  occ. eigenvalues --   -1.04738  -1.03922  -0.96381  -0.95557  -0.87407
 Alpha  occ. eigenvalues --   -0.86139  -0.82401  -0.80005  -0.78641  -0.77431
 Alpha  occ. eigenvalues --   -0.72021  -0.71146  -0.70421  -0.65520  -0.64981
 Alpha  occ. eigenvalues --   -0.64734  -0.62090  -0.61324  -0.59764  -0.57980
 Alpha  occ. eigenvalues --   -0.55702  -0.55220  -0.53230  -0.52982  -0.52894
 Alpha  occ. eigenvalues --   -0.52706  -0.50345  -0.48782  -0.48775  -0.48309
 Alpha  occ. eigenvalues --   -0.47035  -0.46150  -0.46055  -0.44782  -0.44149
 Alpha  occ. eigenvalues --   -0.37263  -0.36237
 Alpha virt. eigenvalues --    0.05049   0.11233   0.16435   0.19589   0.22947
 Alpha virt. eigenvalues --    0.23494   0.25174   0.26443   0.26728   0.28186
 Alpha virt. eigenvalues --    0.29843   0.30225   0.31099   0.31342   0.31900

 Mulliken charges:
               1
     1  C   -0.297246
     2  C   -0.299635
     3  C   -0.475836
     4  H    0.153522
     5  H    0.141809
     6  H    0.154899
     7  H    0.152819
     8  H    0.145098
     9  H    0.154196
    10  H    0.163733
    11  C   -0.298942
    12  C   -0.298372
    13  C   -0.476932
    14  H    0.150833
    15  H    0.148849
    16  H    0.154934
    17  H    0.147182
    18  H    0.153883
    19  H    0.155193
    20  H    0.167170
    21  C   -0.171307
    22  C   -0.219421
    23  C   -0.171638
    24  C    0.157965
    25  C   -0.169616
    26  C   -0.213390
    27  H    0.227511
    28  H    0.223267
    29  H    0.275251
    30  H    0.275131
    31  H    0.222213
    32  N    0.488060
    33  O   -0.460495
    34  O   -0.460688
 Sum of Mulliken charges =  -0.00000

 Dipole moment (field-independent basis, Debye):
    X=             -3.0831    Y=             -4.1053    Z=              0.3828  Tot=              5.1484
 Quadrupole moment (field-independent basis, Debye-Ang):
   XX=           -108.4769   YY=            -93.0846   ZZ=            -91.0706
   XY=            -10.0458   XZ=             -1.1934   YZ=              1.4611

 Normal termination of Gaussian 16 at Thu May  6 10:29:04 2021.
