 Gaussian 16, Revision A.03,
 Gaussian 16:  EM64L-G16RevA.03 25-Dec-2016

 -------------
 #p 6-31g* mp2
 -------------

 ------------------------------------------------------
 Input file generated by CHIRIPA (05-May-2021 14:51:12)
 ------------------------------------------------------
 Symbolic Z-matrix:
 Charge =  0 Multiplicity = 1

                         Standard orientation:
 ---------------------------------------------------------------------
 Center     Atomic      Atomic             Coordinates (Angstroms)
 Number     Number       Type             X           Y           Z
 ---------------------------------------------------------------------
      1          6           0        2.630741   -0.268111   -0.331221
      2          6           0        3.452039    1.015114   -0.460791
      3          6           0        4.080874    1.177271   -1.845012
      4          1           0        3.275068   -1.131565   -0.546247
      5          1           0        1.841598   -0.268878   -1.095843
      6          1           0        4.238535    1.014102    0.304740
      7          1           0        2.805728    1.875602   -0.245245
      8          1           0        3.306994    1.204110   -2.618957
      9          1           0        4.747942    0.337716   -2.065847
     10          1           0        4.663442    2.101118   -1.915583
     11          6           0        1.995728   -0.444392    1.046970
     12          6           0        1.174430   -1.727618    1.176541
     13          6           0        0.545595   -1.889775    2.560761
     14          1           0        2.784871   -0.443626    1.811592
     15          1           0        1.351401    0.419061    1.261996
     16          1           0        1.820741   -2.588105    0.960994
     17          1           0        0.387934   -1.726605    0.411009
     18          1           0       -0.121473   -1.050219    2.781596
     19          1           0        1.319475   -1.916614    3.334706
     20          1           0       -0.036973   -2.813622    2.631332
     21          6           0       -2.624149    1.042594   -0.232582
     22          6           0       -1.745373    1.960204    0.618140
     23          6           0       -2.380945    3.329620    0.860094
     24          1           0       -2.826919    1.529719   -1.196189
     25          1           0       -3.596202    0.914231    0.263434
     26          1           0       -0.774769    2.085685    0.121353
     27          1           0       -1.544514    1.470754    1.579759
     28          1           0       -3.340175    3.223224    1.376967
     29          1           0       -2.566057    3.841649   -0.089728
     30          1           0       -1.735880    3.969432    1.470333
     31          6           0       -2.002319   -0.330090   -0.483167
     32          6           0       -2.881096   -1.247700   -1.333890
     33          6           0       -2.245524   -2.617116   -1.575843
     34          1           0       -1.030267   -0.201727   -0.979182
     35          1           0       -1.799550   -0.817216    0.480441
     36          1           0       -3.081954   -0.758251   -2.295509
     37          1           0       -3.851700   -1.373181   -0.837101
     38          1           0       -2.060412   -3.129145   -0.626022
     39          1           0       -1.286293   -2.510720   -2.092716
     40          1           0       -2.890589   -3.256929   -2.186081
 ---------------------------------------------------------------------

 SCF Done:  E(RHF) =  -470.732240762     A.U. after   11 cycles
 E2 =    -0.1585640872D+01 EUMP2 =    -0.47231788163415D+03

 The electronic state is 1-A.
 Alpha  occ. eigenvalues --  -11.21724 -11.21678 -11.21587 -11.21491 -11.21429
 Alpha  occ. eigenvalues --  -11.21377 -11.21350 -11.21243 -11.21153 -11.21137
 Alpha  occ. eigenvalues --  -11.21071 -11.21031  -1.08564  -1.08333  -1.03631
 Alpha  occ. eigenvalues --   -1.03464  -0.96069  -0.95935  -0.87088  -0.86949
 Alpha  occ. eigenvalues --   -0.79754  -0.79498  -0.78441  -0.78103  -0.65173
 Alpha  occ. eigenvalues --   -0.64998  -0.61026  -0.60896  -0.59485  -0.59255
 Alpha  occ. eigenvalues --   -0.57682  -0.57535  -0.55420  -0.55171  -0.52758
 Alpha  occ. eigenvalues --   -0.52631  -0.52509  -0.52349  -0.50007  -0.49888
 Alpha  occ. eigenvalues --   -0.48148  -0.47855  -0.46757  -0.46605  -0.46191
 Alpha  occ. eigenvalues --   -0.45785  -0.45600  -0.45113  -0.43875  -0.43715
 Alpha virt. eigenvalues --    0.19750   0.22264   0.22778   0.23815   0.25172
 Alpha virt. eigenvalues --    0.26243   0.27118   0.27578   0.29075   0.29885
 Alpha virt. eigenvalues --    0.30847   0.31362   0.31488   0.31782   0.32264

 Mulliken charges:
               1
     1  C   -0.300274
     2  C   -0.299816
     3  C   -0.475589
     4  H    0.149776
     5  H    0.149668
     6  H    0.152205
     7  H    0.151603
     8  H    0.154587
     9  H    0.155305
    10  H    0.160223
    11  C   -0.301439
    12  C   -0.307945
    13  C   -0.477888
    14  H    0.148905
    15  H    0.153724
    16  H    0.150752
    17  H    0.163707
    18  H    0.154861
    19  H    0.155359
    20  H    0.159094
    21  C   -0.297285
    22  C   -0.303087
    23  C   -0.475761
    24  H    0.149833
    25  H    0.149996
    26  H    0.152848
    27  H    0.153089
    28  H    0.155629
    29  H    0.155542
    30  H    0.160697
    31  C   -0.307879
    32  C   -0.299024
    33  C   -0.477659
    34  H    0.152405
    35  H    0.156680
    36  H    0.151993
    37  H    0.152232
    38  H    0.156345
    39  H    0.155715
    40  H    0.160874
 Sum of Mulliken charges =  -0.00000

 Dipole moment (field-independent basis, Debye):
    X=             -0.0773    Y=              0.0113    Z=             -0.0247  Tot=              0.0819
 Quadrupole moment (field-independent basis, Debye-Ang):
   XX=            -84.2311   YY=            -85.5355   ZZ=            -85.0208
   XY=             -0.0127   XZ=              0.4581   YZ=             -0.3942

 Normal termination of Gaussian 16 at Wed May  5 19:54:15 2021.
