 Gaussian 16, Revision A.03,
 Gaussian 16:  EM64L-G16RevA.03 25-Dec-2016

 -------------
 #p 6-31g* mp2
 -------------

 ------------------------------------------------------
 Input file generated by CHIRIPA (05-May-2021 14:53:12)
 ------------------------------------------------------
 Symbolic Z-matrix:
 Charge =  0 Multiplicity = 1

                         Standard orientation:
 ---------------------------------------------------------------------
 Center     Atomic      Atomic             Coordinates (Angstroms)
 Number     Number       Type             X           Y           Z
 ---------------------------------------------------------------------
      1          6           0        3.982400   -0.708166   -0.258427
      2          6           0        4.706749   -1.849552    0.456093
      3          6           0        4.350047   -3.223515   -0.112046
      4          1           0        2.897897   -0.867049   -0.183900
      5          1           0        4.230018   -0.739022   -1.328534
      6          1           0        4.458933   -1.815713    1.524765
      7          1           0        5.789651   -1.687832    0.380022
      8          1           0        4.613370   -3.281824   -1.173113
      9          1           0        3.275091   -3.410432   -0.021866
     10          1           0        4.878979   -4.024829    0.413299
     11          6           0        4.328686    0.671658    0.298260
     12          6           0        3.604337    1.813045   -0.416261
     13          6           0        3.961039    3.187008    0.151879
     14          1           0        4.081069    0.702514    1.368367
     15          1           0        5.413189    0.830542    0.223733
     16          1           0        2.521436    1.651324   -0.340189
     17          1           0        3.852154    1.779206   -1.484932
     18          1           0        5.035995    3.373924    0.061699
     19          1           0        3.697716    3.245316    1.212946
     20          1           0        3.432107    3.988321   -0.373467
     21          6           0       -0.802581    0.625082   -0.156952
     22          6           0       -1.191754   -0.717922   -0.194417
     23          6           0       -2.543042   -1.067998   -0.116834
     24          6           0       -3.482789   -0.044791   -0.001890
     25          6           0       -3.126506    1.302337    0.038072
     26          6           0       -1.769494    1.629155   -0.041031
     27          1           0        0.249354    0.887996   -0.217811
     28          1           0       -0.443021   -1.499810   -0.284391
     29          1           0       -2.872086   -2.099713   -0.143514
     30          1           0       -3.895891    2.059518    0.128300
     31          1           0       -1.470166    2.672988   -0.011691
     32          7           0       -4.916366   -0.403091    0.081048
     33          8           0       -5.724858    0.517136    0.181860
     34          8           0       -5.204367   -1.597366    0.043673
 ---------------------------------------------------------------------

 SCF Done:  E(RHF) =  -669.535498329     A.U. after   15 cycles
 E2 =    -0.2091354646D+01 EUMP2 =    -0.67162685297518D+03

 The electronic state is 1-A.
 Alpha  occ. eigenvalues --  -20.60738 -20.60733 -15.85792 -11.31154 -11.27727
 Alpha  occ. eigenvalues --  -11.27723 -11.27447 -11.26740 -11.26729 -11.22809
 Alpha  occ. eigenvalues --  -11.22469 -11.22412 -11.22368 -11.22042 -11.21833
 Alpha  occ. eigenvalues --   -1.59814  -1.39367  -1.19327  -1.09443  -1.08721
 Alpha  occ. eigenvalues --   -1.04732  -1.04490  -0.96913  -0.95559  -0.87928
 Alpha  occ. eigenvalues --   -0.86128  -0.82395  -0.80567  -0.79262  -0.77438
 Alpha  occ. eigenvalues --   -0.72010  -0.71137  -0.70458  -0.66079  -0.64979
 Alpha  occ. eigenvalues --   -0.64733  -0.62082  -0.61893  -0.60291  -0.58530
 Alpha  occ. eigenvalues --   -0.56196  -0.55260  -0.53591  -0.53330  -0.53060
 Alpha  occ. eigenvalues --   -0.52824  -0.50855  -0.48876  -0.48765  -0.48759
 Alpha  occ. eigenvalues --   -0.47605  -0.46803  -0.46698  -0.44773  -0.44750
 Alpha  occ. eigenvalues --   -0.37305  -0.36338
 Alpha virt. eigenvalues --    0.05099   0.11316   0.16591   0.18195   0.22680
 Alpha virt. eigenvalues --    0.22899   0.24824   0.26173   0.26594   0.27062
 Alpha virt. eigenvalues --    0.29366   0.30416   0.30872   0.31093   0.32066

 Mulliken charges:
               1
     1  C   -0.297337
     2  C   -0.300689
     3  C   -0.475421
     4  H    0.139033
     5  H    0.152550
     6  H    0.153591
     7  H    0.155221
     8  H    0.156920
     9  H    0.151542
    10  H    0.163924
    11  C   -0.298859
    12  C   -0.305906
    13  C   -0.476042
    14  H    0.151274
    15  H    0.154448
    16  H    0.143445
    17  H    0.156345
    18  H    0.159821
    19  H    0.156597
    20  H    0.160895
    21  C   -0.179558
    22  C   -0.222978
    23  C   -0.170519
    24  C    0.158227
    25  C   -0.170617
    26  C   -0.222595
    27  H    0.240897
    28  H    0.224093
    29  H    0.275521
    30  H    0.275531
    31  H    0.223732
    32  N    0.487929
    33  O   -0.460513
    34  O   -0.460502
 Sum of Mulliken charges =  -0.00000

 Dipole moment (field-independent basis, Debye):
    X=              5.3536    Y=              1.2735    Z=             -0.2810  Tot=              5.5102
 Quadrupole moment (field-independent basis, Debye-Ang):
   XX=           -128.2445   YY=            -90.9400   ZZ=            -95.2529
   XY=             -6.0435   XZ=              0.3884   YZ=             -0.0038

 Normal termination of Gaussian 16 at Wed May  5 18:31:56 2021.
