 Gaussian 16, Revision A.03,
 Gaussian 16:  EM64L-G16RevA.03 25-Dec-2016

 -------------
 #p 6-31g* mp2
 -------------

 ------------------------------------------------------
 Input file generated by CHIRIPA (05-May-2021 14:55:21)
 ------------------------------------------------------
 Symbolic Z-matrix:
 Charge =  0 Multiplicity = 1

                         Standard orientation:
 ---------------------------------------------------------------------
 Center     Atomic      Atomic             Coordinates (Angstroms)
 Number     Number       Type             X           Y           Z
 ---------------------------------------------------------------------
      1          6           0        0.809366   -1.876131    0.963666
      2          6           0        1.435876   -1.006844    1.862746
      3          6           0        2.359247   -0.060348    1.408786
      4          6           0        2.633717   -0.010566    0.042961
      5          6           0        2.026011   -0.862890   -0.877652
      6          6           0        1.105910   -1.801512   -0.401257
      7          1           0        0.093339   -2.608333    1.325026
      8          1           0        1.207517   -1.062522    2.923310
      9          1           0        2.858831    0.624775    2.082908
     10          1           0        2.274102   -0.783448   -1.929107
     11          1           0        0.620880   -2.475338   -1.101792
     12          7           0        3.609518    0.987278   -0.449502
     13          8           0        3.834061    1.010925   -1.657665
     14          8           0        4.131330    1.726848    0.381994
     15          6           0       -3.079549    0.942231   -0.404366
     16          6           0       -3.683590    1.982046    0.540043
     17          6           0       -3.504036    3.414094    0.035273
     18          1           0       -2.009809    1.154332   -0.537082
     19          1           0       -3.543586    1.043632   -1.395215
     20          1           0       -3.219541    1.877801    1.529188
     21          1           0       -4.751975    1.767332    0.670677
     22          1           0       -3.982603    3.541240   -0.941153
     23          1           0       -2.441462    3.652337   -0.077764
     24          1           0       -3.943159    4.141104    0.725555
     25          6           0       -3.251059   -0.494173    0.086607
     26          6           0       -2.647019   -1.533987   -0.857801
     27          6           0       -2.826571   -2.966035   -0.353032
     28          1           0       -2.787022   -0.595572    1.077457
     29          1           0       -4.320799   -0.706272    0.219323
     30          1           0       -1.578632   -1.319273   -0.988435
     31          1           0       -3.111066   -1.429742   -1.846947
     32          1           0       -3.889146   -3.204277   -0.239995
     33          1           0       -2.348004   -3.093181    0.623395
     34          1           0       -2.387449   -3.693045   -1.043314
 ---------------------------------------------------------------------

 SCF Done:  E(RHF) =  -669.534633531     A.U. after   15 cycles
 E2 =    -0.2093516205D+01 EUMP2 =    -0.67162814973585D+03

 The electronic state is 1-A.
 Alpha  occ. eigenvalues --  -20.60824 -20.60818 -15.85878 -11.31270 -11.27837
 Alpha  occ. eigenvalues --  -11.27831 -11.27563 -11.26854 -11.26830 -11.22278
 Alpha  occ. eigenvalues --  -11.22145 -11.21968 -11.21902 -11.21739 -11.21245
 Alpha  occ. eigenvalues --   -1.59899  -1.39451  -1.19449  -1.08978  -1.08809
 Alpha  occ. eigenvalues --   -1.04860  -1.04089  -0.96555  -0.95660  -0.87563
 Alpha  occ. eigenvalues --   -0.86253  -0.82497  -0.80165  -0.78724  -0.77538
 Alpha  occ. eigenvalues --   -0.72095  -0.71223  -0.70560  -0.65670  -0.65087
 Alpha  occ. eigenvalues --   -0.64820  -0.62241  -0.61444  -0.59950  -0.58145
 Alpha  occ. eigenvalues --   -0.55916  -0.55277  -0.53270  -0.53194  -0.52959
 Alpha  occ. eigenvalues --   -0.52929  -0.50480  -0.48859  -0.48848  -0.48467
 Alpha  occ. eigenvalues --   -0.47183  -0.46270  -0.46163  -0.44851  -0.44314
 Alpha  occ. eigenvalues --   -0.37381  -0.36414
 Alpha virt. eigenvalues --    0.04973   0.11080   0.16363   0.19549   0.22819
 Alpha virt. eigenvalues --    0.24097   0.25272   0.26192   0.26746   0.27854
 Alpha virt. eigenvalues --    0.29042   0.30070   0.31258   0.31766   0.32375

 Mulliken charges:
               1
     1  C   -0.171302
     2  C   -0.219466
     3  C   -0.170681
     4  C    0.158401
     5  C   -0.172783
     6  C   -0.220815
     7  H    0.230324
     8  H    0.223943
     9  H    0.275901
    10  H    0.276215
    11  H    0.227189
    12  N    0.488048
    13  O   -0.460060
    14  O   -0.460224
    15  C   -0.299616
    16  C   -0.299805
    17  C   -0.476342
    18  H    0.153199
    19  H    0.150605
    20  H    0.150895
    21  H    0.151816
    22  H    0.155913
    23  H    0.157691
    24  H    0.161058
    25  C   -0.296299
    26  C   -0.309062
    27  C   -0.479074
    28  H    0.145772
    29  H    0.150767
    30  H    0.156821
    31  H    0.154852
    32  H    0.162075
    33  H    0.146392
    34  H    0.157650
 Sum of Mulliken charges =  -0.00000

 Dipole moment (field-independent basis, Debye):
    X=             -3.4583    Y=             -3.4222    Z=              1.7034  Tot=              5.1549
 Quadrupole moment (field-independent basis, Debye-Ang):
   XX=           -112.5746   YY=            -96.0343   ZZ=            -90.1098
   XY=             -9.1758   XZ=              5.7595   YZ=              1.8877

 Normal termination of Gaussian 16 at Wed May  5 22:15:15 2021.
