 Gaussian 16, Revision A.03,
 Gaussian 16:  EM64L-G16RevA.03 25-Dec-2016

 -------------
 #p 6-31g* mp2
 -------------

 ------------------------------------------------------
 Input file generated by CHIRIPA (05-May-2021 14:51:09)
 ------------------------------------------------------
 Symbolic Z-matrix:
 Charge =  0 Multiplicity = 1

                         Standard orientation:
 ---------------------------------------------------------------------
 Center     Atomic      Atomic             Coordinates (Angstroms)
 Number     Number       Type             X           Y           Z
 ---------------------------------------------------------------------
      1          6           0        4.720594   -0.655666    0.198447
      2          6           0        5.787894   -0.284504   -0.831647
      3          6           0        6.829569   -1.386579   -1.026937
      4          1           0        5.207449   -0.876252    1.158269
      5          1           0        4.221097   -1.581564   -0.118746
      6          1           0        6.284286    0.641171   -0.513311
      7          1           0        5.298426   -0.064590   -1.789078
      8          1           0        6.352800   -2.311268   -1.367879
      9          1           0        7.344261   -1.601497   -0.084863
     10          1           0        7.582907   -1.100286   -1.767463
     11          6           0        3.672113    0.436061    0.404719
     12          6           0        2.604813    0.064899    1.434813
     13          6           0        1.563138    1.166974    1.630103
     14          1           0        4.171610    1.361959    0.721912
     15          1           0        3.185259    0.656647   -0.555103
     16          1           0        3.094281   -0.155015    2.392245
     17          1           0        2.108422   -0.860776    1.116477
     18          1           0        1.048446    1.381892    0.688029
     19          1           0        2.039907    2.091663    1.971045
     20          1           0        0.809800    0.880681    2.370630
     21          6           0       -3.455239    0.282186   -0.368411
     22          6           0       -3.203103    1.748838   -0.719613
     23          6           0       -1.715718    2.078247   -0.849870
     24          1           0       -2.941585    0.043645    0.572972
     25          1           0       -3.003815   -0.355466   -1.141076
     26          1           0       -3.656065    2.383566    0.052763
     27          1           0       -3.717577    1.983966   -1.660170
     28          1           0       -1.253558    1.469579   -1.633792
     29          1           0       -1.191698    1.871450    0.088873
     30          1           0       -1.558363    3.131760   -1.101289
     31          6           0       -4.937467   -0.062580   -0.234755
     32          6           0       -5.189603   -1.529233    0.116446
     33          6           0       -6.676989   -1.858642    0.246704
     34          1           0       -5.388892    0.575071    0.537909
     35          1           0       -5.451123    0.175959   -1.176138
     36          1           0       -4.675131   -1.764361    1.057003
     37          1           0       -4.736642   -2.163962   -0.655929
     38          1           0       -7.201009   -1.651845   -0.692038
     39          1           0       -7.139148   -1.249974    1.030625
     40          1           0       -6.834345   -2.912155    0.498123
 ---------------------------------------------------------------------

 SCF Done:  E(RHF) =  -470.733183983     A.U. after   11 cycles
 E2 =    -0.1582288606D+01 EUMP2 =    -0.47231547258940D+03

 The electronic state is 1-A.
 Alpha  occ. eigenvalues --  -11.21599 -11.21586 -11.21585 -11.21574 -11.21397
 Alpha  occ. eigenvalues --  -11.21383 -11.21338 -11.21323 -11.21069 -11.21060
 Alpha  occ. eigenvalues --  -11.21023 -11.21017  -1.08422  -1.08406  -1.03533
 Alpha  occ. eigenvalues --   -1.03494  -0.96007  -0.95925  -0.87051  -0.86920
 Alpha  occ. eigenvalues --   -0.79647  -0.79514  -0.78245  -0.78209  -0.65070
 Alpha  occ. eigenvalues --   -0.65022  -0.61004  -0.60834  -0.59343  -0.59320
 Alpha  occ. eigenvalues --   -0.57644  -0.57522  -0.55424  -0.55106  -0.52697
 Alpha  occ. eigenvalues --   -0.52658  -0.52511  -0.52249  -0.50089  -0.49720
 Alpha  occ. eigenvalues --   -0.48005  -0.47776  -0.46712  -0.46479  -0.45819
 Alpha  occ. eigenvalues --   -0.45728  -0.45705  -0.45621  -0.43776  -0.43763
 Alpha virt. eigenvalues --    0.22502   0.22980   0.23699   0.24717   0.26164
 Alpha virt. eigenvalues --    0.26604   0.27014   0.27517   0.27757   0.28964
 Alpha virt. eigenvalues --    0.30770   0.31216   0.31703   0.31820   0.32187

 Mulliken charges:
               1
     1  C   -0.298302
     2  C   -0.299641
     3  C   -0.475692
     4  H    0.149579
     5  H    0.149486
     6  H    0.151920
     7  H    0.151955
     8  H    0.155144
     9  H    0.155148
    10  H    0.160208
    11  C   -0.298566
    12  C   -0.299313
    13  C   -0.481983
    14  H    0.149481
    15  H    0.150131
    16  H    0.151647
    17  H    0.151962
    18  H    0.162976
    19  H    0.155139
    20  H    0.158812
    21  C   -0.298312
    22  C   -0.299497
    23  C   -0.481851
    24  H    0.149822
    25  H    0.149202
    26  H    0.152003
    27  H    0.151710
    28  H    0.153895
    29  H    0.162692
    30  H    0.160310
    31  C   -0.298283
    32  C   -0.299634
    33  C   -0.475700
    34  H    0.149568
    35  H    0.149629
    36  H    0.151932
    37  H    0.151828
    38  H    0.155169
    39  H    0.155206
    40  H    0.160221
 Sum of Mulliken charges =  -0.00000

 Dipole moment (field-independent basis, Debye):
    X=              0.0013    Y=              0.0110    Z=              0.0005  Tot=              0.0110
 Quadrupole moment (field-independent basis, Debye-Ang):
   XX=            -86.2987   YY=            -85.2220   ZZ=            -83.3655
   XY=              0.4358   XZ=              0.7587   YZ=              0.4420

 Normal termination of Gaussian 16 at Thu May  6 00:34:02 2021.
