 Gaussian 16, Revision A.03,
 Gaussian 16:  EM64L-G16RevA.03 25-Dec-2016

 -------------
 #p 6-31g* mp2
 -------------

 ------------------------------------------------------
 Input file generated by CHIRIPA (05-May-2021 14:51:08)
 ------------------------------------------------------
 Symbolic Z-matrix:
 Charge =  0 Multiplicity = 1

                         Standard orientation:
 ---------------------------------------------------------------------
 Center     Atomic      Atomic             Coordinates (Angstroms)
 Number     Number       Type             X           Y           Z
 ---------------------------------------------------------------------
      1          6           0        2.665737   -0.821262    0.573024
      2          6           0        2.040845   -0.183154    1.814117
      3          6           0        0.838603   -0.967628    2.340434
      4          1           0        1.903719   -0.899225   -0.214500
      5          1           0        2.973520   -1.848446    0.812937
      6          1           0        1.735589    0.842991    1.572326
      7          1           0        2.804489   -0.106526    2.598714
      8          1           0        1.131823   -1.987684    2.608966
      9          1           0        0.056849   -1.032773    1.576746
     10          1           0        0.407368   -0.493863    3.227813
     11          6           0        3.868735   -0.048526    0.035062
     12          6           0        4.493627   -0.686635   -1.206031
     13          6           0        5.695868    0.097840   -1.732348
     14          1           0        3.560952    0.978658   -0.204850
     15          1           0        4.630753    0.029437    0.822586
     16          1           0        3.729982   -0.763263   -1.990627
     17          1           0        4.798883   -1.712779   -0.964240
     18          1           0        6.477622    0.162985   -0.968660
     19          1           0        5.402649    1.117896   -2.000880
     20          1           0        6.127104   -0.375926   -2.619727
     21          6           0       -3.436360   -0.292964   -0.462321
     22          6           0       -4.939122   -0.573731   -0.491670
     23          6           0       -5.261554   -2.034122   -0.809617
     24          1           0       -3.000282   -0.563113   -1.433816
     25          1           0       -2.963119   -0.944979    0.284881
     26          1           0       -5.409589    0.079598   -1.237618
     27          1           0       -5.371705   -0.302702    0.479942
     28          1           0       -4.818793   -2.698332   -0.060357
     29          1           0       -4.856892   -2.313859   -1.787675
     30          1           0       -6.341254   -2.212599   -0.825528
     31          6           0       -3.098111    1.162752   -0.145765
     32          6           0       -1.595349    1.443519   -0.116416
     33          6           0       -1.272919    2.903911    0.201531
     34          1           0       -3.571353    1.814769   -0.892967
     35          1           0       -3.534189    1.432902    0.825730
     36          1           0       -1.162767    1.172490   -1.088028
     37          1           0       -1.124883    0.790190    0.629532
     38          1           0       -1.677580    3.183647    1.179589
     39          1           0       -1.715678    3.568120   -0.547729
     40          1           0       -0.193218    3.082388    0.217443
 ---------------------------------------------------------------------

 SCF Done:  E(RHF) =  -470.733240690     A.U. after   11 cycles
 E2 =    -0.1583160622D+01 EUMP2 =    -0.47231640131149D+03

 The electronic state is 1-A.
 Alpha  occ. eigenvalues --  -11.21613 -11.21611 -11.21601 -11.21599 -11.21426
 Alpha  occ. eigenvalues --  -11.21399 -11.21366 -11.21339 -11.21110 -11.21088
 Alpha  occ. eigenvalues --  -11.21075 -11.21069  -1.08461  -1.08419  -1.03579
 Alpha  occ. eigenvalues --   -1.03507  -0.96008  -0.95979  -0.87033  -0.86988
 Alpha  occ. eigenvalues --   -0.79647  -0.79570  -0.78280  -0.78229  -0.65180
 Alpha  occ. eigenvalues --   -0.64980  -0.61145  -0.60768  -0.59363  -0.59344
 Alpha  occ. eigenvalues --   -0.57618  -0.57586  -0.55349  -0.55223  -0.52702
 Alpha  occ. eigenvalues --   -0.52678  -0.52432  -0.52405  -0.50048  -0.49856
 Alpha  occ. eigenvalues --   -0.48001  -0.47858  -0.46737  -0.46537  -0.45885
 Alpha  occ. eigenvalues --   -0.45769  -0.45714  -0.45548  -0.43802  -0.43790
 Alpha virt. eigenvalues --    0.20458   0.23017   0.23728   0.24449   0.25778
 Alpha virt. eigenvalues --    0.26290   0.26672   0.27770   0.28543   0.28956
 Alpha virt. eigenvalues --    0.30791   0.31325   0.31640   0.31705   0.32460

 Mulliken charges:
               1
     1  C   -0.298655
     2  C   -0.301413
     3  C   -0.480055
     4  H    0.150657
     5  H    0.149440
     6  H    0.153668
     7  H    0.152162
     8  H    0.155716
     9  H    0.158432
    10  H    0.159743
    11  C   -0.298276
    12  C   -0.299655
    13  C   -0.475711
    14  H    0.149357
    15  H    0.149593
    16  H    0.151975
    17  H    0.151936
    18  H    0.155176
    19  H    0.155173
    20  H    0.160239
    21  C   -0.299506
    22  C   -0.299634
    23  C   -0.475790
    24  H    0.149458
    25  H    0.150107
    26  H    0.152029
    27  H    0.152121
    28  H    0.155434
    29  H    0.155131
    30  H    0.160304
    31  C   -0.297630
    32  C   -0.308989
    33  C   -0.475811
    34  H    0.149547
    35  H    0.149802
    36  H    0.150929
    37  H    0.162309
    38  H    0.155488
    39  H    0.155322
    40  H    0.159877
 Sum of Mulliken charges =  -0.00000

 Dipole moment (field-independent basis, Debye):
    X=             -0.0079    Y=             -0.0072    Z=              0.0080  Tot=              0.0134
 Quadrupole moment (field-independent basis, Debye-Ang):
   XX=            -85.3120   YY=            -85.7110   ZZ=            -83.7390
   XY=             -1.1595   XZ=              0.7296   YZ=             -0.5342

 Normal termination of Gaussian 16 at Wed May  5 22:55:07 2021.
