 Gaussian 16, Revision A.03,
 Gaussian 16:  EM64L-G16RevA.03 25-Dec-2016

 -------------
 #p 6-31g* mp2
 -------------

 ------------------------------------------------------
 Input file generated by CHIRIPA (05-May-2021 14:55:23)
 ------------------------------------------------------
 Symbolic Z-matrix:
 Charge =  0 Multiplicity = 1

                         Standard orientation:
 ---------------------------------------------------------------------
 Center     Atomic      Atomic             Coordinates (Angstroms)
 Number     Number       Type             X           Y           Z
 ---------------------------------------------------------------------
      1          6           0        4.544023    1.758161    0.211275
      2          6           0        3.175688    2.044179    0.259997
      3          6           0        2.231498    1.020945    0.133323
      4          6           0        2.692882   -0.282817   -0.041656
      5          6           0        4.049396   -0.599652   -0.094330
      6          6           0        4.975749    0.439483    0.034578
      7          1           0        5.270564    2.559210    0.310546
      8          1           0        2.837514    3.067351    0.397123
      9          1           0        1.166186    1.214252    0.167399
     10          1           0        4.356055   -1.629413   -0.232064
     11          1           0        6.037788    0.214410   -0.003642
     12          7           0        1.702752   -1.374486   -0.176943
     13          8           0        2.134940   -2.514818   -0.330222
     14          8           0        0.513250   -1.069134   -0.127140
     15          6           0       -3.355552    0.825221   -0.086318
     16          6           0       -4.389174    1.950325   -0.025036
     17          6           0       -3.773302    3.331721   -0.249172
     18          1           0       -2.578272    1.008511    0.668125
     19          1           0       -2.854365    0.850030   -1.063862
     20          1           0       -4.889232    1.922537    0.951584
     21          1           0       -5.164187    1.764235   -0.779583
     22          1           0       -3.290406    3.383625   -1.230354
     23          1           0       -3.013889    3.542828    0.510649
     24          1           0       -4.529843    4.121153   -0.201202
     25          6           0       -3.955980   -0.561805    0.135879
     26          6           0       -2.922358   -1.686907    0.074596
     27          6           0       -3.538230   -3.068305    0.298732
     28          1           0       -4.457167   -0.586614    1.113422
     29          1           0       -4.733260   -0.745094   -0.618565
     30          1           0       -2.147346   -1.500817    0.829144
     31          1           0       -2.422300   -1.659121   -0.902024
     32          1           0       -4.297643   -3.279412   -0.461089
     33          1           0       -4.021126   -3.120208    1.279914
     34          1           0       -2.781689   -3.857737    0.250762
 ---------------------------------------------------------------------

 SCF Done:  E(RHF) =  -669.535649993     A.U. after   15 cycles
 E2 =    -0.2091378513D+01 EUMP2 =    -0.67162702850620D+03

 The electronic state is 1-A.
 Alpha  occ. eigenvalues --  -20.60891 -20.60884 -15.85926 -11.31264 -11.27831
 Alpha  occ. eigenvalues --  -11.27825 -11.27572 -11.26842 -11.26831 -11.21124
 Alpha  occ. eigenvalues --  -11.20845 -11.20648 -11.20359 -11.19962 -11.19773
 Alpha  occ. eigenvalues --   -1.59959  -1.39515  -1.19436  -1.08838  -1.07542
 Alpha  occ. eigenvalues --   -1.04834  -1.02607  -0.95678  -0.95139  -0.86235
 Alpha  occ. eigenvalues --   -0.86168  -0.82515  -0.78722  -0.77596  -0.77181
 Alpha  occ. eigenvalues --   -0.72136  -0.71277  -0.70544  -0.65090  -0.64836
 Alpha  occ. eigenvalues --   -0.64192  -0.62180  -0.60016  -0.58548  -0.56679
 Alpha  occ. eigenvalues --   -0.55338  -0.54467  -0.53166  -0.52925  -0.51846
 Alpha  occ. eigenvalues --   -0.51548  -0.49136  -0.48942  -0.48908  -0.46979
 Alpha  occ. eigenvalues --   -0.45787  -0.45016  -0.44742  -0.44538  -0.42870
 Alpha  occ. eigenvalues --   -0.37417  -0.36437
 Alpha virt. eigenvalues --    0.04952   0.11217   0.16434   0.21219   0.23491
 Alpha virt. eigenvalues --    0.25196   0.26609   0.27527   0.27736   0.28658
 Alpha virt. eigenvalues --    0.29123   0.31099   0.32207   0.32310   0.32716

 Mulliken charges:
               1
     1  C   -0.170655
     2  C   -0.218643
     3  C   -0.171461
     4  C    0.157508
     5  C   -0.170628
     6  C   -0.218623
     7  H    0.225903
     8  H    0.223972
     9  H    0.276438
    10  H    0.275731
    11  H    0.223680
    12  N    0.492185
    13  O   -0.459736
    14  O   -0.462733
    15  C   -0.295829
    16  C   -0.298710
    17  C   -0.474720
    18  H    0.147170
    19  H    0.150086
    20  H    0.150727
    21  H    0.151488
    22  H    0.153528
    23  H    0.150495
    24  H    0.158809
    25  C   -0.299343
    26  C   -0.296897
    27  C   -0.477062
    28  H    0.144723
    29  H    0.145290
    30  H    0.164818
    31  H    0.159683
    32  H    0.148959
    33  H    0.148742
    34  H    0.165105
 Sum of Mulliken charges =  -0.00000

 Dipole moment (field-independent basis, Debye):
    X=              3.7816    Y=              3.7389    Z=              0.4468  Tot=              5.3367
 Quadrupole moment (field-independent basis, Debye-Ang):
   XX=            -74.7599   YY=            -96.6506   ZZ=            -94.7370
   XY=              6.4940   XZ=              1.0997   YZ=              0.3865

 Normal termination of Gaussian 16 at Wed May  5 22:19:57 2021.
