 Gaussian 16, Revision A.03,
 Gaussian 16:  EM64L-G16RevA.03 25-Dec-2016

 -------------
 #p 6-31g* mp2
 -------------

 ------------------------------------------------------
 Input file generated by CHIRIPA (05-May-2021 14:55:25)
 ------------------------------------------------------
 Symbolic Z-matrix:
 Charge =  0 Multiplicity = 1

                         Standard orientation:
 ---------------------------------------------------------------------
 Center     Atomic      Atomic             Coordinates (Angstroms)
 Number     Number       Type             X           Y           Z
 ---------------------------------------------------------------------
      1          6           0       -0.881953    1.184822    0.727971
      2          6           0       -1.974321    1.182972    1.601613
      3          6           0       -3.159408    0.527137    1.255209
      4          6           0       -3.217710   -0.119679    0.021710
      5          6           0       -2.146542   -0.135696   -0.870272
      6          6           0       -0.971392    0.526643   -0.503013
      7          1           0        0.034792    1.696816    1.005166
      8          1           0       -1.907710    1.693295    2.558262
      9          1           0       -4.020246    0.509946    1.912537
     10          1           0       -2.242968   -0.653128   -1.817048
     11          1           0       -0.124635    0.526428   -1.183489
     12          7           0       -4.467049   -0.817425   -0.356051
     13          8           0       -4.493063   -1.379912   -1.448557
     14          8           0       -5.396610   -0.788619    0.447518
     15          6           0        3.709477    0.721391    0.117083
     16          6           0        3.117779    1.595588   -0.989108
     17          6           0        2.831877    3.023945   -0.524511
     18          1           0        3.015962    0.699547    0.968848
     19          1           0        4.637994    1.182116    0.481753
     20          1           0        2.191382    1.132635   -1.352538
     21          1           0        3.812695    1.615199   -1.838416
     22          1           0        3.751406    3.508522   -0.180632
     23          1           0        2.120881    3.023217    0.308007
     24          1           0        2.409394    3.631433   -1.330939
     25          6           0        4.000740   -0.709404   -0.332045
     26          6           0        4.592440   -1.583601    0.774146
     27          6           0        4.878341   -3.011958    0.309549
     28          1           0        3.072224   -1.170130   -0.696715
     29          1           0        4.694255   -0.687560   -1.183811
     30          1           0        3.897524   -1.603212    1.623453
     31          1           0        5.518836   -1.120648    1.137575
     32          1           0        5.589337   -3.011230   -0.522969
     33          1           0        3.958812   -3.496536   -0.034330
     34          1           0        5.300824   -3.619446    1.115977
 ---------------------------------------------------------------------

 SCF Done:  E(RHF) =  -669.535164261     A.U. after   15 cycles
 E2 =    -0.2092069707D+01 EUMP2 =    -0.67162723396755D+03

 The electronic state is 1-A.
 Alpha  occ. eigenvalues --  -20.60750 -20.60745 -15.85803 -11.31169 -11.27738
 Alpha  occ. eigenvalues --  -11.27733 -11.27469 -11.26753 -11.26731 -11.22861
 Alpha  occ. eigenvalues --  -11.22438 -11.22331 -11.22262 -11.22192 -11.21574
 Alpha  occ. eigenvalues --   -1.59826  -1.39379  -1.19341  -1.09393  -1.08734
 Alpha  occ. eigenvalues --   -1.04747  -1.04457  -0.96889  -0.95570  -0.87905
 Alpha  occ. eigenvalues --   -0.86146  -0.82407  -0.80547  -0.79158  -0.77453
 Alpha  occ. eigenvalues --   -0.72022  -0.71149  -0.70474  -0.66094  -0.64989
 Alpha  occ. eigenvalues --   -0.64735  -0.62185  -0.61755  -0.60276  -0.58486
 Alpha  occ. eigenvalues --   -0.56220  -0.55231  -0.53576  -0.53299  -0.53072
 Alpha  occ. eigenvalues --   -0.52856  -0.50838  -0.48850  -0.48779  -0.48773
 Alpha  occ. eigenvalues --   -0.47583  -0.46694  -0.46598  -0.44785  -0.44694
 Alpha  occ. eigenvalues --   -0.37319  -0.36349
 Alpha virt. eigenvalues --    0.05078   0.11288   0.16553   0.17805   0.22801
 Alpha virt. eigenvalues --    0.23498   0.24190   0.25343   0.27073   0.28362
 Alpha virt. eigenvalues --    0.28970   0.29760   0.30884   0.31659   0.31894

 Mulliken charges:
               1
     1  C   -0.177291
     2  C   -0.219709
     3  C   -0.170858
     4  C    0.158804
     5  C   -0.171769
     6  C   -0.226192
     7  H    0.232292
     8  H    0.223741
     9  H    0.275500
    10  H    0.276032
    11  H    0.231290
    12  N    0.487897
    13  O   -0.460435
    14  O   -0.460482
    15  C   -0.298646
    16  C   -0.306074
    17  C   -0.477762
    18  H    0.144965
    19  H    0.153996
    20  H    0.145434
    21  H    0.159162
    22  H    0.161861
    23  H    0.146961
    24  H    0.165136
    25  C   -0.298488
    26  C   -0.300321
    27  C   -0.476401
    28  H    0.147995
    29  H    0.152361
    30  H    0.152455
    31  H    0.153224
    32  H    0.156225
    33  H    0.156567
    34  H    0.162531
 Sum of Mulliken charges =  -0.00000

 Dipole moment (field-independent basis, Debye):
    X=              4.6603    Y=              2.4482    Z=              1.3071  Tot=              5.4241
 Quadrupole moment (field-independent basis, Debye-Ang):
   XX=           -120.8840   YY=            -96.4279   ZZ=            -91.0202
   XY=             -8.4910   XZ=             -6.6573   YZ=              0.8840

 Normal termination of Gaussian 16 at Thu May  6 14:24:34 2021.
