 Gaussian 16, Revision A.03,
 Gaussian 16:  EM64L-G16RevA.03 25-Dec-2016

 -------------
 #p 6-31g* mp2
 -------------

 ------------------------------------------------------
 Input file generated by CHIRIPA (05-May-2021 14:55:24)
 ------------------------------------------------------
 Symbolic Z-matrix:
 Charge =  0 Multiplicity = 1

                         Standard orientation:
 ---------------------------------------------------------------------
 Center     Atomic      Atomic             Coordinates (Angstroms)
 Number     Number       Type             X           Y           Z
 ---------------------------------------------------------------------
      1          6           0        1.911305   -0.042896    2.552628
      2          6           0        3.187685    0.236242    2.053171
      3          6           0        3.458921    0.110248    0.687483
      4          6           0        2.425669   -0.299016   -0.154053
      5          6           0        1.143693   -0.584432    0.313243
      6          6           0        0.895174   -0.451621    1.682603
      7          1           0        1.709426    0.057627    3.614953
      8          1           0        3.978755    0.553853    2.726504
      9          1           0        4.437975    0.319903    0.274063
     10          1           0        0.375441   -0.899052   -0.382616
     11          1           0       -0.097031   -0.669079    2.067683
     12          7           0        2.700789   -0.436008   -1.601790
     13          8           0        1.773333   -0.798250   -2.322375
     14          8           0        3.838675   -0.178548   -1.988528
     15          6           0       -2.529613    0.888502    0.065180
     16          6           0       -2.823187    2.246102   -0.574134
     17          6           0       -1.779659    3.305321   -0.217903
     18          1           0       -2.482753    1.006678    1.156411
     19          1           0       -1.535435    0.547437   -0.255258
     20          1           0       -3.817092    2.583861   -0.253684
     21          1           0       -2.869543    2.124644   -1.663957
     22          1           0       -0.784864    2.993905   -0.552574
     23          1           0       -1.737796    3.455731    0.865712
     24          1           0       -2.008958    4.267974   -0.685430
     25          6           0       -3.564020   -0.180821   -0.281632
     26          6           0       -3.270446   -1.538421    0.357682
     27          6           0       -4.313974   -2.597639    0.001453
     28          1           0       -4.558198    0.160244    0.038807
     29          1           0       -3.610880   -0.298998   -1.372861
     30          1           0       -3.224089   -1.416963    1.447506
     31          1           0       -2.276542   -1.876180    0.037233
     32          1           0       -4.355836   -2.748049   -1.082164
     33          1           0       -5.308769   -2.286224    0.336123
     34          1           0       -4.084675   -3.560292    0.468978
 ---------------------------------------------------------------------

 SCF Done:  E(RHF) =  -669.535150340     A.U. after   15 cycles
 E2 =    -0.2093025450D+01 EUMP2 =    -0.67162817579063D+03

 The electronic state is 1-A.
 Alpha  occ. eigenvalues --  -20.60772 -20.60766 -15.85823 -11.31163 -11.27722
 Alpha  occ. eigenvalues --  -11.27700 -11.27448 -11.26743 -11.26692 -11.22313
 Alpha  occ. eigenvalues --  -11.21945 -11.21877 -11.21838 -11.21518 -11.21267
 Alpha  occ. eigenvalues --   -1.59847  -1.39402  -1.19329  -1.08931  -1.08726
 Alpha  occ. eigenvalues --   -1.04725  -1.03954  -0.96383  -0.95570  -0.87399
 Alpha  occ. eigenvalues --   -0.86125  -0.82407  -0.80048  -0.78814  -0.77421
 Alpha  occ. eigenvalues --   -0.72042  -0.71170  -0.70453  -0.65600  -0.64971
 Alpha  occ. eigenvalues --   -0.64694  -0.62081  -0.61344  -0.59762  -0.58005
 Alpha  occ. eigenvalues --   -0.55661  -0.55227  -0.53102  -0.53065  -0.52823
 Alpha  occ. eigenvalues --   -0.52765  -0.50319  -0.48801  -0.48797  -0.48354
 Alpha  occ. eigenvalues --   -0.47085  -0.46273  -0.46193  -0.44810  -0.44226
 Alpha  occ. eigenvalues --   -0.37309  -0.36283
 Alpha virt. eigenvalues --    0.05038   0.11267   0.16511   0.19416   0.22931
 Alpha virt. eigenvalues --    0.23844   0.24592   0.25058   0.27578   0.28408
 Alpha virt. eigenvalues --    0.30231   0.30697   0.31193   0.31597   0.31897

 Mulliken charges:
               1
     1  C   -0.171492
     2  C   -0.218159
     3  C   -0.171220
     4  C    0.158704
     5  C   -0.176185
     6  C   -0.217950
     7  H    0.225455
     8  H    0.223330
     9  H    0.275392
    10  H    0.277966
    11  H    0.227760
    12  N    0.488015
    13  O   -0.461190
    14  O   -0.460240
    15  C   -0.304219
    16  C   -0.299808
    17  C   -0.476414
    18  H    0.144222
    19  H    0.150270
    20  H    0.152302
    21  H    0.157088
    22  H    0.158706
    23  H    0.152287
    24  H    0.162349
    25  C   -0.298315
    26  C   -0.303320
    27  C   -0.475768
    28  H    0.151594
    29  H    0.155703
    30  H    0.147325
    31  H    0.147857
    32  H    0.159852
    33  H    0.156926
    34  H    0.161178
 Sum of Mulliken charges =  -0.00000

 Dipole moment (field-independent basis, Debye):
    X=             -1.0934    Y=              0.5211    Z=              5.0111  Tot=              5.1554
 Quadrupole moment (field-independent basis, Debye-Ang):
   XX=            -94.6138   YY=            -95.9139   ZZ=            -96.1332
   XY=              2.4247   XZ=             13.3203   YZ=             -1.3332

 Normal termination of Gaussian 16 at Wed May  5 16:06:36 2021.
