 Gaussian 16, Revision A.03,
 Gaussian 16:  EM64L-G16RevA.03 25-Dec-2016

 -------------
 #p 6-31g* mp2
 -------------

 ------------------------------------------------------
 Input file generated by CHIRIPA (05-May-2021 14:53:18)
 ------------------------------------------------------
 Symbolic Z-matrix:
 Charge =  0 Multiplicity = 1

                         Standard orientation:
 ---------------------------------------------------------------------
 Center     Atomic      Atomic             Coordinates (Angstroms)
 Number     Number       Type             X           Y           Z
 ---------------------------------------------------------------------
      1          6           0        3.514818    0.741860    0.291629
      2          6           0        3.143539    1.989060   -0.511257
      3          6           0        2.300809    2.980109    0.292125
      4          1           0        2.595783    0.248597    0.636611
      5          1           0        4.064301    1.045060    1.193590
      6          1           0        2.596124    1.683503   -1.412139
      7          1           0        4.063560    2.479305   -0.854530
      8          1           0        2.843016    3.313387    1.182933
      9          1           0        1.367242    2.513062    0.622156
     10          1           0        2.046724    3.864182   -0.300931
     11          6           0        4.357297   -0.258374   -0.497985
     12          6           0        4.728576   -1.505574    0.304902
     13          6           0        5.571306   -2.496623   -0.498480
     14          1           0        3.807814   -0.561574   -1.399945
     15          1           0        5.276332    0.234889   -0.842966
     16          1           0        3.808555   -1.995819    0.648175
     17          1           0        5.275991   -1.200017    1.205784
     18          1           0        6.504873   -2.029577   -0.828511
     19          1           0        5.029099   -2.829901   -1.389288
     20          1           0        5.825391   -3.380696    0.094576
     21          6           0       -0.716941    0.041395    0.947932
     22          6           0       -0.989699    0.263731   -0.405837
     23          6           0       -2.292509    0.138985   -0.897439
     24          6           0       -3.303018   -0.211122   -0.003243
     25          6           0       -3.063012   -0.439123    1.350901
     26          6           0       -1.752642   -0.308705    1.820442
     27          1           0        0.298049    0.140504    1.321252
     28          1           0       -0.187338    0.535743   -1.085742
     29          1           0       -2.531686    0.305391   -1.940761
     30          1           0       -3.883689   -0.709018    2.004404
     31          1           0       -1.543752   -0.481973    2.872292
     32          7           0       -4.686247   -0.346187   -0.512003
     33          8           0       -5.558909   -0.655697    0.296268
     34          8           0       -4.871566   -0.139984   -1.709405
 ---------------------------------------------------------------------

 SCF Done:  E(RHF) =  -669.535253573     A.U. after   15 cycles
 E2 =    -0.2092351954D+01 EUMP2 =    -0.67162760552668D+03

 The electronic state is 1-A.
 Alpha  occ. eigenvalues --  -20.60764 -20.60759 -15.85818 -11.31194 -11.27758
 Alpha  occ. eigenvalues --  -11.27754 -11.27473 -11.26777 -11.26764 -11.22728
 Alpha  occ. eigenvalues --  -11.22602 -11.22407 -11.22304 -11.22106 -11.21704
 Alpha  occ. eigenvalues --   -1.59839  -1.39392  -1.19363  -1.09460  -1.08756
 Alpha  occ. eigenvalues --   -1.04767  -1.04467  -0.96910  -0.95593  -0.87919
 Alpha  occ. eigenvalues --   -0.86163  -0.82428  -0.80540  -0.79272  -0.77468
 Alpha  occ. eigenvalues --   -0.72036  -0.71162  -0.70509  -0.66133  -0.65011
 Alpha  occ. eigenvalues --   -0.64749  -0.62164  -0.61795  -0.60283  -0.58519
 Alpha  occ. eigenvalues --   -0.56228  -0.55294  -0.53560  -0.53348  -0.53070
 Alpha  occ. eigenvalues --   -0.52853  -0.50859  -0.48838  -0.48797  -0.48788
 Alpha  occ. eigenvalues --   -0.47584  -0.46785  -0.46709  -0.44796  -0.44738
 Alpha  occ. eigenvalues --   -0.37332  -0.36367
 Alpha virt. eigenvalues --    0.05039   0.11217   0.16482   0.18160   0.22725
 Alpha virt. eigenvalues --    0.23670   0.24602   0.25385   0.27136   0.27905
 Alpha virt. eigenvalues --    0.29582   0.29725   0.30921   0.31311   0.31597

 Mulliken charges:
               1
     1  C   -0.303486
     2  C   -0.302075
     3  C   -0.479928
     4  H    0.140880
     5  H    0.153988
     6  H    0.148251
     7  H    0.158285
     8  H    0.158708
     9  H    0.151027
    10  H    0.165763
    11  C   -0.297979
    12  C   -0.300257
    13  C   -0.476293
    14  H    0.149565
    15  H    0.153661
    16  H    0.150260
    17  H    0.153268
    18  H    0.156845
    19  H    0.156474
    20  H    0.162554
    21  C   -0.177618
    22  C   -0.222590
    23  C   -0.171206
    24  C    0.158558
    25  C   -0.170742
    26  C   -0.219625
    27  H    0.234821
    28  H    0.226001
    29  H    0.275795
    30  H    0.275617
    31  H    0.224185
    32  N    0.488008
    33  O   -0.460333
    34  O   -0.460383
 Sum of Mulliken charges =  -0.00000

 Dipole moment (field-independent basis, Debye):
    X=              5.0964    Y=              0.5034    Z=              1.7722  Tot=              5.4192
 Quadrupole moment (field-independent basis, Debye-Ang):
   XX=           -125.5451   YY=            -95.5315   ZZ=            -90.6971
   XY=             -1.1713   XZ=             -7.1954   YZ=             -1.8748

 Normal termination of Gaussian 16 at Thu May  6 10:43:26 2021.
