 Gaussian 16, Revision A.03,
 Gaussian 16:  EM64L-G16RevA.03 25-Dec-2016

 -------------
 #p 6-31g* mp2
 -------------

 ------------------------------------------------------
 Input file generated by CHIRIPA (05-May-2021 14:53:12)
 ------------------------------------------------------
 Symbolic Z-matrix:
 Charge =  0 Multiplicity = 1

                         Standard orientation:
 ---------------------------------------------------------------------
 Center     Atomic      Atomic             Coordinates (Angstroms)
 Number     Number       Type             X           Y           Z
 ---------------------------------------------------------------------
      1          6           0       -2.699990    1.211393   -0.215509
      2          6           0       -1.515180    1.613632    0.663362
      3          6           0       -1.061239    3.053409    0.420926
      4          1           0       -2.424545    1.337631   -1.271510
      5          1           0       -3.537229    1.897523   -0.026690
      6          1           0       -0.680889    0.926101    0.473952
      7          1           0       -1.793413    1.486240    1.717389
      8          1           0       -1.876105    3.754419    0.628720
      9          1           0       -0.757260    3.191098   -0.621782
     10          1           0       -0.213296    3.319935    1.059531
     11          6           0       -3.165314   -0.225240    0.015327
     12          6           0       -4.350125   -0.627480   -0.863544
     13          6           0       -4.804066   -2.067256   -0.621108
     14          1           0       -2.328076   -0.911370   -0.173492
     15          1           0       -3.440760   -0.351478    1.071328
     16          1           0       -4.071892   -0.500087   -1.917571
     17          1           0       -5.184416    0.060051   -0.674134
     18          1           0       -5.108045   -2.204945    0.421600
     19          1           0       -3.989200   -2.768266   -0.828902
     20          1           0       -5.652009   -2.333782   -1.259713
     21          6           0        1.494330   -1.039041    2.381138
     22          6           0        1.789260   -2.026909    1.435805
     23          6           0        2.231489   -1.676221    0.156742
     24          6           0        2.368167   -0.322007   -0.144444
     25          6           0        2.082296    0.685481    0.775630
     26          6           0        1.641531    0.311620    2.048619
     27          1           0        1.151365   -1.320465    3.372385
     28          1           0        1.675866   -3.076638    1.691258
     29          1           0        2.466850   -2.420479   -0.594325
     30          1           0        2.205060    1.723602    0.491638
     31          1           0        1.413222    1.080962    2.780763
     32          7           0        2.835560    0.061518   -1.495315
     33          8           0        2.947761    1.261590   -1.735887
     34          8           0        3.080852   -0.845211   -2.287977
 ---------------------------------------------------------------------

 SCF Done:  E(RHF) =  -669.534142513     A.U. after   15 cycles
 E2 =    -0.2093831168D+01 EUMP2 =    -0.67162797368098D+03

 The electronic state is 1-A.
 Alpha  occ. eigenvalues --  -20.60825 -20.60820 -15.85878 -11.31249 -11.27814
 Alpha  occ. eigenvalues --  -11.27774 -11.27536 -11.26832 -11.26792 -11.21709
 Alpha  occ. eigenvalues --  -11.21690 -11.21542 -11.21461 -11.21360 -11.21218
 Alpha  occ. eigenvalues --   -1.59901  -1.39454  -1.19433  -1.08814  -1.08572
 Alpha  occ. eigenvalues --   -1.04844  -1.03694  -0.96168  -0.95646  -0.87177
 Alpha  occ. eigenvalues --   -0.86216  -0.82481  -0.79767  -0.78395  -0.77523
 Alpha  occ. eigenvalues --   -0.72094  -0.71230  -0.70519  -0.65223  -0.65064
 Alpha  occ. eigenvalues --   -0.64811  -0.62190  -0.61110  -0.59560  -0.57799
 Alpha  occ. eigenvalues --   -0.55454  -0.55306  -0.53238  -0.52921  -0.52834
 Alpha  occ. eigenvalues --   -0.52580  -0.50075  -0.48855  -0.48849  -0.48071
 Alpha  occ. eigenvalues --   -0.46769  -0.45926  -0.45828  -0.44854  -0.43957
 Alpha  occ. eigenvalues --   -0.37408  -0.36294
 Alpha virt. eigenvalues --    0.04991   0.11159   0.16440   0.20483   0.22835
 Alpha virt. eigenvalues --    0.23950   0.26224   0.26534   0.27251   0.28067
 Alpha virt. eigenvalues --    0.29115   0.30473   0.31284   0.31658   0.32250

 Mulliken charges:
               1
     1  C   -0.298230
     2  C   -0.306669
     3  C   -0.477164
     4  H    0.153415
     5  H    0.148846
     6  H    0.162888
     7  H    0.144490
     8  H    0.157018
     9  H    0.163825
    10  H    0.148594
    11  C   -0.298059
    12  C   -0.299950
    13  C   -0.475638
    14  H    0.149757
    15  H    0.146548
    16  H    0.154406
    17  H    0.152099
    18  H    0.153572
    19  H    0.154607
    20  H    0.161289
    21  C   -0.170594
    22  C   -0.218274
    23  C   -0.172087
    24  C    0.160699
    25  C   -0.176912
    26  C   -0.213579
    27  H    0.226033
    28  H    0.223838
    29  H    0.275710
    30  H    0.277651
    31  H    0.224527
    32  N    0.488003
    33  O   -0.460288
    34  O   -0.460371
 Sum of Mulliken charges =  -0.00000

 Dipole moment (field-independent basis, Debye):
    X=             -1.6169    Y=             -1.3815    Z=              4.6947  Tot=              5.1540
 Quadrupole moment (field-independent basis, Debye-Ang):
   XX=           -103.3017   YY=            -90.3036   ZZ=            -95.8909
   XY=             -3.7177   XZ=             11.3131   YZ=              0.0915

 Normal termination of Gaussian 16 at Thu May  6 17:02:35 2021.
