 Gaussian 16, Revision A.03,
 Gaussian 16:  EM64L-G16RevA.03 25-Dec-2016

 -------------
 #p 6-31g* mp2
 -------------

 ------------------------------------------------------
 Input file generated by CHIRIPA (05-May-2021 14:55:22)
 ------------------------------------------------------
 Symbolic Z-matrix:
 Charge =  0 Multiplicity = 1

                         Standard orientation:
 ---------------------------------------------------------------------
 Center     Atomic      Atomic             Coordinates (Angstroms)
 Number     Number       Type             X           Y           Z
 ---------------------------------------------------------------------
      1          6           0        2.894160    2.679938    0.311845
      2          6           0        1.866015    1.731779    0.291053
      3          6           0        2.150887    0.380176    0.075258
      4          6           0        3.481071    0.010120   -0.116988
      5          6           0        4.527451    0.931071   -0.101869
      6          6           0        4.219260    2.277268    0.115664
      7          1           0        2.663808    3.727796    0.480155
      8          1           0        0.836004    2.041618    0.443112
      9          1           0        1.374355   -0.374790    0.054222
     10          1           0        5.544516    0.591866   -0.256582
     11          1           0        5.019767    3.011427    0.131294
     12          7           0        3.794995   -1.417899   -0.346361
     13          8           0        4.975079   -1.718302   -0.513085
     14          8           0        2.855021   -2.209738   -0.355076
     15          6           0       -5.065532   -0.017109    0.296820
     16          6           0       -5.868141    0.501092   -0.897028
     17          6           0       -7.218086    1.092453   -0.489922
     18          1           0       -5.656298   -0.777802    0.825297
     19          1           0       -4.907096    0.805368    1.008032
     20          1           0       -6.023827   -0.321784   -1.606431
     21          1           0       -5.275319    1.260503   -1.422836
     22          1           0       -7.078995    1.930992    0.200085
     23          1           0       -7.831756    0.339716    0.015446
     24          1           0       -7.775187    1.456797   -1.358686
     25          6           0       -3.713559   -0.611308   -0.094106
     26          6           0       -2.910950   -1.129509    1.099741
     27          6           0       -1.561005   -1.720870    0.692634
     28          1           0       -3.871994   -1.433785   -0.805319
     29          1           0       -3.122793    0.149385   -0.622583
     30          1           0       -3.503772   -1.888920    1.625549
     31          1           0       -2.755264   -0.306634    1.809144
     32          1           0       -0.947334   -0.968132    0.187267
     33          1           0       -1.700095   -2.559408    0.002629
     34          1           0       -1.003903   -2.085213    1.561400
 ---------------------------------------------------------------------

 SCF Done:  E(RHF) =  -669.535410018     A.U. after   15 cycles
 E2 =    -0.2090989920D+01 EUMP2 =    -0.67162639993878D+03

 The electronic state is 1-A.
 Alpha  occ. eigenvalues --  -20.60713 -20.60706 -15.85764 -11.31132 -11.27716
 Alpha  occ. eigenvalues --  -11.27675 -11.27470 -11.26736 -11.26725 -11.21931
 Alpha  occ. eigenvalues --  -11.21845 -11.21709 -11.21638 -11.21423 -11.21286
 Alpha  occ. eigenvalues --   -1.59787  -1.39340  -1.19314  -1.08727  -1.08711
 Alpha  occ. eigenvalues --   -1.04721  -1.03819  -0.96267  -0.95542  -0.87282
 Alpha  occ. eigenvalues --   -0.86118  -0.82375  -0.79878  -0.78535  -0.77417
 Alpha  occ. eigenvalues --   -0.71983  -0.71111  -0.70434  -0.65370  -0.64968
 Alpha  occ. eigenvalues --   -0.64732  -0.62118  -0.61195  -0.59619  -0.57867
 Alpha  occ. eigenvalues --   -0.55605  -0.55199  -0.53051  -0.52988  -0.52836
 Alpha  occ. eigenvalues --   -0.52610  -0.50206  -0.48744  -0.48735  -0.48187
 Alpha  occ. eigenvalues --   -0.46919  -0.46076  -0.46004  -0.44745  -0.44061
 Alpha  occ. eigenvalues --   -0.37303  -0.36324
 Alpha virt. eigenvalues --    0.05116   0.11327   0.16603   0.20210   0.22695
 Alpha virt. eigenvalues --    0.23862   0.25513   0.26573   0.27321   0.27884
 Alpha virt. eigenvalues --    0.29123   0.30502   0.31428   0.31605   0.32080

 Mulliken charges:
               1
     1  C   -0.170665
     2  C   -0.221627
     3  C   -0.181013
     4  C    0.159104
     5  C   -0.170119
     6  C   -0.219125
     7  H    0.225304
     8  H    0.222465
     9  H    0.289209
    10  H    0.275479
    11  H    0.223276
    12  N    0.487015
    13  O   -0.460812
    14  O   -0.459640
    15  C   -0.298290
    16  C   -0.299695
    17  C   -0.475800
    18  H    0.151259
    19  H    0.147955
    20  H    0.153430
    21  H    0.150713
    22  H    0.154499
    23  H    0.156103
    24  H    0.160917
    25  C   -0.298018
    26  C   -0.300617
    27  C   -0.476555
    28  H    0.152649
    29  H    0.145690
    30  H    0.155359
    31  H    0.148553
    32  H    0.142671
    33  H    0.164031
    34  H    0.166294
 Sum of Mulliken charges =  -0.00000

 Dipole moment (field-independent basis, Debye):
    X=             -1.2226    Y=              4.9020    Z=              0.8206  Tot=              5.1183
 Quadrupole moment (field-independent basis, Debye-Ang):
   XX=            -98.2832   YY=            -94.0343   ZZ=            -95.8461
   XY=             20.1074   XZ=              2.7575   YZ=             -0.6796

 Normal termination of Gaussian 16 at Thu May  6 15:54:42 2021.
