 Gaussian 16, Revision A.03,
 Gaussian 16:  EM64L-G16RevA.03 25-Dec-2016

 -------------
 #p 6-31g* mp2
 -------------

 ------------------------------------------------------
 Input file generated by CHIRIPA (05-May-2021 14:55:19)
 ------------------------------------------------------
 Symbolic Z-matrix:
 Charge =  0 Multiplicity = 1

                         Standard orientation:
 ---------------------------------------------------------------------
 Center     Atomic      Atomic             Coordinates (Angstroms)
 Number     Number       Type             X           Y           Z
 ---------------------------------------------------------------------
      1          6           0       -0.743007    0.999729    1.471111
      2          6           0       -1.946178    1.668609    1.223119
      3          6           0       -3.001271    1.016382    0.578197
      4          6           0       -2.818005   -0.310817    0.193167
      5          6           0       -1.631360   -1.004292    0.426095
      6          6           0       -0.589708   -0.332238    1.072510
      7          1           0        0.071395    1.514096    1.972682
      8          1           0       -2.068055    2.703044    1.531558
      9          1           0       -3.943407    1.510334    0.373722
     10          1           0       -1.539622   -2.035346    0.106830
     11          1           0        0.343571   -0.854202    1.263795
     12          7           0       -3.927870   -1.011795   -0.490373
     13          8           0       -3.741291   -2.181162   -0.819624
     14          8           0       -4.963346   -0.378582   -0.683939
     15          6           0        3.971286    0.033518    0.031071
     16          6           0        4.443098   -1.389439   -0.269882
     17          6           0        5.640861   -1.807975    0.583338
     18          1           0        4.803214    0.731623   -0.134732
     19          1           0        3.708327    0.107773    1.095371
     20          1           0        4.703775   -1.461358   -1.333598
     21          1           0        3.609895   -2.084215   -0.103526
     22          1           0        5.389408   -1.764534    1.647991
     23          1           0        6.489504   -1.138138    0.410931
     24          1           0        5.961640   -2.828458    0.351871
     25          6           0        2.774533    0.466416   -0.813978
     26          6           0        2.302722    1.889373   -0.513025
     27          6           0        1.104958    2.307910   -1.366245
     28          1           0        3.037492    0.392161   -1.878278
     29          1           0        1.942605   -0.231689   -0.648174
     30          1           0        3.135924    2.584149   -0.679380
     31          1           0        2.042044    1.961293    0.550690
     32          1           0        0.256316    1.638072   -1.193838
     33          1           0        1.356411    2.264468   -2.430898
     34          1           0        0.784179    3.328392   -1.134778
 ---------------------------------------------------------------------

 SCF Done:  E(RHF) =  -669.533823926     A.U. after   15 cycles
 E2 =    -0.2094753376D+01 EUMP2 =    -0.67162857730184D+03

 The electronic state is 1-A.
 Alpha  occ. eigenvalues --  -20.60815 -20.60810 -15.85872 -11.31268 -11.27862
 Alpha  occ. eigenvalues --  -11.27848 -11.27562 -11.26843 -11.26830 -11.22387
 Alpha  occ. eigenvalues --  -11.22282 -11.22160 -11.22086 -11.21643 -11.21472
 Alpha  occ. eigenvalues --   -1.59891  -1.39443  -1.19462  -1.09189  -1.08825
 Alpha  occ. eigenvalues --   -1.04863  -1.04185  -0.96610  -0.95665  -0.87618
 Alpha  occ. eigenvalues --   -0.86253  -0.82503  -0.80262  -0.78987  -0.77539
 Alpha  occ. eigenvalues --   -0.72089  -0.71215  -0.70589  -0.65931  -0.65097
 Alpha  occ. eigenvalues --   -0.64783  -0.62207  -0.61624  -0.59982  -0.58227
 Alpha  occ. eigenvalues --   -0.56017  -0.55318  -0.53293  -0.53231  -0.52998
 Alpha  occ. eigenvalues --   -0.52861  -0.50506  -0.48854  -0.48841  -0.48543
 Alpha  occ. eigenvalues --   -0.47291  -0.46500  -0.46450  -0.44843  -0.44457
 Alpha  occ. eigenvalues --   -0.37345  -0.36453
 Alpha virt. eigenvalues --    0.04973   0.11066   0.16352   0.19072   0.22738
 Alpha virt. eigenvalues --    0.24018   0.25373   0.25420   0.27075   0.28504
 Alpha virt. eigenvalues --    0.29065   0.30783   0.31037   0.31440   0.32195

 Mulliken charges:
               1
     1  C   -0.169746
     2  C   -0.218149
     3  C   -0.170408
     4  C    0.158367
     5  C   -0.171950
     6  C   -0.219070
     7  H    0.228076
     8  H    0.224160
     9  H    0.276196
    10  H    0.276198
    11  H    0.225054
    12  N    0.488166
    13  O   -0.460198
    14  O   -0.460120
    15  C   -0.298596
    16  C   -0.299275
    17  C   -0.475929
    18  H    0.152965
    19  H    0.142774
    20  H    0.155495
    21  H    0.148184
    22  H    0.154018
    23  H    0.156939
    24  H    0.162780
    25  C   -0.302395
    26  C   -0.298766
    27  C   -0.481027
    28  H    0.154732
    29  H    0.147616
    30  H    0.155184
    31  H    0.138101
    32  H    0.166619
    33  H    0.157586
    34  H    0.156417
 Sum of Mulliken charges =  -0.00000

 Dipole moment (field-independent basis, Debye):
    X=              3.9098    Y=              2.4555    Z=              2.3260  Tot=              5.1697
 Quadrupole moment (field-independent basis, Debye-Ang):
   XX=           -115.5718   YY=            -93.2574   ZZ=            -94.3056
   XY=            -10.5186   XZ=             -7.5087   YZ=              0.0337

 Normal termination of Gaussian 16 at Thu May  6 15:43:55 2021.
