 Gaussian 16, Revision A.03,
 Gaussian 16:  EM64L-G16RevA.03 25-Dec-2016

 -------------
 #p 6-31g* mp2
 -------------

 ------------------------------------------------------
 Input file generated by CHIRIPA (05-May-2021 14:57:21)
 ------------------------------------------------------
 Symbolic Z-matrix:
 Charge =  0 Multiplicity = 1

                         Standard orientation:
 ---------------------------------------------------------------------
 Center     Atomic      Atomic             Coordinates (Angstroms)
 Number     Number       Type             X           Y           Z
 ---------------------------------------------------------------------
      1          6           0       -1.758104    2.330970    0.961148
      2          6           0       -1.795129    1.187817    1.766352
      3          6           0       -2.218872   -0.036801    1.241662
      4          6           0       -2.600252   -0.082418   -0.098397
      5          6           0       -2.574406    1.038974   -0.926107
      6          6           0       -2.147175    2.253037   -0.380147
      7          1           0       -1.427575    3.278183    1.377001
      8          1           0       -1.493551    1.245379    2.808361
      9          1           0       -2.257279   -0.937285    1.842554
     10          1           0       -2.881136    0.950378   -1.961233
     11          1           0       -2.119442    3.139200   -1.007834
     12          7           0       -3.050696   -1.373280   -0.665122
     13          8           0       -3.381540   -1.387114   -1.848755
     14          8           0       -3.064380   -2.346779    0.085043
     15          6           0        2.529966    2.313563   -0.622131
     16          6           0        1.681500    1.851856    0.389528
     17          6           0        1.670914    0.499874    0.745310
     18          6           0        2.525631   -0.366598    0.065622
     19          6           0        3.382444    0.062938   -0.946632
     20          6           0        3.376238    1.419208   -1.285812
     21          1           0        2.531667    3.365480   -0.892062
     22          1           0        1.023206    2.544150    0.906658
     23          1           0        1.024178    0.115546    1.524696
     24          1           0        4.027403   -0.651145   -1.444157
     25          1           0        4.036227    1.774957   -2.071879
     26          7           0        2.523312   -1.800151    0.433485
     27          8           0        3.285827   -2.543275   -0.180497
     28          8           0        1.759024   -2.153499    1.328831
 ---------------------------------------------------------------------

 SCF Done:  E(RHF) =  -868.334670837     A.U. after   16 cycles
 E2 =    -0.2604301506D+01 EUMP2 =    -0.87093897234289D+03

 The electronic state is 1-A.
 Alpha  occ. eigenvalues --  -20.60916 -20.60880 -20.60815 -20.60805 -15.85966
 Alpha  occ. eigenvalues --  -15.85868 -11.31647 -11.31318 -11.28278 -11.28242
 Alpha  occ. eigenvalues --  -11.28182 -11.27880 -11.27876 -11.27704 -11.27384
 Alpha  occ. eigenvalues --  -11.27375 -11.26961 -11.26941  -1.59969  -1.59881
 Alpha  occ. eigenvalues --   -1.39512  -1.39435  -1.19899  -1.19503  -1.09271
 Alpha  occ. eigenvalues --   -1.08896  -1.05340  -1.04919  -0.96029  -0.95716
 Alpha  occ. eigenvalues --   -0.86725  -0.86344  -0.82848  -0.82548  -0.77804
 Alpha  occ. eigenvalues --   -0.77580  -0.72183  -0.72088  -0.71297  -0.71202
 Alpha  occ. eigenvalues --   -0.71073  -0.70654  -0.65549  -0.65342  -0.65167
 Alpha  occ. eigenvalues --   -0.64975  -0.62652  -0.62332  -0.55939  -0.55490
 Alpha  occ. eigenvalues --   -0.53838  -0.53418  -0.53073  -0.52958  -0.48970
 Alpha  occ. eigenvalues --   -0.48911  -0.48848  -0.48835  -0.44848  -0.44817
 Alpha  occ. eigenvalues --   -0.38091  -0.37492  -0.36871  -0.36365
 Alpha virt. eigenvalues --    0.04661   0.04968   0.10559   0.11191   0.15900
 Alpha virt. eigenvalues --    0.16470   0.19586   0.22081   0.25959   0.26139
 Alpha virt. eigenvalues --    0.28399   0.28948   0.29952   0.31616   0.32279

 Mulliken charges:
               1
     1  C   -0.178926
     2  C   -0.228999
     3  C   -0.167531
     4  C    0.160417
     5  C   -0.168307
     6  C   -0.215150
     7  H    0.221442
     8  H    0.225389
     9  H    0.284591
    10  H    0.278004
    11  H    0.222811
    12  N    0.487942
    13  O   -0.460134
    14  O   -0.453206
    15  C   -0.173524
    16  C   -0.210986
    17  C   -0.169380
    18  C    0.158825
    19  C   -0.170464
    20  C   -0.218349
    21  H    0.222125
    22  H    0.212189
    23  H    0.271261
    24  H    0.276781
    25  H    0.223583
    26  N    0.488831
    27  O   -0.458243
    28  O   -0.460992
 Sum of Mulliken charges =  -0.00000

 Dipole moment (field-independent basis, Debye):
    X=              1.3722    Y=              9.2621    Z=              0.5849  Tot=              9.3815
 Quadrupole moment (field-independent basis, Debye-Ang):
   XX=           -111.1758   YY=           -109.6425   ZZ=            -99.6697
   XY=             -0.1644   XZ=            -10.8347   YZ=             -1.6378

 Normal termination of Gaussian 16 at Wed May  5 19:18:21 2021.
