 Gaussian 16, Revision A.03,
 Gaussian 16:  EM64L-G16RevA.03 25-Dec-2016

 -------------
 #p 6-31g* mp2
 -------------

 ------------------------------------------------------
 Input file generated by CHIRIPA (05-May-2021 14:55:20)
 ------------------------------------------------------
 Symbolic Z-matrix:
 Charge =  0 Multiplicity = 1

                         Standard orientation:
 ---------------------------------------------------------------------
 Center     Atomic      Atomic             Coordinates (Angstroms)
 Number     Number       Type             X           Y           Z
 ---------------------------------------------------------------------
      1          6           0        1.651068   -0.102741    2.581219
      2          6           0        1.371402    1.055088    1.847912
      3          6           0        1.629448    1.105520    0.474807
      4          6           0        2.169867   -0.025247   -0.135605
      5          6           0        2.459417   -1.193487    0.567720
      6          6           0        2.193227   -1.221361    1.939913
      7          1           0        1.447449   -0.133156    3.647525
      8          1           0        0.950331    1.925327    2.343319
      9          1           0        1.422568    1.988932   -0.116972
     10          1           0        2.878916   -2.045140    0.046062
     11          1           0        2.411429   -2.121903    2.506885
     12          7           0        2.447359    0.016203   -1.588767
     13          8           0        2.923676   -0.993382   -2.103061
     14          8           0        2.183287    1.057491   -2.185946
     15          6           0       -2.954046    0.750929   -0.288616
     16          6           0       -1.990930    1.830794    0.205632
     17          6           0       -2.475146    3.245611   -0.113151
     18          1           0       -3.089320    0.857957   -1.373601
     19          1           0       -3.940755    0.913119    0.166899
     20          1           0       -1.005967    1.665797   -0.249605
     21          1           0       -1.857784    1.721063    1.289536
     22          1           0       -3.446969    3.434636    0.354212
     23          1           0       -2.590314    3.379057   -1.193675
     24          1           0       -1.771698    4.001826    0.249010
     25          6           0       -2.483733   -0.668807    0.022650
     26          6           0       -3.446849   -1.748673   -0.471600
     27          6           0       -2.962634   -3.163490   -0.152816
     28          1           0       -1.497024   -0.830998   -0.432865
     29          1           0       -2.348459   -0.775836    1.107633
     30          1           0       -3.579996   -1.638942   -1.555503
     31          1           0       -4.431812   -1.583677   -0.016362
     32          1           0       -2.847466   -3.296935    0.927707
     33          1           0       -1.990810   -3.352515   -0.620179
     34          1           0       -3.666081   -3.919705   -0.514976
 ---------------------------------------------------------------------

 SCF Done:  E(RHF) =  -669.534480015     A.U. after   15 cycles
 E2 =    -0.2093665219D+01 EUMP2 =    -0.67162814523420D+03

 The electronic state is 1-A.
 Alpha  occ. eigenvalues --  -20.60818 -20.60812 -15.85870 -11.31212 -11.27769
 Alpha  occ. eigenvalues --  -11.27761 -11.27504 -11.26773 -11.26755 -11.21858
 Alpha  occ. eigenvalues --  -11.21657 -11.21530 -11.21453 -11.21346 -11.21149
 Alpha  occ. eigenvalues --   -1.59894  -1.39448  -1.19382  -1.08778  -1.08575
 Alpha  occ. eigenvalues --   -1.04786  -1.03699  -0.96141  -0.95620  -0.87157
 Alpha  occ. eigenvalues --   -0.86182  -0.82456  -0.79795  -0.78407  -0.77480
 Alpha  occ. eigenvalues --   -0.72086  -0.71221  -0.70500  -0.65240  -0.65030
 Alpha  occ. eigenvalues --   -0.64756  -0.62160  -0.61079  -0.59526  -0.57762
 Alpha  occ. eigenvalues --   -0.55416  -0.55277  -0.53203  -0.52879  -0.52799
 Alpha  occ. eigenvalues --   -0.52565  -0.50067  -0.48845  -0.48843  -0.48097
 Alpha  occ. eigenvalues --   -0.46801  -0.45917  -0.45838  -0.44849  -0.43944
 Alpha  occ. eigenvalues --   -0.37350  -0.36268
 Alpha virt. eigenvalues --    0.05016   0.11155   0.16489   0.20729   0.22822
 Alpha virt. eigenvalues --    0.24022   0.26166   0.26412   0.27447   0.28058
 Alpha virt. eigenvalues --    0.28983   0.30035   0.31338   0.31783   0.32005

 Mulliken charges:
               1
     1  C   -0.171615
     2  C   -0.213413
     3  C   -0.171531
     4  C    0.157966
     5  C   -0.171602
     6  C   -0.217770
     7  H    0.225484
     8  H    0.224127
     9  H    0.276049
    10  H    0.275524
    11  H    0.223502
    12  N    0.488087
    13  O   -0.460219
    14  O   -0.461322
    15  C   -0.298322
    16  C   -0.304047
    17  C   -0.475555
    18  H    0.153981
    19  H    0.148703
    20  H    0.156237
    21  H    0.144672
    22  H    0.155686
    23  H    0.160796
    24  H    0.154610
    25  C   -0.298022
    26  C   -0.300020
    27  C   -0.475762
    28  H    0.151825
    29  H    0.146051
    30  H    0.154814
    31  H    0.151020
    32  H    0.152126
    33  H    0.156933
    34  H    0.161006
 Sum of Mulliken charges =  -0.00000

 Dipole moment (field-independent basis, Debye):
    X=             -0.9796    Y=             -0.1783    Z=              5.0573  Tot=              5.1544
 Quadrupole moment (field-independent basis, Debye-Ang):
   XX=            -99.0077   YY=            -91.7614   ZZ=            -95.9528
   XY=             -1.9282   XZ=             11.2569   YZ=             -0.1981

 Normal termination of Gaussian 16 at Thu May  6 14:06:16 2021.
