 Gaussian 16, Revision A.03,
 Gaussian 16:  EM64L-G16RevA.03 25-Dec-2016

 -------------
 #p 6-31g* mp2
 -------------

 ------------------------------------------------------
 Input file generated by CHIRIPA (05-May-2021 14:57:22)
 ------------------------------------------------------
 Symbolic Z-matrix:
 Charge =  0 Multiplicity = 1

                         Standard orientation:
 ---------------------------------------------------------------------
 Center     Atomic      Atomic             Coordinates (Angstroms)
 Number     Number       Type             X           Y           Z
 ---------------------------------------------------------------------
      1          6           0        1.244974    0.353593    1.946212
      2          6           0        1.795348   -0.928928    1.852665
      3          6           0        2.833718   -1.192160    0.954309
      4          6           0        3.299576   -0.144731    0.161114
      5          6           0        2.771918    1.143666    0.231114
      6          6           0        1.734154    1.383980    1.136566
      7          1           0        0.438579    0.549177    2.646833
      8          1           0        1.417436   -1.731066    2.480200
      9          1           0        3.278058   -2.175700    0.861413
     10          1           0        3.169616    1.922978   -0.407577
     11          1           0        1.308640    2.380982    1.207070
     12          7           0        4.398531   -0.411272   -0.793691
     13          8           0        4.791242    0.528653   -1.481409
     14          8           0        4.846373   -1.555065   -0.836270
     15          6           0       -1.298588    1.831512   -0.560656
     16          6           0       -2.583399    2.217445   -0.164626
     17          6           0       -3.599488    1.267066   -0.027181
     18          6           0       -3.294393   -0.066517   -0.295064
     19          6           0       -2.024213   -0.482297   -0.691376
     20          6           0       -1.023582    0.485246   -0.822305
     21          1           0       -0.515270    2.576457   -0.664895
     22          1           0       -2.799850    3.262258    0.039240
     23          1           0       -4.602889    1.538255    0.277877
     24          1           0       -1.838753   -1.531355   -0.887587
     25          1           0       -0.026697    0.182635   -1.130028
     26          7           0       -4.361899   -1.081727   -0.153006
     27          8           0       -4.067522   -2.250251   -0.394933
     28          8           0       -5.472774   -0.689700    0.197575
 ---------------------------------------------------------------------

 SCF Done:  E(RHF) =  -868.335786201     A.U. after   16 cycles
 E2 =    -0.2603621728D+01 EUMP2 =    -0.87093940792893D+03

 The electronic state is 1-A.
 Alpha  occ. eigenvalues --  -20.61514 -20.61504 -20.61205 -20.61198 -15.86574
 Alpha  occ. eigenvalues --  -15.86255 -11.32094 -11.31684 -11.28696 -11.28618
 Alpha  occ. eigenvalues --  -11.28311 -11.28227 -11.28153 -11.27985 -11.27690
 Alpha  occ. eigenvalues --  -11.27572 -11.27323 -11.27160  -1.60589  -1.60279
 Alpha  occ. eigenvalues --   -1.40136  -1.39830  -1.20280  -1.19843  -1.09623
 Alpha  occ. eigenvalues --   -1.09232  -1.05695  -1.05229  -0.96414  -0.96073
 Alpha  occ. eigenvalues --   -0.87063  -0.86622  -0.83257  -0.82877  -0.78299
 Alpha  occ. eigenvalues --   -0.77914  -0.72776  -0.72470  -0.71928  -0.71607
 Alpha  occ. eigenvalues --   -0.71281  -0.71008  -0.65884  -0.65668  -0.65476
 Alpha  occ. eigenvalues --   -0.65235  -0.63015  -0.62578  -0.56108  -0.55773
 Alpha  occ. eigenvalues --   -0.54361  -0.53727  -0.53453  -0.53080  -0.49550
 Alpha  occ. eigenvalues --   -0.49529  -0.49231  -0.49223  -0.45509  -0.45221
 Alpha  occ. eigenvalues --   -0.38756  -0.37763  -0.37170  -0.36480
 Alpha virt. eigenvalues --    0.04198   0.04542   0.10023   0.11153   0.15494
 Alpha virt. eigenvalues --    0.16159   0.19666   0.21621   0.25355   0.26836
 Alpha virt. eigenvalues --    0.27599   0.28594   0.29680   0.31593   0.31967

 Mulliken charges:
               1
     1  C   -0.164132
     2  C   -0.221251
     3  C   -0.171885
     4  C    0.156995
     5  C   -0.180288
     6  C   -0.222415
     7  H    0.231369
     8  H    0.229303
     9  H    0.279374
    10  H    0.275674
    11  H    0.219870
    12  N    0.488008
    13  O   -0.459699
    14  O   -0.456993
    15  C   -0.176747
    16  C   -0.220225
    17  C   -0.172782
    18  C    0.158716
    19  C   -0.176103
    20  C   -0.212337
    21  H    0.219458
    22  H    0.223097
    23  H    0.276260
    24  H    0.276611
    25  H    0.231314
    26  N    0.487766
    27  O   -0.459398
    28  O   -0.459560
 Sum of Mulliken charges =  -0.00000

 Dipole moment (field-independent basis, Debye):
    X=             -0.0145    Y=              4.3060    Z=              2.9760  Tot=              5.2343
 Quadrupole moment (field-independent basis, Debye-Ang):
   XX=           -154.0920   YY=            -98.9631   ZZ=           -103.7220
   XY=            -11.4207   XZ=             10.2517   YZ=             -1.9566

 Normal termination of Gaussian 16 at Thu May  6 03:21:47 2021.
