 Gaussian 16, Revision A.03,
 Gaussian 16:  EM64L-G16RevA.03 25-Dec-2016

 -------------
 #p 6-31g* mp2
 -------------

 ------------------------------------------------------
 Input file generated by CHIRIPA (05-May-2021 14:55:24)
 ------------------------------------------------------
 Symbolic Z-matrix:
 Charge =  0 Multiplicity = 1

                         Standard orientation:
 ---------------------------------------------------------------------
 Center     Atomic      Atomic             Coordinates (Angstroms)
 Number     Number       Type             X           Y           Z
 ---------------------------------------------------------------------
      1          6           0       -3.672690    2.604193    0.137273
      2          6           0       -4.246786    1.748850   -0.808943
      3          6           0       -3.879347    0.401035   -0.863088
      4          6           0       -2.930492   -0.059921    0.048221
      5          6           0       -2.340532    0.767372    1.002592
      6          6           0       -2.723070    2.111592    1.038432
      7          1           0       -3.963990    3.649812    0.172224
      8          1           0       -4.984525    2.128650   -1.510040
      9          1           0       -4.307932   -0.283120   -1.585352
     10          1           0       -1.607772    0.359692    1.688360
     11          1           0       -2.275558    2.773559    1.774351
     12          7           0       -2.533509   -1.484889    0.000590
     13          8           0       -1.695326   -1.866445    0.814532
     14          8           0       -3.068054   -2.193243   -0.849784
     15          6           0        4.097006    0.417594   -0.392921
     16          6           0        5.425611    0.891783    0.196943
     17          6           0        5.937319    2.176251   -0.455813
     18          1           0        4.218724    0.258331   -1.473091
     19          1           0        3.347613    1.212767   -0.276703
     20          1           0        6.171911    0.095426    0.080888
     21          1           0        5.300768    1.049752    1.275867
     22          1           0        5.213879    2.987978   -0.328005
     23          1           0        6.089972    2.028230   -1.529772
     24          1           0        6.888128    2.497306   -0.019069
     25          6           0        3.572548   -0.865418    0.249379
     26          6           0        2.243945   -1.339606   -0.340486
     27          6           0        1.732237   -2.624075    0.312270
     28          1           0        4.321942   -1.660590    0.133161
     29          1           0        3.450831   -0.706155    1.329548
     30          1           0        2.368788   -1.497576   -1.419409
     31          1           0        1.497644   -0.543250   -0.224432
     32          1           0        1.579583   -2.476054    1.386230
     33          1           0        2.455676   -3.435801    0.184461
     34          1           0        0.781428   -2.945130   -0.124474
 ---------------------------------------------------------------------

 SCF Done:  E(RHF) =  -669.535965558     A.U. after   15 cycles
 E2 =    -0.2091279102D+01 EUMP2 =    -0.67162724465943D+03

 The electronic state is 1-A.
 Alpha  occ. eigenvalues --  -20.60943 -20.60921 -15.85955 -11.31288 -11.27852
 Alpha  occ. eigenvalues --  -11.27846 -11.27588 -11.26861 -11.26851 -11.21378
 Alpha  occ. eigenvalues --  -11.21057 -11.20941 -11.20854 -11.20784 -11.19697
 Alpha  occ. eigenvalues --   -1.59993  -1.39548  -1.19456  -1.08859  -1.07958
 Alpha  occ. eigenvalues --   -1.04853  -1.02942  -0.95706  -0.95352  -0.86373
 Alpha  occ. eigenvalues --   -0.86251  -0.82532  -0.79046  -0.77745  -0.77585
 Alpha  occ. eigenvalues --   -0.72182  -0.71308  -0.70564  -0.65112  -0.64857
 Alpha  occ. eigenvalues --   -0.64602  -0.62201  -0.60351  -0.58781  -0.56951
 Alpha  occ. eigenvalues --   -0.55357  -0.54664  -0.53186  -0.52946  -0.51994
 Alpha  occ. eigenvalues --   -0.51792  -0.49340  -0.48943  -0.48918  -0.47330
 Alpha  occ. eigenvalues --   -0.46117  -0.45276  -0.45212  -0.44933  -0.43153
 Alpha  occ. eigenvalues --   -0.37432  -0.36454
 Alpha virt. eigenvalues --    0.04919   0.11183   0.16403   0.21264   0.23235
 Alpha virt. eigenvalues --    0.24819   0.26873   0.27326   0.27828   0.28212
 Alpha virt. eigenvalues --    0.28823   0.30835   0.31721   0.32157   0.32788

 Mulliken charges:
               1
     1  C   -0.170596
     2  C   -0.218491
     3  C   -0.170733
     4  C    0.158464
     5  C   -0.171221
     6  C   -0.218463
     7  H    0.226000
     8  H    0.223835
     9  H    0.275861
    10  H    0.275800
    11  H    0.223758
    12  N    0.488427
    13  O   -0.458925
    14  O   -0.459497
    15  C   -0.297045
    16  C   -0.299080
    17  C   -0.475163
    18  H    0.149316
    19  H    0.145581
    20  H    0.152385
    21  H    0.150582
    22  H    0.153018
    23  H    0.155142
    24  H    0.159356
    25  C   -0.297395
    26  C   -0.299406
    27  C   -0.475263
    28  H    0.149254
    29  H    0.147221
    30  H    0.149270
    31  H    0.146102
    32  H    0.153918
    33  H    0.146807
    34  H    0.181179
 Sum of Mulliken charges =  -0.00000

 Dipole moment (field-independent basis, Debye):
    X=             -1.6635    Y=              4.9296    Z=              0.1712  Tot=              5.2056
 Quadrupole moment (field-independent basis, Debye-Ang):
   XX=            -85.7376   YY=            -96.2474   ZZ=            -91.8951
   XY=            -15.1183   XZ=              2.1138   YZ=              1.6783

 Normal termination of Gaussian 16 at Wed May  5 19:09:56 2021.
