 Gaussian 16, Revision A.03,
 Gaussian 16:  EM64L-G16RevA.03 25-Dec-2016

 -------------
 #p 6-31g* mp2
 -------------

 ------------------------------------------------------
 Input file generated by CHIRIPA (05-May-2021 14:53:12)
 ------------------------------------------------------
 Symbolic Z-matrix:
 Charge =  0 Multiplicity = 1

                         Standard orientation:
 ---------------------------------------------------------------------
 Center     Atomic      Atomic             Coordinates (Angstroms)
 Number     Number       Type             X           Y           Z
 ---------------------------------------------------------------------
      1          6           0       -2.868620    0.267817   -0.636080
      2          6           0       -3.012698   -1.137437   -0.050856
      3          6           0       -3.819401   -2.073117   -0.951704
      4          1           0       -3.867871    0.691532   -0.806104
      5          1           0       -2.386311    0.199594   -1.621026
      6          1           0       -3.493339   -1.066458    0.933299
      7          1           0       -2.012986   -1.557782    0.117973
      8          1           0       -3.339768   -2.173583   -1.930713
      9          1           0       -4.828532   -1.679468   -1.110754
     10          1           0       -3.910036   -3.072231   -0.514191
     11          6           0       -2.064628    1.214833    0.253013
     12          6           0       -1.920551    2.620087   -0.332211
     13          6           0       -1.113847    3.555767    0.568636
     14          1           0       -2.546937    1.283056    1.237958
     15          1           0       -1.065377    0.791118    0.423036
     16          1           0       -2.920262    3.040432   -0.501040
     17          1           0       -1.439910    2.549108   -1.316367
     18          1           0       -0.104716    3.162118    0.727686
     19          1           0       -1.593480    3.656233    1.547645
     20          1           0       -1.023212    4.554881    0.131123
     21          6           0        3.398750    1.210232   -0.849413
     22          6           0        3.337746   -0.056299   -1.439921
     23          6           0        2.525740   -1.055406   -0.894961
     24          6           0        1.784771   -0.752152    0.246221
     25          6           0        1.824252    0.500024    0.857601
     26          6           0        2.643141    1.483869    0.295445
     27          1           0        4.032209    1.980434   -1.279430
     28          1           0        3.923464   -0.271641   -2.329080
     29          1           0        2.459718   -2.044470   -1.331779
     30          1           0        1.228816    0.684845    1.743442
     31          1           0        2.688548    2.466576    0.756172
     32          7           0        0.921494   -1.801782    0.832247
     33          8           0        0.278461   -1.509421    1.838066
     34          8           0        0.904237   -2.896970    0.274660
 ---------------------------------------------------------------------

 SCF Done:  E(RHF) =  -669.535217958     A.U. after   15 cycles
 E2 =    -0.2095281259D+01 EUMP2 =    -0.67163049921689D+03

 The electronic state is 1-A.
 Alpha  occ. eigenvalues --  -20.61025 -20.61002 -15.86013 -11.31352 -11.27925
 Alpha  occ. eigenvalues --  -11.27909 -11.27652 -11.26918 -11.26907 -11.21528
 Alpha  occ. eigenvalues --  -11.21311 -11.20982 -11.20837 -11.20602 -11.20244
 Alpha  occ. eigenvalues --   -1.60072  -1.39623  -1.19534  -1.08929  -1.07998
 Alpha  occ. eigenvalues --   -1.04928  -1.03101  -0.95769  -0.95603  -0.86642
 Alpha  occ. eigenvalues --   -0.86316  -0.82602  -0.79204  -0.77815  -0.77569
 Alpha  occ. eigenvalues --   -0.72239  -0.71413  -0.70631  -0.65183  -0.64923
 Alpha  occ. eigenvalues --   -0.64640  -0.62275  -0.60505  -0.59013  -0.57164
 Alpha  occ. eigenvalues --   -0.55420  -0.54937  -0.53262  -0.53008  -0.52306
 Alpha  occ. eigenvalues --   -0.52028  -0.49610  -0.49025  -0.49009  -0.47473
 Alpha  occ. eigenvalues --   -0.46232  -0.45614  -0.45211  -0.44570  -0.43338
 Alpha  occ. eigenvalues --   -0.37489  -0.36469
 Alpha virt. eigenvalues --    0.04802   0.11022   0.16164   0.20656   0.23304
 Alpha virt. eigenvalues --    0.24457   0.26135   0.27219   0.27655   0.28249
 Alpha virt. eigenvalues --    0.29344   0.30273   0.31679   0.32248   0.32526

 Mulliken charges:
               1
     1  C   -0.299470
     2  C   -0.303206
     3  C   -0.475064
     4  H    0.147062
     5  H    0.145326
     6  H    0.153162
     7  H    0.167341
     8  H    0.151883
     9  H    0.150216
    10  H    0.163950
    11  C   -0.301820
    12  C   -0.298003
    13  C   -0.477000
    14  H    0.151497
    15  H    0.151032
    16  H    0.152609
    17  H    0.150087
    18  H    0.144907
    19  H    0.157072
    20  H    0.158825
    21  C   -0.170890
    22  C   -0.218608
    23  C   -0.170766
    24  C    0.159480
    25  C   -0.172357
    26  C   -0.219082
    27  H    0.226681
    28  H    0.224216
    29  H    0.276146
    30  H    0.277997
    31  H    0.225598
    32  N    0.486463
    33  O   -0.456437
    34  O   -0.458850
 Sum of Mulliken charges =  -0.00000

 Dipole moment (field-independent basis, Debye):
    X=              3.1859    Y=              3.5048    Z=             -1.9734  Tot=              5.1311
 Quadrupole moment (field-independent basis, Debye-Ang):
   XX=            -83.7378   YY=            -99.5183   ZZ=            -93.6924
   XY=              2.8547   XZ=             -5.3496   YZ=              4.6658

 Normal termination of Gaussian 16 at Thu May  6 08:54:22 2021.
