 Gaussian 16, Revision A.03,
 Gaussian 16:  EM64L-G16RevA.03 25-Dec-2016

 -------------
 #p 6-31g* mp2
 -------------

 ------------------------------------------------------
 Input file generated by CHIRIPA (05-May-2021 14:51:14)
 ------------------------------------------------------
 Symbolic Z-matrix:
 Charge =  0 Multiplicity = 1

                         Standard orientation:
 ---------------------------------------------------------------------
 Center     Atomic      Atomic             Coordinates (Angstroms)
 Number     Number       Type             X           Y           Z
 ---------------------------------------------------------------------
      1          6           0       -2.252704   -0.977570    0.333735
      2          6           0       -1.829229   -2.214898   -0.458523
      3          6           0       -0.656666   -2.955959    0.184686
      4          1           0       -1.394410   -0.298153    0.426842
      5          1           0       -2.524366   -1.279713    1.354668
      6          1           0       -1.559770   -1.910700   -1.478068
      7          1           0       -2.688684   -2.891360   -0.549919
      8          1           0       -0.917943   -3.287406    1.194873
      9          1           0        0.217385   -2.301173    0.261451
     10          1           0       -0.370370   -3.837054   -0.398036
     11          6           0       -3.423830   -0.226077   -0.296703
     12          6           0       -3.847305    1.011251    0.495555
     13          6           0       -5.019868    1.752312   -0.147654
     14          1           0       -3.152169    0.076067   -1.317636
     15          1           0       -4.282124   -0.905494   -0.389810
     16          1           0       -2.987851    1.687714    0.586951
     17          1           0       -4.116764    0.707053    1.515099
     18          1           0       -5.893919    1.097526   -0.224420
     19          1           0       -4.758591    2.083759   -1.157842
     20          1           0       -5.306165    2.633408    0.435067
     21          6           0        2.609394   -0.123785   -0.085910
     22          6           0        3.737321   -1.136486    0.114594
     23          6           0        3.263802   -2.583745   -0.023291
     24          1           0        1.813254   -0.321792    0.644774
     25          1           0        2.165274   -0.272116   -1.079969
     26          1           0        4.180092   -0.985378    1.107437
     27          1           0        4.530953   -0.935924   -0.616528
     28          1           0        2.840554   -2.757493   -1.017914
     29          1           0        2.487701   -2.807228    0.715845
     30          1           0        4.086074   -3.290924    0.123771
     31          6           0        3.067141    1.327431    0.048879
     32          6           0        1.939214    2.340132   -0.151626
     33          6           0        2.412731    3.787392   -0.013740
     34          1           0        3.511260    1.475763    1.042937
     35          1           0        3.863280    1.525438   -0.681806
     36          1           0        1.145580    2.139571    0.579495
     37          1           0        1.496441    2.189024   -1.144468
     38          1           0        3.188834    4.010875   -0.752876
     39          1           0        2.835980    3.961140    0.980882
     40          1           0        1.590461    4.494572   -0.160802
 ---------------------------------------------------------------------

 SCF Done:  E(RHF) =  -470.732600374     A.U. after   11 cycles
 E2 =    -0.1583795366D+01 EUMP2 =    -0.47231639573988D+03

 The electronic state is 1-A.
 Alpha  occ. eigenvalues --  -11.21673 -11.21625 -11.21577 -11.21525 -11.21476
 Alpha  occ. eigenvalues --  -11.21415 -11.21364 -11.21303 -11.21121 -11.21053
 Alpha  occ. eigenvalues --  -11.21007 -11.20907  -1.08495  -1.08378  -1.03584
 Alpha  occ. eigenvalues --   -1.03461  -0.96033  -0.95907  -0.87064  -0.86914
 Alpha  occ. eigenvalues --   -0.79708  -0.79482  -0.78358  -0.78151  -0.65148
 Alpha  occ. eigenvalues --   -0.64988  -0.61018  -0.60844  -0.59397  -0.59292
 Alpha  occ. eigenvalues --   -0.57663  -0.57517  -0.55335  -0.55182  -0.52710
 Alpha  occ. eigenvalues --   -0.52700  -0.52430  -0.52283  -0.49998  -0.49866
 Alpha  occ. eigenvalues --   -0.48083  -0.47739  -0.46754  -0.46550  -0.46022
 Alpha  occ. eigenvalues --   -0.45784  -0.45697  -0.45279  -0.43827  -0.43727
 Alpha virt. eigenvalues --    0.21034   0.23110   0.23428   0.24544   0.25181
 Alpha virt. eigenvalues --    0.26669   0.26953   0.27372   0.28765   0.29653
 Alpha virt. eigenvalues --    0.30386   0.31100   0.31539   0.31905   0.32138

 Mulliken charges:
               1
     1  C   -0.300141
     2  C   -0.299030
     3  C   -0.484207
     4  H    0.151014
     5  H    0.149007
     6  H    0.151381
     7  H    0.151335
     8  H    0.153418
     9  H    0.166225
    10  H    0.160097
    11  C   -0.298072
    12  C   -0.299691
    13  C   -0.475664
    14  H    0.149511
    15  H    0.149592
    16  H    0.151964
    17  H    0.151718
    18  H    0.155135
    19  H    0.155164
    20  H    0.160116
    21  C   -0.302814
    22  C   -0.299696
    23  C   -0.479289
    24  H    0.152355
    25  H    0.149621
    26  H    0.151914
    27  H    0.151939
    28  H    0.155497
    29  H    0.160523
    30  H    0.160058
    31  C   -0.297917
    32  C   -0.300347
    33  C   -0.475724
    34  H    0.149911
    35  H    0.150111
    36  H    0.151961
    37  H    0.151733
    38  H    0.155424
    39  H    0.155478
    40  H    0.160390
 Sum of Mulliken charges =  -0.00000

 Dipole moment (field-independent basis, Debye):
    X=              0.0573    Y=              0.0087    Z=              0.0037  Tot=              0.0581
 Quadrupole moment (field-independent basis, Debye-Ang):
   XX=            -85.1030   YY=            -86.0955   ZZ=            -83.6020
   XY=              0.6696   XZ=             -0.8347   YZ=             -0.2039

 Normal termination of Gaussian 16 at Thu May  6 05:37:10 2021.
