 Gaussian 16, Revision A.03,
 Gaussian 16:  EM64L-G16RevA.03 25-Dec-2016

 -------------
 #p 6-31g* mp2
 -------------

 ------------------------------------------------------
 Input file generated by CHIRIPA (05-May-2021 14:57:23)
 ------------------------------------------------------
 Symbolic Z-matrix:
 Charge =  0 Multiplicity = 1

                         Standard orientation:
 ---------------------------------------------------------------------
 Center     Atomic      Atomic             Coordinates (Angstroms)
 Number     Number       Type             X           Y           Z
 ---------------------------------------------------------------------
      1          6           0        3.491436    1.833275    0.624809
      2          6           0        2.435486    2.161841   -0.231657
      3          6           0        1.695297    1.158223   -0.863653
      4          6           0        2.039921   -0.169523   -0.615430
      5          6           0        3.086435   -0.528803    0.232518
      6          6           0        3.812974    0.491367    0.853759
      7          1           0        4.061131    2.619339    1.111581
      8          1           0        2.183530    3.203130   -0.411323
      9          1           0        0.872912    1.384420   -1.531438
     10          1           0        3.313945   -1.575808    0.392015
     11          1           0        4.632526    0.233247    1.518405
     12          7           0        1.263542   -1.240770   -1.278804
     13          8           0        1.587125   -2.402922   -1.043569
     14          8           0        0.346133   -0.897978   -2.021429
     15          6           0       -3.429713    1.609132   -0.964178
     16          6           0       -3.393886    0.249025   -1.288748
     17          6           0       -2.697836   -0.655502   -0.481348
     18          6           0       -2.045889   -0.163277    0.648239
     19          6           0       -2.063097    1.186008    0.998132
     20          6           0       -2.765375    2.072466    0.176215
     21          1           0       -3.972839    2.304771   -1.597024
     22          1           0       -3.908900   -0.113636   -2.173781
     23          1           0       -2.653790   -1.713590   -0.709222
     24          1           0       -1.540011    1.517710    1.886824
     25          1           0       -2.791488    3.128204    0.430733
     26          7           0       -1.305715   -1.111294    1.510682
     27          8           0       -0.739533   -0.652469    2.500407
     28          8           0       -1.305765   -2.295223    1.180609
 ---------------------------------------------------------------------

 SCF Done:  E(RHF) =  -868.337721581     A.U. after   16 cycles
 E2 =    -0.2602940326D+01 EUMP2 =    -0.87094066190664D+03

 The electronic state is 1-A.
 Alpha  occ. eigenvalues --  -20.60525 -20.60442 -20.60320 -20.60228 -15.85505
 Alpha  occ. eigenvalues --  -15.85307 -11.30849 -11.30589 -11.27491 -11.27379
 Alpha  occ. eigenvalues --  -11.27325 -11.27208 -11.27104 -11.27032 -11.26505
 Alpha  occ. eigenvalues --  -11.26394 -11.26319 -11.26118  -1.59550  -1.59358
 Alpha  occ. eigenvalues --   -1.39100  -1.38904  -1.19033  -1.18815  -1.08445
 Alpha  occ. eigenvalues --   -1.08243  -1.04437  -1.04204  -0.95286  -0.95067
 Alpha  occ. eigenvalues --   -0.85844  -0.85618  -0.82117  -0.81899  -0.77158
 Alpha  occ. eigenvalues --   -0.76937  -0.71754  -0.71533  -0.71244  -0.70332
 Alpha  occ. eigenvalues --   -0.70159  -0.69950  -0.64699  -0.64478  -0.64458
 Alpha  occ. eigenvalues --   -0.64231  -0.61790  -0.61551  -0.54965  -0.54767
 Alpha  occ. eigenvalues --   -0.52772  -0.52611  -0.52474  -0.52310  -0.48531
 Alpha  occ. eigenvalues --   -0.48478  -0.48307  -0.48275  -0.44527  -0.44277
 Alpha  occ. eigenvalues --   -0.37054  -0.36811  -0.36090  -0.35637
 Alpha virt. eigenvalues --    0.05057   0.05881   0.11492   0.11992   0.16857
 Alpha virt. eigenvalues --    0.17066   0.21666   0.21908   0.27564   0.27824
 Alpha virt. eigenvalues --    0.28577   0.28823   0.31117   0.31413   0.32816

 Mulliken charges:
               1
     1  C   -0.169593
     2  C   -0.219819
     3  C   -0.171954
     4  C    0.155513
     5  C   -0.163556
     6  C   -0.217022
     7  H    0.224183
     8  H    0.218980
     9  H    0.273167
    10  H    0.279130
    11  H    0.224200
    12  N    0.486537
    13  O   -0.449449
    14  O   -0.469417
    15  C   -0.171788
    16  C   -0.218366
    17  C   -0.149928
    18  C    0.151154
    19  C   -0.173416
    20  C   -0.223759
    21  H    0.222841
    22  H    0.224530
    23  H    0.282800
    24  H    0.271582
    25  H    0.217869
    26  N    0.483481
    27  O   -0.467016
    28  O   -0.450885
 Sum of Mulliken charges =  -0.00000

 Dipole moment (field-independent basis, Debye):
    X=              0.2209    Y=              6.6288    Z=             -0.7766  Tot=              6.6778
 Quadrupole moment (field-independent basis, Debye-Ang):
   XX=            -81.7627   YY=           -102.5721   ZZ=           -110.2960
   XY=              0.0165   XZ=             10.7927   YZ=              0.8624

 Normal termination of Gaussian 16 at Thu May  6 21:11:25 2021.
