 Gaussian 16, Revision A.03,
 Gaussian 16:  EM64L-G16RevA.03 25-Dec-2016

 -------------
 #p 6-31g* mp2
 -------------

 ------------------------------------------------------
 Input file generated by CHIRIPA (05-May-2021 14:51:09)
 ------------------------------------------------------
 Symbolic Z-matrix:
 Charge =  0 Multiplicity = 1

                         Standard orientation:
 ---------------------------------------------------------------------
 Center     Atomic      Atomic             Coordinates (Angstroms)
 Number     Number       Type             X           Y           Z
 ---------------------------------------------------------------------
      1          6           0        4.037256    0.314516   -0.621805
      2          6           0        2.866442    0.945447    0.132585
      3          6           0        1.801326    1.519350   -0.802272
      4          1           0        4.491638    1.069271   -1.278179
      5          1           0        3.656157   -0.480920   -1.277122
      6          1           0        3.249803    1.738528    0.787316
      7          1           0        2.414915    0.189154    0.787383
      8          1           0        1.391251    0.734984   -1.446640
      9          1           0        2.230883    2.293162   -1.446707
     10          1           0        0.973637    1.965378   -0.242049
     11          6           0        5.110260   -0.263638    0.299134
     12          6           0        6.281074   -0.894569   -0.455256
     13          6           0        7.346190   -1.468472    0.479601
     14          1           0        5.491360    0.531798    0.954451
     15          1           0        4.655879   -1.018393    0.955508
     16          1           0        6.732602   -0.138276   -1.110053
     17          1           0        5.897714   -1.687651   -1.109987
     18          1           0        6.916634   -2.242284    1.124036
     19          1           0        7.756266   -0.684106    1.123969
     20          1           0        8.173880   -1.914500   -0.080621
     21          6           0       -4.015611    0.467307   -0.009269
     22          6           0       -2.848417    0.426849    0.977649
     23          6           0       -1.739731    1.418215    0.622964
     24          1           0       -3.640675    0.254202   -1.019692
     25          1           0       -4.427978    1.485427   -0.037165
     26          1           0       -2.439259   -0.591224    1.004706
     27          1           0       -3.226207    0.639886    1.985868
     28          1           0       -2.126704    2.442321    0.615103
     29          1           0       -1.335285    1.204215   -0.371635
     30          1           0       -0.915379    1.372542    1.341448
     31          6           0       -5.131905   -0.518184    0.331940
     32          6           0       -6.299099   -0.477727   -0.654978
     33          6           0       -7.407786   -1.469093   -0.300293
     34          1           0       -4.719540   -1.536305    0.359836
     35          1           0       -5.506842   -0.305079    1.342363
     36          1           0       -5.921309   -0.690764   -1.663198
     37          1           0       -6.708258    0.540347   -0.682036
     38          1           0       -7.812232   -1.255092    0.694306
     39          1           0       -7.020813   -2.493198   -0.292431
     40          1           0       -8.232137   -1.423421   -1.018777
 ---------------------------------------------------------------------

 SCF Done:  E(RHF) =  -470.732525062     A.U. after   11 cycles
 E2 =    -0.1582606421D+01 EUMP2 =    -0.47231513148313D+03

 The electronic state is 1-A.
 Alpha  occ. eigenvalues --  -11.21600 -11.21591 -11.21581 -11.21542 -11.21403
 Alpha  occ. eigenvalues --  -11.21369 -11.21343 -11.21308 -11.21071 -11.21056
 Alpha  occ. eigenvalues --  -11.21033 -11.20896  -1.08429  -1.08387  -1.03548
 Alpha  occ. eigenvalues --   -1.03460  -0.96046  -0.95867  -0.87112  -0.86842
 Alpha  occ. eigenvalues --   -0.79664  -0.79482  -0.78242  -0.78203  -0.65067
 Alpha  occ. eigenvalues --   -0.65014  -0.60990  -0.60837  -0.59537  -0.59151
 Alpha  occ. eigenvalues --   -0.57608  -0.57524  -0.55366  -0.55124  -0.53008
 Alpha  occ. eigenvalues --   -0.52520  -0.52352  -0.52155  -0.50000  -0.49756
 Alpha  occ. eigenvalues --   -0.47918  -0.47846  -0.46662  -0.46531  -0.45782
 Alpha  occ. eigenvalues --   -0.45745  -0.45708  -0.45667  -0.43906  -0.43553
 Alpha virt. eigenvalues --    0.22353   0.23013   0.23614   0.24910   0.26511
 Alpha virt. eigenvalues --    0.26703   0.27075   0.27221   0.27674   0.29196
 Alpha virt. eigenvalues --    0.29924   0.31089   0.31431   0.31743   0.32232

 Mulliken charges:
               1
     1  C   -0.298229
     2  C   -0.299728
     3  C   -0.482197
     4  H    0.149626
     5  H    0.149249
     6  H    0.151496
     7  H    0.151388
     8  H    0.153064
     9  H    0.153848
    10  H    0.171888
    11  C   -0.298218
    12  C   -0.299595
    13  C   -0.475672
    14  H    0.149434
    15  H    0.149461
    16  H    0.151912
    17  H    0.151818
    18  H    0.155107
    19  H    0.155154
    20  H    0.160166
    21  C   -0.298599
    22  C   -0.299967
    23  C   -0.479585
    24  H    0.149782
    25  H    0.149548
    26  H    0.151771
    27  H    0.151676
    28  H    0.154882
    29  H    0.160237
    30  H    0.160325
    31  C   -0.298292
    32  C   -0.299630
    33  C   -0.475699
    34  H    0.149440
    35  H    0.149657
    36  H    0.151945
    37  H    0.151951
    38  H    0.155175
    39  H    0.155147
    40  H    0.160262
 Sum of Mulliken charges =  -0.00000

 Dipole moment (field-independent basis, Debye):
    X=             -0.0336    Y=              0.0183    Z=              0.0020  Tot=              0.0383
 Quadrupole moment (field-independent basis, Debye-Ang):
   XX=            -86.0698   YY=            -84.0816   ZZ=            -84.8305
   XY=             -0.0922   XZ=             -0.5671   YZ=              0.7649

 Normal termination of Gaussian 16 at Thu May  6 00:35:29 2021.
