 Gaussian 16, Revision A.03,
 Gaussian 16:  EM64L-G16RevA.03 25-Dec-2016

 -------------
 #p 6-31g* mp2
 -------------

 ------------------------------------------------------
 Input file generated by CHIRIPA (05-May-2021 14:57:23)
 ------------------------------------------------------
 Symbolic Z-matrix:
 Charge =  0 Multiplicity = 1

                         Standard orientation:
 ---------------------------------------------------------------------
 Center     Atomic      Atomic             Coordinates (Angstroms)
 Number     Number       Type             X           Y           Z
 ---------------------------------------------------------------------
      1          6           0        5.746732   -0.733476    0.324298
      2          6           0        4.921937   -1.559495   -0.446368
      3          6           0        3.604517   -1.184819   -0.726672
      4          6           0        3.142475    0.028084   -0.218072
      5          6           0        3.939738    0.872730    0.552795
      6          6           0        5.253869    0.477865    0.820545
      7          1           0        6.768858   -1.032375    0.537168
      8          1           0        5.302017   -2.500795   -0.833071
      9          1           0        2.944369   -1.805181   -1.320619
     10          1           0        3.532583    1.805203    0.924463
     11          1           0        5.892150    1.121366    1.419334
     12          7           0        1.749523    0.435424   -0.508171
     13          8           0        1.366333    1.508941   -0.048429
     14          8           0        1.067292   -0.326534   -1.189801
     15          6           0       -2.458594    2.386438    0.024348
     16          6           0       -3.429524    1.955312   -0.885568
     17          6           0       -3.942766    0.656840   -0.814138
     18          6           0       -3.460360   -0.187887    0.184366
     19          6           0       -2.493544    0.212216    1.105492
     20          6           0       -1.994521    1.515050    1.015227
     21          1           0       -2.065417    3.396816   -0.038457
     22          1           0       -3.791781    2.629874   -1.656140
     23          1           0       -4.694909    0.297103   -1.505722
     24          1           0       -2.151956   -0.483080    1.862656
     25          1           0       -1.240534    1.847146    1.723225
     26          7           0       -3.996181   -1.564829    0.269955
     27          8           0       -3.554693   -2.289734    1.158909
     28          8           0       -4.847499   -1.893099   -0.553533
 ---------------------------------------------------------------------

 SCF Done:  E(RHF) =  -868.338937083     A.U. after   16 cycles
 E2 =    -0.2599421549D+01 EUMP2 =    -0.87093835863239D+03

 The electronic state is 1-A.
 Alpha  occ. eigenvalues --  -20.61379 -20.61309 -20.59688 -20.59683 -15.86382
 Alpha  occ. eigenvalues --  -15.84730 -11.31597 -11.29806 -11.28178 -11.28113
 Alpha  occ. eigenvalues --  -11.27853 -11.27140 -11.27097 -11.26370 -11.26306
 Alpha  occ. eigenvalues --  -11.25991 -11.25361 -11.25223  -1.60408  -1.58766
 Alpha  occ. eigenvalues --   -1.39970  -1.38330  -1.19753  -1.17928  -1.09175
 Alpha  occ. eigenvalues --   -1.07374  -1.05133  -1.03310  -0.96036  -0.94273
 Alpha  occ. eigenvalues --   -0.86538  -0.84725  -0.82876  -0.81135  -0.77941
 Alpha  occ. eigenvalues --   -0.76224  -0.72615  -0.71727  -0.70968  -0.70857
 Alpha  occ. eigenvalues --   -0.70073  -0.69071  -0.65410  -0.65131  -0.63604
 Alpha  occ. eigenvalues --   -0.63334  -0.62482  -0.60699  -0.55635  -0.53824
 Alpha  occ. eigenvalues --   -0.53471  -0.53221  -0.51638  -0.51436  -0.49360
 Alpha  occ. eigenvalues --   -0.49309  -0.47732  -0.47693  -0.45407  -0.43804
 Alpha  occ. eigenvalues --   -0.37725  -0.36729  -0.35829  -0.34843
 Alpha virt. eigenvalues --    0.04565   0.06319   0.10927   0.12807   0.16093
 Alpha virt. eigenvalues --    0.17915   0.21090   0.22771   0.27007   0.27941
 Alpha virt. eigenvalues --    0.28651   0.29613   0.30665   0.32127   0.32358

 Mulliken charges:
               1
     1  C   -0.170177
     2  C   -0.218398
     3  C   -0.170223
     4  C    0.157830
     5  C   -0.171452
     6  C   -0.218389
     7  H    0.227185
     8  H    0.225765
     9  H    0.278136
    10  H    0.272579
    11  H    0.223943
    12  N    0.488561
    13  O   -0.469777
    14  O   -0.453743
    15  C   -0.164348
    16  C   -0.218185
    17  C   -0.171731
    18  C    0.160220
    19  C   -0.171178
    20  C   -0.200091
    21  H    0.223233
    22  H    0.218041
    23  H    0.270544
    24  H    0.269257
    25  H    0.223189
    26  N    0.488484
    27  O   -0.464769
    28  O   -0.464505
 Sum of Mulliken charges =  -0.00000

 Dipole moment (field-independent basis, Debye):
    X=              7.2329    Y=              3.4352    Z=              0.6568  Tot=              8.0341
 Quadrupole moment (field-independent basis, Debye-Ang):
   XX=            -87.1251   YY=           -103.9923   ZZ=           -101.9968
   XY=            -22.2620   XZ=              6.6710   YZ=              3.2293

 Normal termination of Gaussian 16 at Thu May  6 03:26:21 2021.
