 Gaussian 16, Revision A.03,
 Gaussian 16:  EM64L-G16RevA.03 25-Dec-2016

 -------------
 #p 6-31g* mp2
 -------------

 ------------------------------------------------------
 Input file generated by CHIRIPA (05-May-2021 14:53:12)
 ------------------------------------------------------
 Symbolic Z-matrix:
 Charge =  0 Multiplicity = 1

                         Standard orientation:
 ---------------------------------------------------------------------
 Center     Atomic      Atomic             Coordinates (Angstroms)
 Number     Number       Type             X           Y           Z
 ---------------------------------------------------------------------
      1          6           0       -3.007891   -0.464740   -0.209160
      2          6           0       -3.743318   -1.771948   -0.506379
      3          6           0       -2.793289   -2.955032   -0.694924
      4          1           0       -2.310036   -0.249273   -1.029842
      5          1           0       -2.396919   -0.593287    0.695043
      6          1           0       -4.353796   -1.640546   -1.408967
      7          1           0       -4.439642   -1.984228    0.315014
      8          1           0       -2.193031   -3.114568    0.206652
      9          1           0       -2.106696   -2.768933   -1.527125
     10          1           0       -3.340071   -3.879244   -0.906397
     11          6           0       -3.944141    0.727185   -0.018166
     12          6           0       -3.208714    2.034393    0.279052
     13          6           0       -4.158743    3.217478    0.467597
     14          1           0       -4.555113    0.855732   -0.922370
     15          1           0       -4.641996    0.511718    0.802515
     16          1           0       -2.512390    2.246674   -0.542341
     17          1           0       -2.598237    1.902991    1.181641
     18          1           0       -4.845336    3.031378    1.299799
     19          1           0       -4.759002    3.377014   -0.433978
     20          1           0       -3.611961    4.141690    0.679070
     21          6           0        4.748939    1.107512   -0.787234
     22          6           0        3.620030    0.956997   -1.599288
     23          6           0        2.487811    0.288372   -1.124346
     24          6           0        2.519066   -0.219499    0.173492
     25          6           0        3.628589   -0.085685    1.006764
     26          6           0        4.749614    0.586610    0.510910
     27          1           0        5.624126    1.628342   -1.164303
     28          1           0        3.616677    1.360509   -2.607857
     29          1           0        1.600403    0.157598   -1.731654
     30          1           0        3.602127   -0.498760    2.007806
     31          1           0        5.624930    0.702009    1.143801
     32          7           0        1.326362   -0.929285    0.687359
     33          8           0        1.379058   -1.367572    1.834427
     34          8           0        0.361407   -1.033888   -0.066668
 ---------------------------------------------------------------------

 SCF Done:  E(RHF) =  -669.535561208     A.U. after   15 cycles
 E2 =    -0.2092046617D+01 EUMP2 =    -0.67162760782520D+03

 The electronic state is 1-A.
 Alpha  occ. eigenvalues --  -20.60968 -20.60939 -15.85976 -11.31304 -11.27869
 Alpha  occ. eigenvalues --  -11.27864 -11.27603 -11.26875 -11.26865 -11.20790
 Alpha  occ. eigenvalues --  -11.20461 -11.20295 -11.20240 -11.19728 -11.19486
 Alpha  occ. eigenvalues --   -1.60017  -1.39574  -1.19472  -1.08878  -1.07218
 Alpha  occ. eigenvalues --   -1.04869  -1.02388  -0.95720  -0.94815  -0.86270
 Alpha  occ. eigenvalues --   -0.85830  -0.82561  -0.78507  -0.77630  -0.76909
 Alpha  occ. eigenvalues --   -0.72181  -0.71327  -0.70582  -0.65127  -0.64873
 Alpha  occ. eigenvalues --   -0.63871  -0.62217  -0.59805  -0.58232  -0.56409
 Alpha  occ. eigenvalues --   -0.55373  -0.54101  -0.53200  -0.52962  -0.51589
 Alpha  occ. eigenvalues --   -0.51211  -0.49027  -0.48969  -0.48737  -0.46776
 Alpha  occ. eigenvalues --   -0.45560  -0.45081  -0.44410  -0.44229  -0.42608
 Alpha  occ. eigenvalues --   -0.37449  -0.36470
 Alpha virt. eigenvalues --    0.04911   0.11185   0.16401   0.21266   0.23905
 Alpha virt. eigenvalues --    0.25413   0.27049   0.27620   0.28186   0.28909
 Alpha virt. eigenvalues --    0.29113   0.30957   0.32269   0.32568   0.32730

 Mulliken charges:
               1
     1  C   -0.294790
     2  C   -0.300558
     3  C   -0.471866
     4  H    0.150340
     5  H    0.165175
     6  H    0.143846
     7  H    0.146909
     8  H    0.167534
     9  H    0.154712
    10  H    0.149717
    11  C   -0.298360
    12  C   -0.297345
    13  C   -0.474739
    14  H    0.143824
    15  H    0.146499
    16  H    0.147500
    17  H    0.153106
    18  H    0.154599
    19  H    0.152991
    20  H    0.156235
    21  C   -0.170584
    22  C   -0.218495
    23  C   -0.170460
    24  C    0.157813
    25  C   -0.170627
    26  C   -0.218552
    27  H    0.226035
    28  H    0.223824
    29  H    0.275241
    30  H    0.275816
    31  H    0.223836
    32  N    0.491626
    33  O   -0.460281
    34  O   -0.460522
 Sum of Mulliken charges =  -0.00000

 Dipole moment (field-independent basis, Debye):
    X=              4.5860    Y=              2.4086    Z=             -1.7112  Tot=              5.4554
 Quadrupole moment (field-independent basis, Debye-Ang):
   XX=            -74.8383   YY=            -98.1613   ZZ=            -90.8636
   XY=              5.8007   XZ=             -1.9137   YZ=             -0.6078

 Normal termination of Gaussian 16 at Wed May  5 21:43:26 2021.
