 Gaussian 16, Revision A.03,
 Gaussian 16:  EM64L-G16RevA.03 25-Dec-2016

 -------------
 #p 6-31g* mp2
 -------------

 ------------------------------------------------------
 Input file generated by CHIRIPA (05-May-2021 14:53:17)
 ------------------------------------------------------
 Symbolic Z-matrix:
 Charge =  0 Multiplicity = 1

                         Standard orientation:
 ---------------------------------------------------------------------
 Center     Atomic      Atomic             Coordinates (Angstroms)
 Number     Number       Type             X           Y           Z
 ---------------------------------------------------------------------
      1          6           0        3.776021   -0.193297   -0.419147
      2          6           0        5.076438   -0.551312    0.301079
      3          6           0        5.584637   -1.948462   -0.055991
      4          1           0        3.008812   -0.938975   -0.169547
      5          1           0        3.935612   -0.260204   -1.504251
      6          1           0        4.914825   -0.482407    1.384477
      7          1           0        5.840587    0.195411    0.049887
      8          1           0        5.773702   -2.026403   -1.131529
      9          1           0        4.842680   -2.708072    0.210644
     10          1           0        6.515152   -2.183765    0.469970
     11          6           0        3.255384    1.200425   -0.072446
     12          6           0        1.954967    1.558440   -0.792673
     13          6           0        1.446768    2.955590   -0.435602
     14          1           0        3.095793    1.267331    1.012657
     15          1           0        4.022593    1.946102   -0.322046
     16          1           0        1.190818    0.811716   -0.541480
     17          1           0        2.116580    1.489534   -1.876070
     18          1           0        2.188724    3.715200   -0.702237
     19          1           0        1.257703    3.033531    0.639935
     20          1           0        0.516253    3.190892   -0.961563
     21          6           0       -5.107945   -0.022698   -0.615898
     22          6           0       -4.297262   -0.978099   -1.237606
     23          6           0       -2.987357   -1.191952   -0.798328
     24          6           0       -2.518361   -0.429248    0.270136
     25          6           0       -3.301573    0.530046    0.910153
     26          6           0       -4.608395    0.727004    0.454110
     27          1           0       -6.124313    0.136866   -0.963650
     28          1           0       -4.682563   -1.561785   -2.068809
     29          1           0       -2.338142   -1.925059   -1.261463
     30          1           0       -2.889498    1.096535    1.736410
     31          1           0       -5.235718    1.469666    0.938843
     32          7           0       -1.133256   -0.646702    0.744053
     33          8           0       -0.743697    0.038207    1.687336
     34          8           0       -0.463395   -1.497934    0.163254
 ---------------------------------------------------------------------

 SCF Done:  E(RHF) =  -669.536608639     A.U. after   15 cycles
 E2 =    -0.2091889876D+01 EUMP2 =    -0.67162849851552D+03

 The electronic state is 1-A.
 Alpha  occ. eigenvalues --  -20.61064 -20.61053 -15.86063 -11.31342 -11.27899
 Alpha  occ. eigenvalues --  -11.27895 -11.27631 -11.26894 -11.26884 -11.20545
 Alpha  occ. eigenvalues --  -11.20368 -11.20153 -11.20151 -11.20132 -11.20052
 Alpha  occ. eigenvalues --   -1.60112  -1.39664  -1.19505  -1.08920  -1.07230
 Alpha  occ. eigenvalues --   -1.04893  -1.02451  -0.95768  -0.94916  -0.86296
 Alpha  occ. eigenvalues --   -0.85941  -0.82605  -0.78516  -0.77665  -0.77036
 Alpha  occ. eigenvalues --   -0.72283  -0.71438  -0.70615  -0.65160  -0.64897
 Alpha  occ. eigenvalues --   -0.63827  -0.62240  -0.59829  -0.58303  -0.56538
 Alpha  occ. eigenvalues --   -0.55402  -0.54185  -0.53228  -0.52984  -0.51668
 Alpha  occ. eigenvalues --   -0.51354  -0.49097  -0.49057  -0.48817  -0.46839
 Alpha  occ. eigenvalues --   -0.45512  -0.45101  -0.44585  -0.44397  -0.42678
 Alpha  occ. eigenvalues --   -0.37480  -0.36490
 Alpha virt. eigenvalues --    0.04815   0.11166   0.16309   0.21293   0.24102
 Alpha virt. eigenvalues --    0.25279   0.27226   0.27767   0.28255   0.28708
 Alpha virt. eigenvalues --    0.29032   0.30876   0.32375   0.32458   0.32768

 Mulliken charges:
               1
     1  C   -0.303207
     2  C   -0.298935
     3  C   -0.475431
     4  H    0.167326
     5  H    0.143525
     6  H    0.152851
     7  H    0.147412
     8  H    0.152255
     9  H    0.157810
    10  H    0.156458
    11  C   -0.296513
    12  C   -0.304166
    13  C   -0.475878
    14  H    0.154914
    15  H    0.142805
    16  H    0.166541
    17  H    0.144797
    18  H    0.150582
    19  H    0.160042
    20  H    0.151831
    21  C   -0.170317
    22  C   -0.218683
    23  C   -0.170556
    24  C    0.159000
    25  C   -0.170439
    26  C   -0.218693
    27  H    0.226236
    28  H    0.224051
    29  H    0.276090
    30  H    0.276069
    31  H    0.224081
    32  N    0.486816
    33  O   -0.458980
    34  O   -0.459694
 Sum of Mulliken charges =  -0.00000

 Dipole moment (field-independent basis, Debye):
    X=             -5.1939    Y=              0.5974    Z=             -1.5252  Tot=              5.4460
 Quadrupole moment (field-independent basis, Debye-Ang):
   XX=            -71.6076   YY=            -94.7497   ZZ=            -93.2142
   XY=              0.0411   XZ=              2.5484   YZ=              3.6588

 Normal termination of Gaussian 16 at Thu May  6 01:11:19 2021.
