 Gaussian 16, Revision A.03,
 Gaussian 16:  EM64L-G16RevA.03 25-Dec-2016

 -------------
 #p 6-31g* mp2
 -------------

 ------------------------------------------------------
 Input file generated by CHIRIPA (05-May-2021 14:51:10)
 ------------------------------------------------------
 Symbolic Z-matrix:
 Charge =  0 Multiplicity = 1

                         Standard orientation:
 ---------------------------------------------------------------------
 Center     Atomic      Atomic             Coordinates (Angstroms)
 Number     Number       Type             X           Y           Z
 ---------------------------------------------------------------------
      1          6           0        4.976753   -0.079874   -0.255424
      2          6           0        5.907013   -1.242036    0.093833
      3          6           0        7.179333   -1.256162   -0.753986
      4          1           0        4.709475   -0.139473   -1.319358
      5          1           0        5.518114    0.866933   -0.121705
      6          1           0        5.363628   -2.186312   -0.039176
      7          1           0        6.171954   -1.179772    1.157104
      8          1           0        7.745754   -0.329765   -0.614143
      9          1           0        6.932835   -1.342024   -1.817221
     10          1           0        7.829892   -2.095055   -0.487731
     11          6           0        3.700488   -0.052232    0.583690
     12          6           0        2.770228    1.109929    0.234433
     13          6           0        1.497908    1.124056    1.082253
     14          1           0        3.159127   -0.999039    0.449971
     15          1           0        3.967766    0.007367    1.647624
     16          1           0        2.505287    1.047666   -0.828838
     17          1           0        3.313612    2.054206    0.367442
     18          1           0        1.744406    1.209917    2.145487
     19          1           0        0.931487    0.197658    0.942410
     20          1           0        0.847349    1.962949    0.815998
     21          6           0       -3.610984    0.297464   -0.184751
     22          6           0       -3.459062    1.799764   -0.425584
     23          6           0       -1.997599    2.247457   -0.464213
     24          1           0       -3.119786    0.032759    0.761612
     25          1           0       -3.079852   -0.249252   -0.976202
     26          1           0       -3.991485    2.343477    0.365312
     27          1           0       -3.950843    2.060956   -1.371389
     28          1           0       -1.457557    1.731158   -1.264458
     29          1           0       -1.498430    2.015284    0.482110
     30          1           0       -1.912172    3.324743   -0.637463
     31          6           0       -5.066257   -0.165358   -0.143516
     32          6           0       -5.218179   -1.667657    0.097319
     33          6           0       -6.679642   -2.115350    0.135946
     34          1           0       -5.597389    0.381358    0.647935
     35          1           0       -5.557454    0.099347   -1.089878
     36          1           0       -4.726398   -1.928849    1.043123
     37          1           0       -4.685755   -2.211371   -0.693578
     38          1           0       -7.178811   -1.883179   -0.810377
     39          1           0       -7.219684   -1.599052    0.936191
     40          1           0       -6.765068   -3.192638    0.309197
 ---------------------------------------------------------------------

 SCF Done:  E(RHF) =  -470.732972981     A.U. after   11 cycles
 E2 =    -0.1582343136D+01 EUMP2 =    -0.47231531611713D+03

 The electronic state is 1-A.
 Alpha  occ. eigenvalues --  -11.21593 -11.21581 -11.21572 -11.21548 -11.21389
 Alpha  occ. eigenvalues --  -11.21372 -11.21329 -11.21312 -11.21065 -11.21056
 Alpha  occ. eigenvalues --  -11.21005 -11.20962  -1.08414  -1.08392  -1.03527
 Alpha  occ. eigenvalues --   -1.03472  -0.96010  -0.95893  -0.87064  -0.86879
 Alpha  occ. eigenvalues --   -0.79643  -0.79491  -0.78231  -0.78202  -0.65045
 Alpha  occ. eigenvalues --   -0.65024  -0.60928  -0.60880  -0.59358  -0.59311
 Alpha  occ. eigenvalues --   -0.57671  -0.57455  -0.55275  -0.55208  -0.52876
 Alpha  occ. eigenvalues --   -0.52632  -0.52391  -0.52144  -0.49923  -0.49843
 Alpha  occ. eigenvalues --   -0.47949  -0.47792  -0.46630  -0.46561  -0.45770
 Alpha  occ. eigenvalues --   -0.45747  -0.45696  -0.45666  -0.43780  -0.43683
 Alpha virt. eigenvalues --    0.22504   0.22971   0.23682   0.24708   0.26426
 Alpha virt. eigenvalues --    0.26668   0.26989   0.27442   0.27716   0.29092
 Alpha virt. eigenvalues --    0.30307   0.31284   0.31463   0.31910   0.32010

 Mulliken charges:
               1
     1  C   -0.298218
     2  C   -0.299595
     3  C   -0.475674
     4  H    0.149542
     5  H    0.149463
     6  H    0.151866
     7  H    0.151885
     8  H    0.155155
     9  H    0.155128
    10  H    0.160171
    11  C   -0.298491
    12  C   -0.299308
    13  C   -0.480732
    14  H    0.149413
    15  H    0.149481
    16  H    0.151894
    17  H    0.151650
    18  H    0.153924
    19  H    0.154957
    20  H    0.167652
    21  C   -0.298324
    22  C   -0.299927
    23  C   -0.479423
    24  H    0.149995
    25  H    0.149198
    26  H    0.151787
    27  H    0.151595
    28  H    0.155081
    29  H    0.160617
    30  H    0.159363
    31  C   -0.298251
    32  C   -0.299639
    33  C   -0.475692
    34  H    0.149547
    35  H    0.149595
    36  H    0.151977
    37  H    0.151783
    38  H    0.155150
    39  H    0.155205
    40  H    0.160201
 Sum of Mulliken charges =  -0.00000

 Dipole moment (field-independent basis, Debye):
    X=             -0.0080    Y=              0.0132    Z=              0.0067  Tot=              0.0169
 Quadrupole moment (field-independent basis, Debye-Ang):
   XX=            -86.6976   YY=            -84.6819   ZZ=            -83.5738
   XY=             -0.0296   XZ=              0.8273   YZ=              0.5680

 Normal termination of Gaussian 16 at Thu May  6 05:21:54 2021.
