 Gaussian 16, Revision A.03,
 Gaussian 16:  EM64L-G16RevA.03 25-Dec-2016

 -------------
 #p 6-31g* mp2
 -------------

 ------------------------------------------------------
 Input file generated by CHIRIPA (05-May-2021 14:51:14)
 ------------------------------------------------------
 Symbolic Z-matrix:
 Charge =  0 Multiplicity = 1

                         Standard orientation:
 ---------------------------------------------------------------------
 Center     Atomic      Atomic             Coordinates (Angstroms)
 Number     Number       Type             X           Y           Z
 ---------------------------------------------------------------------
      1          6           0        3.316860    0.007337    0.138957
      2          6           0        3.334718    0.894703   -1.106132
      3          6           0        4.619934    1.713646   -1.230014
      4          1           0        3.440123    0.636119    1.031361
      5          1           0        4.182437   -0.668975    0.111131
      6          1           0        2.468600    1.568192   -1.076651
      7          1           0        3.211207    0.263756   -1.995663
      8          1           0        5.492699    1.054940   -1.284681
      9          1           0        4.745873    2.366787   -0.360447
     10          1           0        4.611488    2.340763   -2.126961
     11          6           0        2.038440   -0.817521    0.276726
     12          6           0        2.020582   -1.704888    1.521815
     13          6           0        0.735366   -2.523831    1.645697
     14          1           0        1.172863   -0.141210    0.304552
     15          1           0        1.915178   -1.446303   -0.615678
     16          1           0        2.144094   -1.073940    2.411346
     17          1           0        2.886700   -2.378376    1.492334
     18          1           0        0.609427   -3.176972    0.776130
     19          1           0       -0.137398   -1.865124    1.700364
     20          1           0        0.743812   -3.150947    2.542644
     21          6           0       -3.082547   -0.137582   -0.561390
     22          6           0       -2.281497   -1.411168   -0.833936
     23          6           0       -3.105148   -2.487487   -1.541701
     24          1           0       -3.961706   -0.388317    0.047836
     25          1           0       -3.464117    0.257921   -1.512901
     26          1           0       -1.900390   -1.803389    0.117661
     27          1           0       -1.404039   -1.157342   -1.442422
     28          1           0       -3.473287   -2.119639   -2.504906
     29          1           0       -3.972458   -2.769358   -0.935959
     30          1           0       -2.513083   -3.389196   -1.726740
     31          6           0       -2.272753    0.947765    0.145706
     32          6           0       -3.073803    2.221353    0.418253
     33          6           0       -2.250153    3.297671    1.126019
     34          1           0       -1.891184    0.552261    1.097218
     35          1           0       -1.393594    1.198501   -0.463520
     36          1           0       -3.951262    1.967526    1.026740
     37          1           0       -3.454911    2.613573   -0.533344
     38          1           0       -1.382843    3.579542    0.520276
     39          1           0       -1.882013    2.929824    2.089223
     40          1           0       -2.842218    4.199380    1.311057
 ---------------------------------------------------------------------

 SCF Done:  E(RHF) =  -470.732978538     A.U. after   11 cycles
 E2 =    -0.1583865485D+01 EUMP2 =    -0.47231684402304D+03

 The electronic state is 1-A.
 Alpha  occ. eigenvalues --  -11.21641 -11.21603 -11.21581 -11.21484 -11.21439
 Alpha  occ. eigenvalues --  -11.21371 -11.21346 -11.21303 -11.21117 -11.21070
 Alpha  occ. eigenvalues --  -11.21043 -11.21019  -1.08451  -1.08391  -1.03548
 Alpha  occ. eigenvalues --   -1.03489  -0.95990  -0.95957  -0.87020  -0.86962
 Alpha  occ. eigenvalues --   -0.79690  -0.79497  -0.78390  -0.78067  -0.65090
 Alpha  occ. eigenvalues --   -0.65023  -0.60977  -0.60868  -0.59414  -0.59273
 Alpha  occ. eigenvalues --   -0.57665  -0.57501  -0.55278  -0.55250  -0.52678
 Alpha  occ. eigenvalues --   -0.52660  -0.52474  -0.52344  -0.49958  -0.49888
 Alpha  occ. eigenvalues --   -0.48149  -0.47721  -0.46715  -0.46545  -0.46143
 Alpha  occ. eigenvalues --   -0.45706  -0.45659  -0.45228  -0.43780  -0.43763
 Alpha virt. eigenvalues --    0.20846   0.23152   0.23584   0.24238   0.25103
 Alpha virt. eigenvalues --    0.25516   0.26754   0.27744   0.28709   0.29976
 Alpha virt. eigenvalues --    0.31023   0.31418   0.31498   0.31766   0.32239

 Mulliken charges:
               1
     1  C   -0.298205
     2  C   -0.299535
     3  C   -0.475672
     4  H    0.149665
     5  H    0.149390
     6  H    0.151347
     7  H    0.151715
     8  H    0.155240
     9  H    0.155302
    10  H    0.160095
    11  C   -0.302282
    12  C   -0.299506
    13  C   -0.479626
    14  H    0.154604
    15  H    0.149406
    16  H    0.151616
    17  H    0.151720
    18  H    0.155946
    19  H    0.159066
    20  H    0.159698
    21  C   -0.298124
    22  C   -0.306591
    23  C   -0.475359
    24  H    0.149377
    25  H    0.149350
    26  H    0.160163
    27  H    0.152925
    28  H    0.154684
    29  H    0.154847
    30  H    0.159865
    31  C   -0.301495
    32  C   -0.299610
    33  C   -0.475764
    34  H    0.149590
    35  H    0.151176
    36  H    0.152226
    37  H    0.152361
    38  H    0.154861
    39  H    0.154952
    40  H    0.160584
 Sum of Mulliken charges =  -0.00000

 Dipole moment (field-independent basis, Debye):
    X=             -0.0087    Y=             -0.0027    Z=              0.0082  Tot=              0.0123
 Quadrupole moment (field-independent basis, Debye-Ang):
   XX=            -85.5664   YY=            -85.2763   ZZ=            -84.0338
   XY=             -1.2207   XZ=             -0.5827   YZ=             -0.2343

 Normal termination of Gaussian 16 at Thu May  6 04:01:41 2021.
