 Gaussian 16, Revision A.03,
 Gaussian 16:  EM64L-G16RevA.03 25-Dec-2016

 -------------
 #p 6-31g* mp2
 -------------

 ------------------------------------------------------
 Input file generated by CHIRIPA (05-May-2021 14:53:13)
 ------------------------------------------------------
 Symbolic Z-matrix:
 Charge =  0 Multiplicity = 1

                         Standard orientation:
 ---------------------------------------------------------------------
 Center     Atomic      Atomic             Coordinates (Angstroms)
 Number     Number       Type             X           Y           Z
 ---------------------------------------------------------------------
      1          6           0        4.060451    0.854740   -0.270314
      2          6           0        3.427543    2.160246    0.212456
      3          6           0        4.192146    3.397593   -0.258871
      4          1           0        5.098358    0.804040    0.086231
      5          1           0        4.107076    0.861987   -1.368115
      6          1           0        3.380862    2.149945    1.308964
      7          1           0        2.390963    2.207756   -0.145118
      8          1           0        4.227256    3.435364   -1.352462
      9          1           0        5.222780    3.377226    0.109883
     10          1           0        3.722465    4.319676    0.097534
     11          6           0        3.307418   -0.391132    0.192798
     12          6           0        3.940326   -1.696638   -0.289971
     13          6           0        3.175723   -2.933985    0.181355
     14          1           0        3.260793   -0.398379    1.290600
     15          1           0        2.269511   -0.340431   -0.163747
     16          1           0        4.976906   -1.744147    0.067603
     17          1           0        3.987007   -1.686337   -1.386480
     18          1           0        2.145089   -2.913617   -0.187398
     19          1           0        3.140613   -2.971756    1.274946
     20          1           0        3.645404   -3.856067   -0.175050
     21          6           0       -1.001989   -1.862063    0.173755
     22          6           0       -1.682142   -1.673561   -1.033878
     23          6           0       -2.723235   -0.744917   -1.124949
     24          6           0       -3.059447   -0.018588    0.016409
     25          6           0       -2.400762   -0.183682    1.233852
     26          6           0       -1.362834   -1.117833    1.301778
     27          1           0       -0.194473   -2.585595    0.235511
     28          1           0       -1.404061   -2.250137   -1.911533
     29          1           0       -3.266524   -0.578944   -2.047287
     30          1           0       -2.700681    0.405856    2.091705
     31          1           0       -0.836373   -1.262125    2.240960
     32          7           0       -4.159930    0.967442   -0.067752
     33          8           0       -4.436957    1.594861    0.952169
     34          8           0       -4.724624    1.094201   -1.152044
 ---------------------------------------------------------------------

 SCF Done:  E(RHF) =  -669.535664832     A.U. after   15 cycles
 E2 =    -0.2091354584D+01 EUMP2 =    -0.67162701941610D+03

 The electronic state is 1-A.
 Alpha  occ. eigenvalues --  -20.60764 -20.60759 -15.85817 -11.31187 -11.27753
 Alpha  occ. eigenvalues --  -11.27744 -11.27470 -11.26774 -11.26758 -11.22409
 Alpha  occ. eigenvalues --  -11.22199 -11.22059 -11.21969 -11.21860 -11.21338
 Alpha  occ. eigenvalues --   -1.59839  -1.39393  -1.19357  -1.09041  -1.08749
 Alpha  occ. eigenvalues --   -1.04759  -1.04157  -0.96627  -0.95585  -0.87648
 Alpha  occ. eigenvalues --   -0.86154  -0.82419  -0.80234  -0.78818  -0.77464
 Alpha  occ. eigenvalues --   -0.72035  -0.71163  -0.70478  -0.65668  -0.65007
 Alpha  occ. eigenvalues --   -0.64761  -0.62105  -0.61560  -0.60009  -0.58230
 Alpha  occ. eigenvalues --   -0.56006  -0.55213  -0.53311  -0.53089  -0.53034
 Alpha  occ. eigenvalues --   -0.52849  -0.50575  -0.48797  -0.48790  -0.48535
 Alpha  occ. eigenvalues --   -0.47254  -0.46366  -0.46261  -0.44797  -0.44388
 Alpha  occ. eigenvalues --   -0.37321  -0.36363
 Alpha virt. eigenvalues --    0.05039   0.11287   0.16426   0.20065   0.22550
 Alpha virt. eigenvalues --    0.23891   0.25469   0.26338   0.27031   0.27408
 Alpha virt. eigenvalues --    0.29006   0.30338   0.31045   0.31439   0.32346

 Mulliken charges:
               1
     1  C   -0.298532
     2  C   -0.300450
     3  C   -0.476128
     4  H    0.150693
     5  H    0.150592
     6  H    0.151422
     7  H    0.154096
     8  H    0.155958
     9  H    0.155302
    10  H    0.162489
    11  C   -0.300989
    12  C   -0.299389
    13  C   -0.479217
    14  H    0.147861
    15  H    0.150381
    16  H    0.155533
    17  H    0.153787
    18  H    0.145322
    19  H    0.155601
    20  H    0.164933
    21  C   -0.175425
    22  C   -0.221034
    23  C   -0.170999
    24  C    0.158539
    25  C   -0.170971
    26  C   -0.219848
    27  H    0.234518
    28  H    0.223285
    29  H    0.275527
    30  H    0.275600
    31  H    0.224377
    32  N    0.488008
    33  O   -0.460360
    34  O   -0.460483
 Sum of Mulliken charges =  -0.00000

 Dipole moment (field-independent basis, Debye):
    X=              4.0139    Y=             -3.4087    Z=              0.2912  Tot=              5.2740
 Quadrupole moment (field-independent basis, Debye-Ang):
   XX=           -118.5467   YY=            -95.9592   ZZ=            -89.4728
   XY=             10.3475   XZ=              0.4151   YZ=              1.4421

 Normal termination of Gaussian 16 at Wed May  5 17:03:44 2021.
