 Gaussian 16, Revision A.03,
 Gaussian 16:  EM64L-G16RevA.03 25-Dec-2016

 -------------
 #p 6-31g* mp2
 -------------

 ------------------------------------------------------
 Input file generated by CHIRIPA (05-May-2021 14:55:23)
 ------------------------------------------------------
 Symbolic Z-matrix:
 Charge =  0 Multiplicity = 1

                         Standard orientation:
 ---------------------------------------------------------------------
 Center     Atomic      Atomic             Coordinates (Angstroms)
 Number     Number       Type             X           Y           Z
 ---------------------------------------------------------------------
      1          6           0       -5.458991   -0.185190    0.119783
      2          6           0       -4.799364   -1.129611   -0.673616
      3          6           0       -3.403060   -1.149724   -0.740539
      4          6           0       -2.694569   -0.206584    0.002303
      5          6           0       -3.322831    0.746902    0.801954
      6          6           0       -4.719922    0.748406    0.853743
      7          1           0       -6.543979   -0.176794    0.165892
      8          1           0       -5.370758   -1.855854   -1.244690
      9          1           0       -2.866863   -1.869802   -1.346674
     10          1           0       -2.726085    1.458212    1.359942
     11          1           0       -5.229520    1.483015    1.470755
     12          7           0       -1.215948   -0.218026   -0.060534
     13          8           0       -0.614690    0.623558    0.603441
     14          8           0       -0.686260   -1.068363   -0.772570
     15          6           0        3.689146   -0.472281    0.181495
     16          6           0        5.005679   -1.247687    0.122565
     17          6           0        4.845748   -2.715204    0.520823
     18          1           0        3.279234   -0.535028    1.198834
     19          1           0        2.957275   -0.955221   -0.480720
     20          1           0        5.735276   -0.762620    0.783636
     21          1           0        5.412602   -1.182926   -0.894704
     22          1           0        4.138150   -3.220088   -0.144758
     23          1           0        4.462658   -2.797394    1.543118
     24          1           0        5.798993   -3.250712    0.471661
     25          6           0        3.832808    0.996307   -0.213904
     26          6           0        2.516276    1.771713   -0.154974
     27          6           0        2.676207    3.239230   -0.553232
     28          1           0        4.564680    1.479247    0.448311
     29          1           0        4.242721    1.059054   -1.231242
     30          1           0        2.109354    1.706953    0.862295
     31          1           0        1.786679    1.286646   -0.816045
     32          1           0        3.059297    3.321420   -1.575527
     33          1           0        3.383806    3.744114    0.112349
     34          1           0        1.722962    3.774737   -0.504070
 ---------------------------------------------------------------------

 SCF Done:  E(RHF) =  -669.535751889     A.U. after   15 cycles
 E2 =    -0.2091889538D+01 EUMP2 =    -0.67162764142727D+03

 The electronic state is 1-A.
 Alpha  occ. eigenvalues --  -20.61011 -20.60998 -15.86028 -11.31340 -11.27900
 Alpha  occ. eigenvalues --  -11.27896 -11.27633 -11.26902 -11.26892 -11.20402
 Alpha  occ. eigenvalues --  -11.20042 -11.19842 -11.19762 -11.19684 -11.19548
 Alpha  occ. eigenvalues --   -1.60062  -1.39619  -1.19505  -1.08912  -1.06898
 Alpha  occ. eigenvalues --   -1.04898  -1.02087  -0.95756  -0.94608  -0.86300
 Alpha  occ. eigenvalues --   -0.85632  -0.82594  -0.78128  -0.77645  -0.76626
 Alpha  occ. eigenvalues --   -0.72233  -0.71375  -0.70613  -0.65160  -0.64901
 Alpha  occ. eigenvalues --   -0.63545  -0.62246  -0.59500  -0.57977  -0.56181
 Alpha  occ. eigenvalues --   -0.55402  -0.53925  -0.53231  -0.52990  -0.51354
 Alpha  occ. eigenvalues --   -0.51024  -0.49103  -0.49006  -0.48572  -0.46376
 Alpha  occ. eigenvalues --   -0.45176  -0.45013  -0.44139  -0.44010  -0.42325
 Alpha  occ. eigenvalues --   -0.37482  -0.36499
 Alpha virt. eigenvalues --    0.04869   0.11157   0.16372   0.21293   0.24285
 Alpha virt. eigenvalues --    0.25618   0.27214   0.28127   0.28149   0.29074
 Alpha virt. eigenvalues --    0.29369   0.30885   0.32378   0.32688   0.33143

 Mulliken charges:
               1
     1  C   -0.170516
     2  C   -0.218584
     3  C   -0.170574
     4  C    0.158353
     5  C   -0.170822
     6  C   -0.218544
     7  H    0.226159
     8  H    0.223959
     9  H    0.275836
    10  H    0.275768
    11  H    0.223982
    12  N    0.489454
    13  O   -0.458188
    14  O   -0.460603
    15  C   -0.298638
    16  C   -0.298597
    17  C   -0.474565
    18  H    0.149795
    19  H    0.161845
    20  H    0.147531
    21  H    0.148550
    22  H    0.156285
    23  H    0.153605
    24  H    0.155139
    25  C   -0.299094
    26  C   -0.295098
    27  C   -0.476128
    28  H    0.141857
    29  H    0.143258
    30  H    0.159564
    31  H    0.165282
    32  H    0.149012
    33  H    0.148471
    34  H    0.156249
 Sum of Mulliken charges =  -0.00000

 Dipole moment (field-independent basis, Debye):
    X=             -5.6887    Y=             -0.0750    Z=              0.2530  Tot=              5.6949
 Quadrupole moment (field-independent basis, Debye-Ang):
   XX=            -69.1809   YY=            -94.1882   ZZ=            -92.5092
   XY=              0.9080   XZ=             -0.3125   YZ=              3.6452

 Normal termination of Gaussian 16 at Wed May  5 23:54:43 2021.
