 Gaussian 16, Revision A.03,
 Gaussian 16:  EM64L-G16RevA.03 25-Dec-2016

 -------------
 #p 6-31g* mp2
 -------------

 ------------------------------------------------------
 Input file generated by CHIRIPA (05-May-2021 14:53:14)
 ------------------------------------------------------
 Symbolic Z-matrix:
 Charge =  0 Multiplicity = 1

                         Standard orientation:
 ---------------------------------------------------------------------
 Center     Atomic      Atomic             Coordinates (Angstroms)
 Number     Number       Type             X           Y           Z
 ---------------------------------------------------------------------
      1          6           0        3.707316   -0.047561   -0.018688
      2          6           0        5.084263   -0.160303   -0.673891
      3          6           0        5.754953   -1.509123   -0.411874
      4          1           0        3.809567   -0.203662    1.063958
      5          1           0        3.064095   -0.856559   -0.391761
      6          1           0        5.724265    0.649492   -0.300736
      7          1           0        4.978749   -0.003726   -1.755079
      8          1           0        5.139550   -2.327210   -0.799966
      9          1           0        5.889302   -1.670280    0.662640
     10          1           0        6.738027   -1.568132   -0.889308
     11          6           0        3.024177    1.295227   -0.271614
     12          6           0        1.647231    1.407969    0.383590
     13          6           0        0.976541    2.756789    0.121572
     14          1           0        3.667398    2.104225    0.101459
     15          1           0        2.921926    1.451328   -1.354260
     16          1           0        1.752745    1.251391    1.464777
     17          1           0        1.007229    0.598174    0.010435
     18          1           0        0.842191    2.917946   -0.952941
     19          1           0        1.591943    3.574875    0.509665
     20          1           0       -0.006534    2.815797    0.599006
     21          6           0       -4.582866    0.399085   -1.214923
     22          6           0       -3.703884   -0.522693   -1.793054
     23          6           0       -2.618207   -1.020562   -1.066431
     24          6           0       -2.440644   -0.573069    0.241817
     25          6           0       -3.298966    0.344515    0.845648
     26          6           0       -4.377964    0.828990    0.100264
     27          1           0       -5.423651    0.780639   -1.786669
     28          1           0       -3.860556   -0.858335   -2.814251
     29          1           0       -1.922349   -1.734884   -1.489447
     30          1           0       -3.116877    0.660420    1.865681
     31          1           0       -5.058981    1.544781    0.551821
     32          7           0       -1.294823   -1.093050    1.020990
     33          8           0       -1.160265   -0.683036    2.171825
     34          8           0       -0.552982   -1.900779    0.466119
 ---------------------------------------------------------------------

 SCF Done:  E(RHF) =  -669.536105937     A.U. after   15 cycles
 E2 =    -0.2091918434D+01 EUMP2 =    -0.67162802437071D+03

 The electronic state is 1-A.
 Alpha  occ. eigenvalues --  -20.60907 -20.60887 -15.85914 -11.31265 -11.27829
 Alpha  occ. eigenvalues --  -11.27825 -11.27564 -11.26840 -11.26829 -11.20910
 Alpha  occ. eigenvalues --  -11.20748 -11.20641 -11.20562 -11.20457 -11.20414
 Alpha  occ. eigenvalues --   -1.59952  -1.39508  -1.19432  -1.08832  -1.07652
 Alpha  occ. eigenvalues --   -1.04831  -1.02831  -0.95672  -0.95302  -0.86319
 Alpha  occ. eigenvalues --   -0.86231  -0.82507  -0.78877  -0.77559  -0.77434
 Alpha  occ. eigenvalues --   -0.72146  -0.71270  -0.70541  -0.65088  -0.64835
 Alpha  occ. eigenvalues --   -0.64285  -0.62180  -0.60234  -0.58664  -0.56898
 Alpha  occ. eigenvalues --   -0.55334  -0.54599  -0.53160  -0.52924  -0.52024
 Alpha  occ. eigenvalues --   -0.51719  -0.49245  -0.48913  -0.48908  -0.47184
 Alpha  occ. eigenvalues --   -0.45935  -0.45097  -0.44972  -0.44661  -0.43067
 Alpha  occ. eigenvalues --   -0.37407  -0.36431
 Alpha virt. eigenvalues --    0.04961   0.11200   0.16427   0.21342   0.23586
 Alpha virt. eigenvalues --    0.24826   0.27242   0.27382   0.27959   0.28468
 Alpha virt. eigenvalues --    0.28632   0.30856   0.31886   0.32082   0.32499

 Mulliken charges:
               1
     1  C   -0.299514
     2  C   -0.299227
     3  C   -0.475197
     4  H    0.152655
     5  H    0.158249
     6  H    0.149367
     7  H    0.148744
     8  H    0.156431
     9  H    0.155971
    10  H    0.156976
    11  C   -0.298033
    12  C   -0.302479
    13  C   -0.475475
    14  H    0.146455
    15  H    0.144946
    16  H    0.161386
    17  H    0.154398
    18  H    0.150712
    19  H    0.153744
    20  H    0.156083
    21  C   -0.170556
    22  C   -0.218399
    23  C   -0.171375
    24  C    0.157871
    25  C   -0.171092
    26  C   -0.218363
    27  H    0.225928
    28  H    0.223685
    29  H    0.275517
    30  H    0.275774
    31  H    0.223809
    32  N    0.488731
    33  O   -0.457928
    34  O   -0.459795
 Sum of Mulliken charges =  -0.00000

 Dipole moment (field-independent basis, Debye):
    X=             -4.1770    Y=              1.6877    Z=             -2.6310  Tot=              5.2171
 Quadrupole moment (field-independent basis, Debye-Ang):
   XX=            -75.9384   YY=            -97.0037   ZZ=            -92.5334
   XY=             -2.7061   XZ=              5.2999   YZ=              5.0813

 Normal termination of Gaussian 16 at Thu May  6 20:19:23 2021.
