 Gaussian 16, Revision A.03,
 Gaussian 16:  EM64L-G16RevA.03 25-Dec-2016

 -------------
 #p 6-31g* mp2
 -------------

 ------------------------------------------------------
 Input file generated by CHIRIPA (05-May-2021 14:57:21)
 ------------------------------------------------------
 Symbolic Z-matrix:
 Charge =  0 Multiplicity = 1

                         Standard orientation:
 ---------------------------------------------------------------------
 Center     Atomic      Atomic             Coordinates (Angstroms)
 Number     Number       Type             X           Y           Z
 ---------------------------------------------------------------------
      1          6           0       -6.062121    1.178680   -0.216306
      2          6           0       -5.886752    0.340882    0.889977
      3          6           0       -4.698186   -0.376208    1.056226
      4          6           0       -3.701370   -0.231190    0.092578
      5          6           0       -3.846110    0.595579   -1.020433
      6          6           0       -5.043037    1.303135   -1.166305
      7          1           0       -6.988676    1.732029   -0.337537
      8          1           0       -6.676474    0.242285    1.629345
      9          1           0       -4.535964   -1.031816    1.903149
     10          1           0       -3.040825    0.673381   -1.740767
     11          1           0       -5.176458    1.953044   -2.026458
     12          7           0       -2.438662   -0.985294    0.257792
     13          8           0       -1.575707   -0.840238   -0.605286
     14          8           0       -2.335817   -1.707139    1.247236
     15          6           0        6.295883    0.703587    0.495872
     16          6           0        6.012232   -0.490038   -0.175932
     17          6           0        4.693710   -0.830838   -0.492012
     18          6           0        3.678771    0.049219   -0.119605
     19          6           0        3.929352    1.245700    0.550419
     20          6           0        5.255372    1.566125    0.856269
     21          1           0        7.323055    0.960415    0.737437
     22          1           0        6.818294   -1.161810   -0.457054
     23          1           0        4.445856   -1.748511   -1.011494
     24          1           0        3.104635    1.895194    0.817660
     25          1           0        5.472697    2.493780    1.378066
     26          7           0        2.278942   -0.300785   -0.448809
     27          8           0        1.402672    0.491568   -0.109748
     28          8           0        2.084532   -1.360847   -1.039667
 ---------------------------------------------------------------------

 SCF Done:  E(RHF) =  -868.334455879     A.U. after   16 cycles
 E2 =    -0.2600744100D+01 EUMP2 =    -0.87093519997917D+03

 The electronic state is 1-A.
 Alpha  occ. eigenvalues --  -20.59558 -20.59544 -20.59379 -20.59199 -15.84644
 Alpha  occ. eigenvalues --  -15.84344 -11.30421 -11.30182 -11.27050 -11.27029
 Alpha  occ. eigenvalues --  -11.26862 -11.26833 -11.26780 -11.26660 -11.26156
 Alpha  occ. eigenvalues --  -11.26139 -11.25952 -11.25926  -1.58608  -1.58358
 Alpha  occ. eigenvalues --   -1.38166  -1.37898  -1.18631  -1.18405  -1.07946
 Alpha  occ. eigenvalues --   -1.07717  -1.04099  -1.03878  -0.94714  -0.94462
 Alpha  occ. eigenvalues --   -0.85478  -0.85255  -0.81554  -0.81296  -0.76524
 Alpha  occ. eigenvalues --   -0.76265  -0.70869  -0.70527  -0.69976  -0.69741
 Alpha  occ. eigenvalues --   -0.69696  -0.69516  -0.64277  -0.64112  -0.64038
 Alpha  occ. eigenvalues --   -0.63892  -0.61445  -0.61219  -0.54587  -0.54378
 Alpha  occ. eigenvalues --   -0.52403  -0.52201  -0.52183  -0.51980  -0.47785
 Alpha  occ. eigenvalues --   -0.47549  -0.47323  -0.47102  -0.43499  -0.43152
 Alpha  occ. eigenvalues --   -0.36637  -0.36417  -0.35722  -0.35504
 Alpha virt. eigenvalues --    0.06021   0.06286   0.11926   0.12143   0.17441
 Alpha virt. eigenvalues --    0.17686   0.22001   0.22203   0.27879   0.28081
 Alpha virt. eigenvalues --    0.28926   0.29148   0.31517   0.31715   0.33180

 Mulliken charges:
               1
     1  C   -0.172520
     2  C   -0.218719
     3  C   -0.172115
     4  C    0.159768
     5  C   -0.170979
     6  C   -0.218885
     7  H    0.221766
     8  H    0.219834
     9  H    0.273742
    10  H    0.278551
    11  H    0.220459
    12  N    0.486169
    13  O   -0.438825
    14  O   -0.468727
    15  C   -0.172231
    16  C   -0.218466
    17  C   -0.171435
    18  C    0.159809
    19  C   -0.171635
    20  C   -0.218456
    21  H    0.222751
    22  H    0.221242
    23  H    0.275677
    24  H    0.273949
    25  H    0.220575
    26  N    0.487496
    27  O   -0.455158
    28  O   -0.453640
 Sum of Mulliken charges =  -0.00000

 Dipole moment (field-independent basis, Debye):
    X=              0.6043    Y=              3.7741    Z=              0.4130  Tot=              3.8445
 Quadrupole moment (field-independent basis, Debye-Ang):
   XX=            -39.2672   YY=           -102.7052   ZZ=           -101.8064
   XY=             -5.0193   XZ=              3.1515   YZ=              0.6053

 Normal termination of Gaussian 16 at Thu May  6 21:06:33 2021.
