 Gaussian 16, Revision A.03,
 Gaussian 16:  EM64L-G16RevA.03 25-Dec-2016

 -------------
 #p 6-31g* mp2
 -------------

 ------------------------------------------------------
 Input file generated by CHIRIPA (05-May-2021 14:55:25)
 ------------------------------------------------------
 Symbolic Z-matrix:
 Charge =  0 Multiplicity = 1

                         Standard orientation:
 ---------------------------------------------------------------------
 Center     Atomic      Atomic             Coordinates (Angstroms)
 Number     Number       Type             X           Y           Z
 ---------------------------------------------------------------------
      1          6           0        1.616992    0.869374    0.484372
      2          6           0        1.995631   -0.349359    1.056947
      3          6           0        3.260512   -0.889288    0.805748
      4          6           0        4.125536   -0.180590   -0.026580
      5          6           0        3.777538    1.035825   -0.611834
      6          6           0        2.507584    1.556865   -0.346726
      7          1           0        0.632431    1.281467    0.684911
      8          1           0        1.306047   -0.885469    1.702784
      9          1           0        3.579450   -1.830885    1.235971
     10          1           0        4.486677    1.547115   -1.251462
     11          1           0        2.216233    2.503549   -0.792763
     12          7           0        5.467294   -0.742189   -0.299876
     13          8           0        6.211038   -0.098297   -1.036683
     14          8           0        5.749815   -1.815630    0.227897
     15          6           0       -5.728825    0.055251   -0.236911
     16          6           0       -6.275992   -1.369827   -0.148904
     17          6           0       -7.739962   -1.468558   -0.578835
     18          1           0       -6.342168    0.716129    0.390780
     19          1           0       -5.834165    0.417939   -1.268781
     20          1           0       -6.168384   -1.730225    0.882187
     21          1           0       -5.661160   -2.027425   -0.776725
     22          1           0       -7.860678   -1.134701   -1.614484
     23          1           0       -8.370785   -0.835812    0.053856
     24          1           0       -8.110731   -2.495881   -0.508151
     25          6           0       -4.266435    0.170110    0.189648
     26          6           0       -3.719266    1.595187    0.101640
     27          6           0       -2.255297    1.693917    0.531572
     28          1           0       -4.161094   -0.192580    1.221517
     29          1           0       -3.653092   -0.490769   -0.438042
     30          1           0       -4.334100    2.252785    0.729463
     31          1           0       -3.826875    1.955584   -0.929451
     32          1           0       -1.624475    1.061172   -0.101119
     33          1           0       -2.134581    1.360061    1.567220
     34          1           0       -1.884527    2.721241    0.460889
 ---------------------------------------------------------------------

 SCF Done:  E(RHF) =  -669.535531343     A.U. after   15 cycles
 E2 =    -0.2090956651D+01 EUMP2 =    -0.67162648799389D+03

 The electronic state is 1-A.
 Alpha  occ. eigenvalues --  -20.60695 -20.60690 -15.85749 -11.31091 -11.27664
 Alpha  occ. eigenvalues --  -11.27660 -11.27303 -11.26657 -11.26647 -11.22590
 Alpha  occ. eigenvalues --  -11.22445 -11.22183 -11.22120 -11.21992 -11.21494
 Alpha  occ. eigenvalues --   -1.59772  -1.39326  -1.19259  -1.09185  -1.08648
 Alpha  occ. eigenvalues --   -1.04663  -1.04333  -0.96823  -0.95487  -0.87857
 Alpha  occ. eigenvalues --   -0.86055  -0.82331  -0.80424  -0.78951  -0.77385
 Alpha  occ. eigenvalues --   -0.71966  -0.71095  -0.70353  -0.65806  -0.64905
 Alpha  occ. eigenvalues --   -0.64667  -0.62014  -0.61725  -0.60208  -0.58405
 Alpha  occ. eigenvalues --   -0.56150  -0.55199  -0.53472  -0.53192  -0.52980
 Alpha  occ. eigenvalues --   -0.52750  -0.50745  -0.48754  -0.48723  -0.48678
 Alpha  occ. eigenvalues --   -0.47414  -0.46503  -0.46392  -0.44737  -0.44565
 Alpha  occ. eigenvalues --   -0.37220  -0.36276
 Alpha virt. eigenvalues --    0.05136   0.11380   0.16577   0.20815   0.22193
 Alpha virt. eigenvalues --    0.23696   0.25920   0.25978   0.26838   0.27391
 Alpha virt. eigenvalues --    0.29058   0.30449   0.30552   0.30794   0.31904

 Mulliken charges:
               1
     1  C   -0.180080
     2  C   -0.222354
     3  C   -0.170736
     4  C    0.158061
     5  C   -0.170711
     6  C   -0.222044
     7  H    0.244450
     8  H    0.223311
     9  H    0.275144
    10  H    0.275125
    11  H    0.223259
    12  N    0.488030
    13  O   -0.460759
    14  O   -0.460761
    15  C   -0.298995
    16  C   -0.300204
    17  C   -0.476123
    18  H    0.150863
    19  H    0.150921
    20  H    0.152208
    21  H    0.152699
    22  H    0.156010
    23  H    0.155799
    24  H    0.161823
    25  C   -0.299481
    26  C   -0.299444
    27  C   -0.485738
    28  H    0.149496
    29  H    0.150478
    30  H    0.155602
    31  H    0.155242
    32  H    0.153191
    33  H    0.155210
    34  H    0.160507
 Sum of Mulliken charges =  -0.00000

 Dipole moment (field-independent basis, Debye):
    X=             -5.0223    Y=              1.9880    Z=              0.9450  Tot=              5.4835
 Quadrupole moment (field-independent basis, Debye-Ang):
   XX=           -134.4167   YY=            -92.6520   ZZ=            -92.8693
   XY=              9.7101   XZ=              2.9032   YZ=             -2.8108

 Normal termination of Gaussian 16 at Thu May  6 06:23:10 2021.
