 Gaussian 16, Revision A.03,
 Gaussian 16:  EM64L-G16RevA.03 25-Dec-2016

 -------------
 #p 6-31g* mp2
 -------------

 ------------------------------------------------------
 Input file generated by CHIRIPA (05-May-2021 14:57:22)
 ------------------------------------------------------
 Symbolic Z-matrix:
 Charge =  0 Multiplicity = 1

                         Standard orientation:
 ---------------------------------------------------------------------
 Center     Atomic      Atomic             Coordinates (Angstroms)
 Number     Number       Type             X           Y           Z
 ---------------------------------------------------------------------
      1          6           0        2.581074    2.718174    0.409605
      2          6           0        1.746292    1.951333    1.229126
      3          6           0        1.734263    0.557272    1.124267
      4          6           0        2.573599   -0.039674    0.184874
      5          6           0        3.416551    0.696955   -0.645849
      6          6           0        3.412074    2.089646   -0.523622
      7          1           0        2.584008    3.800583    0.497808
      8          1           0        1.099874    2.436749    1.954770
      9          1           0        1.097918   -0.060563    1.746171
     10          1           0        4.049831    0.184539   -1.359855
     11          1           0        4.061416    2.682651   -1.161388
     12          7           0        2.569601   -1.514779    0.064671
     13          8           0        3.318430   -2.016604   -0.770832
     14          8           0        1.817714   -2.141211    0.808234
     15          6           0       -1.448224   -2.460764   -0.155063
     16          6           0       -2.509149   -2.188456    0.714885
     17          6           0       -3.140485   -0.941215    0.696147
     18          6           0       -2.683119    0.014789   -0.209482
     19          6           0       -1.628612   -0.226276   -1.088796
     20          6           0       -1.012110   -1.480532   -1.052544
     21          1           0       -0.963548   -3.432376   -0.133704
     22          1           0       -2.849953   -2.947810    1.412939
     23          1           0       -3.964039   -0.703721    1.358545
     24          1           0       -1.311154    0.550785   -1.773496
     25          1           0       -0.188416   -1.689213   -1.729318
     26          7           0       -3.343634    1.338901   -0.238590
     27          8           0       -2.921889    2.164171   -1.045866
     28          8           0       -4.270584    1.526396    0.546424
 ---------------------------------------------------------------------

 SCF Done:  E(RHF) =  -868.340024033     A.U. after   16 cycles
 E2 =    -0.2601290078D+01 EUMP2 =    -0.87094131411089D+03

 The electronic state is 1-A.
 Alpha  occ. eigenvalues --  -20.61548 -20.61540 -20.60693 -20.60687 -15.86546
 Alpha  occ. eigenvalues --  -15.85742 -11.31579 -11.30851 -11.28136 -11.28084
 Alpha  occ. eigenvalues --  -11.27758 -11.27451 -11.27430 -11.27045 -11.26983
 Alpha  occ. eigenvalues --  -11.26936 -11.26292 -11.26257  -1.60624  -1.59781
 Alpha  occ. eigenvalues --   -1.40180  -1.39339  -1.19725  -1.19011  -1.09174
 Alpha  occ. eigenvalues --   -1.08392  -1.05066  -1.04389  -0.96068  -0.95272
 Alpha  occ. eigenvalues --   -0.86472  -0.85765  -0.82911  -0.82133  -0.78000
 Alpha  occ. eigenvalues --   -0.77260  -0.72802  -0.72014  -0.71917  -0.71115
 Alpha  occ. eigenvalues --   -0.70801  -0.69974  -0.65368  -0.65047  -0.64629
 Alpha  occ. eigenvalues --   -0.64344  -0.62412  -0.61744  -0.55555  -0.54722
 Alpha  occ. eigenvalues --   -0.53451  -0.53151  -0.52694  -0.52450  -0.49564
 Alpha  occ. eigenvalues --   -0.49523  -0.48731  -0.48693  -0.45667  -0.44803
 Alpha  occ. eigenvalues --   -0.37699  -0.36851  -0.36707  -0.35899
 Alpha virt. eigenvalues --    0.04430   0.05323   0.10996   0.11645   0.16047
 Alpha virt. eigenvalues --    0.16906   0.21214   0.21953   0.27138   0.27579
 Alpha virt. eigenvalues --    0.28097   0.28969   0.30810   0.31557   0.32226

 Mulliken charges:
               1
     1  C   -0.168423
     2  C   -0.218514
     3  C   -0.168628
     4  C    0.153225
     5  C   -0.172940
     6  C   -0.219104
     7  H    0.229883
     8  H    0.228489
     9  H    0.276694
    10  H    0.274731
    11  H    0.225114
    12  N    0.486127
    13  O   -0.461372
    14  O   -0.463424
    15  C   -0.155166
    16  C   -0.223615
    17  C   -0.173413
    18  C    0.153460
    19  C   -0.173678
    20  C   -0.224940
    21  H    0.238104
    22  H    0.223442
    23  H    0.273133
    24  H    0.272677
    25  H    0.226752
    26  N    0.487847
    27  O   -0.463862
    28  O   -0.462599
 Sum of Mulliken charges =  -0.00000

 Dipole moment (field-independent basis, Debye):
    X=              2.5521    Y=              0.4404    Z=              0.6043  Tot=              2.6594
 Quadrupole moment (field-independent basis, Debye-Ang):
   XX=           -114.6697   YY=           -105.0816   ZZ=           -100.2223
   XY=             28.2048   XZ=             -5.0927   YZ=              0.6574

 Normal termination of Gaussian 16 at Fri May  7 06:22:58 2021.
