 Gaussian 16, Revision A.03,
 Gaussian 16:  EM64L-G16RevA.03 25-Dec-2016

 -------------
 #p 6-31g* mp2
 -------------

 ------------------------------------------------------
 Input file generated by CHIRIPA (05-May-2021 14:53:13)
 ------------------------------------------------------
 Symbolic Z-matrix:
 Charge =  0 Multiplicity = 1

                         Standard orientation:
 ---------------------------------------------------------------------
 Center     Atomic      Atomic             Coordinates (Angstroms)
 Number     Number       Type             X           Y           Z
 ---------------------------------------------------------------------
      1          6           0       -3.795182    0.231239   -0.088034
      2          6           0       -4.747906   -0.596806   -0.950960
      3          6           0       -5.476157    0.243304   -2.000559
      4          1           0       -4.361714    1.030728    0.408760
      5          1           0       -3.059919    0.726277   -0.737434
      6          1           0       -5.480305   -1.091238   -0.300003
      7          1           0       -4.179074   -1.394534   -1.445607
      8          1           0       -4.759416    0.724890   -2.673581
      9          1           0       -6.068040    1.029909   -1.521467
     10          1           0       -6.151971   -0.368527   -2.606198
     11          6           0       -3.059758   -0.594609    0.965937
     12          6           0       -2.107033    0.233437    1.828863
     13          6           0       -1.378782   -0.606674    2.878462
     14          1           0       -3.795021   -1.089646    1.615337
     15          1           0       -2.493225   -1.394097    0.469143
     16          1           0       -2.675866    1.031165    2.323510
     17          1           0       -1.374635    0.727869    1.177906
     18          1           0       -0.786899   -1.393278    2.399370
     19          1           0       -2.095524   -1.088259    3.551484
     20          1           0       -0.702969    0.005157    3.484101
     21          6           0        1.810167    2.502717   -0.142858
     22          6           0        3.165848    2.234468    0.073227
     23          6           0        3.657590    0.930229   -0.034938
     24          6           0        2.761582   -0.086290   -0.362273
     25          6           0        1.405512    0.149121   -0.583508
     26          6           0        0.935867    1.461024   -0.469959
     27          1           0        1.436754    3.518858   -0.056741
     28          1           0        3.847146    3.041487    0.327391
     29          1           0        4.702373    0.694455    0.127103
     30          1           0        0.750647   -0.676157   -0.835473
     31          1           0       -0.117469    1.666404   -0.638324
     32          7           0        3.270470   -1.471086   -0.479633
     33          8           0        2.460580   -2.349078   -0.769196
     34          8           0        4.469589   -1.652276   -0.279835
 ---------------------------------------------------------------------

 SCF Done:  E(RHF) =  -669.535159209     A.U. after   15 cycles
 E2 =    -0.2092450201D+01 EUMP2 =    -0.67162760941028D+03

 The electronic state is 1-A.
 Alpha  occ. eigenvalues --  -20.60804 -20.60798 -15.85858 -11.31235 -11.27816
 Alpha  occ. eigenvalues --  -11.27804 -11.27544 -11.26820 -11.26804 -11.22088
 Alpha  occ. eigenvalues --  -11.22051 -11.21990 -11.21855 -11.21466 -11.21339
 Alpha  occ. eigenvalues --   -1.59879  -1.39432  -1.19413  -1.08944  -1.08800
 Alpha  occ. eigenvalues --   -1.04824  -1.03958  -0.96397  -0.95634  -0.87410
 Alpha  occ. eigenvalues --   -0.86216  -0.82476  -0.80036  -0.78777  -0.77512
 Alpha  occ. eigenvalues --   -0.72076  -0.71201  -0.70514  -0.65641  -0.65059
 Alpha  occ. eigenvalues --   -0.64806  -0.62213  -0.61315  -0.59765  -0.58013
 Alpha  occ. eigenvalues --   -0.55692  -0.55312  -0.53156  -0.53069  -0.52920
 Alpha  occ. eigenvalues --   -0.52801  -0.50335  -0.48839  -0.48830  -0.48334
 Alpha  occ. eigenvalues --   -0.47073  -0.46288  -0.46229  -0.44835  -0.44236
 Alpha  occ. eigenvalues --   -0.37381  -0.36381
 Alpha virt. eigenvalues --    0.05001   0.11163   0.16355   0.19204   0.22912
 Alpha virt. eigenvalues --    0.23836   0.24615   0.26146   0.27502   0.28419
 Alpha virt. eigenvalues --    0.29458   0.30975   0.31317   0.31524   0.31991

 Mulliken charges:
               1
     1  C   -0.297860
     2  C   -0.300226
     3  C   -0.475903
     4  H    0.151014
     5  H    0.139748
     6  H    0.154612
     7  H    0.154092
     8  H    0.153650
     9  H    0.155342
    10  H    0.162781
    11  C   -0.300024
    12  C   -0.304880
    13  C   -0.475837
    14  H    0.153459
    15  H    0.151092
    16  H    0.151842
    17  H    0.146456
    18  H    0.159734
    19  H    0.157011
    20  H    0.160954
    21  C   -0.172436
    22  C   -0.218508
    23  C   -0.170581
    24  C    0.158570
    25  C   -0.170803
    26  C   -0.218671
    27  H    0.226352
    28  H    0.223711
    29  H    0.275864
    30  H    0.275551
    31  H    0.226512
    32  N    0.488166
    33  O   -0.460637
    34  O   -0.460146
 Sum of Mulliken charges =  -0.00000

 Dipole moment (field-independent basis, Debye):
    X=             -1.8298    Y=              4.8159    Z=              0.4663  Tot=              5.1729
 Quadrupole moment (field-independent basis, Debye-Ang):
   XX=            -99.6988   YY=            -95.7565   ZZ=            -95.6996
   XY=             15.9299   XZ=              1.9762   YZ=             -0.9582

 Normal termination of Gaussian 16 at Thu May  6 13:41:29 2021.
