 Gaussian 16, Revision A.03,
 Gaussian 16:  EM64L-G16RevA.03 25-Dec-2016

 -------------
 #p 6-31g* mp2
 -------------

 ------------------------------------------------------
 Input file generated by CHIRIPA (05-May-2021 14:51:12)
 ------------------------------------------------------
 Symbolic Z-matrix:
 Charge =  0 Multiplicity = 1

                         Standard orientation:
 ---------------------------------------------------------------------
 Center     Atomic      Atomic             Coordinates (Angstroms)
 Number     Number       Type             X           Y           Z
 ---------------------------------------------------------------------
      1          6           0       -2.226783    1.554185    0.146874
      2          6           0       -1.377134    2.071375   -1.014417
      3          6           0       -1.024891    3.552717   -0.875332
      4          1           0       -3.149221    2.147470    0.210641
      5          1           0       -1.685100    1.716332    1.089043
      6          1           0       -1.919665    1.907042   -1.954242
      7          1           0       -0.456699    1.476666   -1.075546
      8          1           0       -0.461919    3.729898    0.046769
      9          1           0       -1.933198    4.162719   -0.836919
     10          1           0       -0.417259    3.901551   -1.716140
     11          6           0       -2.587043    0.074868    0.022128
     12          6           0       -3.436692   -0.442321    1.183419
     13          6           0       -3.788936   -1.923663    1.044334
     14          1           0       -3.128726   -0.087278   -0.920041
     15          1           0       -1.664605   -0.518416   -0.041638
     16          1           0       -4.357127    0.152388    1.244548
     17          1           0       -2.894161   -0.277988    2.123244
     18          1           0       -2.880628   -2.533666    1.005921
     19          1           0       -4.351907   -2.100844    0.122233
     20          1           0       -4.396567   -2.272498    1.885142
     21          6           0        1.702413   -0.980627   -0.328475
     22          6           0        1.550512   -2.425771   -0.804364
     23          6           0        0.135578   -2.742798   -1.289389
     24          1           0        0.984537   -0.790525    0.481129
     25          1           0        1.434508   -0.301443   -1.149652
     26          1           0        1.819954   -3.102024    0.017036
     27          1           0        2.268966   -2.612511   -1.612800
     28          1           0       -0.139938   -2.091925   -2.125485
     29          1           0       -0.591501   -2.584220   -0.486388
     30          1           0        0.049393   -3.780985   -1.624948
     31          6           0        3.111412   -0.648426    0.159473
     32          6           0        3.263314    0.796716    0.635362
     33          6           0        4.678248    1.113744    1.120387
     34          1           0        3.379318   -1.327610    0.980649
     35          1           0        3.829290   -0.838528   -0.650132
     36          1           0        2.544860    0.983457    1.443798
     37          1           0        2.993873    1.472970   -0.186038
     38          1           0        5.405328    0.955165    0.317386
     39          1           0        4.953765    0.462872    1.956483
     40          1           0        4.764434    2.151932    1.455945
 ---------------------------------------------------------------------

 SCF Done:  E(RHF) =  -470.732456852     A.U. after   11 cycles
 E2 =    -0.1584939227D+01 EUMP2 =    -0.47231739607909D+03

 The electronic state is 1-A.
 Alpha  occ. eigenvalues --  -11.21671 -11.21670 -11.21559 -11.21500 -11.21498
 Alpha  occ. eigenvalues --  -11.21435 -11.21308 -11.21222 -11.21120 -11.21085
 Alpha  occ. eigenvalues --  -11.21060 -11.21013  -1.08528  -1.08346  -1.03599
 Alpha  occ. eigenvalues --   -1.03473  -0.96047  -0.95922  -0.87066  -0.86937
 Alpha  occ. eigenvalues --   -0.79691  -0.79527  -0.78478  -0.78029  -0.65186
 Alpha  occ. eigenvalues --   -0.64971  -0.61066  -0.60818  -0.59421  -0.59298
 Alpha  occ. eigenvalues --   -0.57676  -0.57515  -0.55358  -0.55197  -0.52730
 Alpha  occ. eigenvalues --   -0.52624  -0.52520  -0.52319  -0.50023  -0.49852
 Alpha  occ. eigenvalues --   -0.48126  -0.47833  -0.46841  -0.46558  -0.46283
 Alpha  occ. eigenvalues --   -0.45693  -0.45667  -0.44983  -0.43852  -0.43713
 Alpha virt. eigenvalues --    0.20548   0.22335   0.23614   0.24075   0.25812
 Alpha virt. eigenvalues --    0.26066   0.26873   0.27352   0.28164   0.30138
 Alpha virt. eigenvalues --    0.30587   0.31375   0.31754   0.31904   0.32425

 Mulliken charges:
               1
     1  C   -0.296856
     2  C   -0.306051
     3  C   -0.475371
     4  H    0.149141
     5  H    0.148520
     6  H    0.151041
     7  H    0.158563
     8  H    0.155306
     9  H    0.154903
    10  H    0.159406
    11  C   -0.308278
    12  C   -0.299500
    13  C   -0.478155
    14  H    0.148974
    15  H    0.161351
    16  H    0.151879
    17  H    0.150811
    18  H    0.156561
    19  H    0.155784
    20  H    0.160183
    21  C   -0.304663
    22  C   -0.299607
    23  C   -0.481688
    24  H    0.150703
    25  H    0.153931
    26  H    0.151900
    27  H    0.152258
    28  H    0.156474
    29  H    0.160410
    30  H    0.160808
    31  C   -0.297945
    32  C   -0.300207
    33  C   -0.475717
    34  H    0.149794
    35  H    0.150079
    36  H    0.151502
    37  H    0.152464
    38  H    0.155398
    39  H    0.155316
    40  H    0.160580
 Sum of Mulliken charges =  -0.00000

 Dipole moment (field-independent basis, Debye):
    X=              0.0576    Y=             -0.0433    Z=             -0.0214  Tot=              0.0751
 Quadrupole moment (field-independent basis, Debye-Ang):
   XX=            -85.0712   YY=            -86.0033   ZZ=            -83.7770
   XY=             -0.8013   XZ=             -0.1445   YZ=             -0.4506

 Normal termination of Gaussian 16 at Thu May  6 07:04:47 2021.
