 Gaussian 16, Revision A.03,
 Gaussian 16:  EM64L-G16RevA.03 25-Dec-2016

 -------------
 #p 6-31g* mp2
 -------------

 ------------------------------------------------------
 Input file generated by CHIRIPA (05-May-2021 14:53:12)
 ------------------------------------------------------
 Symbolic Z-matrix:
 Charge =  0 Multiplicity = 1

                         Standard orientation:
 ---------------------------------------------------------------------
 Center     Atomic      Atomic             Coordinates (Angstroms)
 Number     Number       Type             X           Y           Z
 ---------------------------------------------------------------------
      1          6           0        4.869843   -0.211488    0.393467
      2          6           0        5.593754    0.802300   -0.493197
      3          6           0        6.836242    1.391409    0.175359
      4          1           0        4.585019    0.273714    1.337077
      5          1           0        5.564968   -1.021084    0.655667
      6          1           0        4.897070    1.609034   -0.754782
      7          1           0        5.876718    0.314680   -1.434884
      8          1           0        7.552677    0.600981    0.421420
      9          1           0        6.567463    1.902689    1.105386
     10          1           0        7.338305    2.113622   -0.475948
     11          6           0        3.625660   -0.809243   -0.261076
     12          6           0        2.901748   -1.823030    0.625588
     13          6           0        1.659260   -2.412140   -0.042968
     14          1           0        2.930534    0.000354   -0.523276
     15          1           0        3.910483   -1.294444   -1.204686
     16          1           0        2.618785   -1.335411    1.567275
     17          1           0        3.598433   -2.629765    0.887173
     18          1           0        1.928039   -2.923420   -0.972995
     19          1           0        0.942825   -1.621712   -0.289029
     20          1           0        1.157198   -3.134353    0.608339
     21          6           0       -1.425011    2.061327   -0.178842
     22          6           0       -2.693704    2.475952    0.239515
     23          6           0       -3.750256    1.563408    0.313750
     24          6           0       -3.501617    0.237989   -0.039425
     25          6           0       -2.248822   -0.205745   -0.460016
     26          6           0       -1.207003    0.724159   -0.526659
     27          1           0       -0.609979    2.776955   -0.233561
     28          1           0       -2.865920    3.513782    0.510248
     29          1           0       -4.742351    1.857369    0.634300
     30          1           0       -2.107782   -1.246964   -0.723429
     31          1           0       -0.222758    0.399323   -0.851910
     32          7           0       -4.612341   -0.737270    0.035145
     33          8           0       -4.367428   -1.899343   -0.281462
     34          8           0       -5.706810   -0.321138    0.408790
 ---------------------------------------------------------------------

 SCF Done:  E(RHF) =  -669.535365088     A.U. after   15 cycles
 E2 =    -0.2091271743D+01 EUMP2 =    -0.67162663683161D+03

 The electronic state is 1-A.
 Alpha  occ. eigenvalues --  -20.60741 -20.60735 -15.85795 -11.31167 -11.27746
 Alpha  occ. eigenvalues --  -11.27730 -11.27494 -11.26762 -11.26741 -11.22300
 Alpha  occ. eigenvalues --  -11.22190 -11.22163 -11.21998 -11.21884 -11.21562
 Alpha  occ. eigenvalues --   -1.59816  -1.39369  -1.19345  -1.09111  -1.08740
 Alpha  occ. eigenvalues --   -1.04753  -1.04185  -0.96645  -0.95572  -0.87661
 Alpha  occ. eigenvalues --   -0.86150  -0.82409  -0.80249  -0.78925  -0.77450
 Alpha  occ. eigenvalues --   -0.72013  -0.71139  -0.70455  -0.65764  -0.65000
 Alpha  occ. eigenvalues --   -0.64765  -0.62180  -0.61519  -0.59998  -0.58244
 Alpha  occ. eigenvalues --   -0.55958  -0.55249  -0.53310  -0.53134  -0.53054
 Alpha  occ. eigenvalues --   -0.52809  -0.50586  -0.48779  -0.48766  -0.48554
 Alpha  occ. eigenvalues --   -0.47278  -0.46463  -0.46386  -0.44773  -0.44439
 Alpha  occ. eigenvalues --   -0.37329  -0.36346
 Alpha virt. eigenvalues --    0.05077   0.11285   0.16493   0.19258   0.22542
 Alpha virt. eigenvalues --    0.23673   0.25152   0.26281   0.26693   0.28378
 Alpha virt. eigenvalues --    0.28810   0.30061   0.31187   0.31442   0.31693

 Mulliken charges:
               1
     1  C   -0.298801
     2  C   -0.299550
     3  C   -0.476040
     4  H    0.150064
     5  H    0.152423
     6  H    0.149032
     7  H    0.153316
     8  H    0.156864
     9  H    0.155352
    10  H    0.161375
    11  C   -0.297708
    12  C   -0.300531
    13  C   -0.479115
    14  H    0.140418
    15  H    0.152133
    16  H    0.153717
    17  H    0.156233
    18  H    0.158642
    19  H    0.144824
    20  H    0.167453
    21  C   -0.171225
    22  C   -0.218636
    23  C   -0.170869
    24  C    0.158377
    25  C   -0.171731
    26  C   -0.223354
    27  H    0.225465
    28  H    0.223328
    29  H    0.275600
    30  H    0.276922
    31  H    0.228677
    32  N    0.488126
    33  O   -0.460130
    34  O   -0.460654
 Sum of Mulliken charges =  -0.00000

 Dipole moment (field-independent basis, Debye):
    X=              4.0812    Y=              3.3459    Z=             -0.2090  Tot=              5.2815
 Quadrupole moment (field-independent basis, Debye-Ang):
   XX=           -120.4486   YY=            -90.1362   ZZ=            -95.0078
   XY=            -14.9055   XZ=             -0.7930   YZ=              1.2068

 Normal termination of Gaussian 16 at Wed May  5 20:09:02 2021.
