 Gaussian 16, Revision A.03,
 Gaussian 16:  EM64L-G16RevA.03 25-Dec-2016

 -------------
 #p 6-31g* mp2
 -------------

 ------------------------------------------------------
 Input file generated by CHIRIPA (05-May-2021 14:55:22)
 ------------------------------------------------------
 Symbolic Z-matrix:
 Charge =  0 Multiplicity = 1

                         Standard orientation:
 ---------------------------------------------------------------------
 Center     Atomic      Atomic             Coordinates (Angstroms)
 Number     Number       Type             X           Y           Z
 ---------------------------------------------------------------------
      1          6           0       -1.276996   -1.185794   -0.429143
      2          6           0       -1.539166    0.182124   -0.557931
      3          6           0       -2.828435    0.680732   -0.348828
      4          6           0       -3.836346   -0.220964   -0.010672
      5          6           0       -3.606668   -1.589210    0.125129
      6          6           0       -2.309763   -2.065544   -0.088624
      7          1           0       -0.272495   -1.564473   -0.593385
      8          1           0       -0.739053    0.867679   -0.822280
      9          1           0       -3.059218    1.735004   -0.441926
     10          1           0       -4.424784   -2.248065    0.389729
     11          1           0       -2.109074   -3.128383    0.012087
     12          7           0       -5.205280    0.295100    0.213157
     13          8           0       -6.075923   -0.520013    0.510158
     14          8           0       -5.381685    1.504931    0.087355
     15          6           0        5.016937   -0.223020   -0.161295
     16          6           0        6.405356   -0.313054    0.472873
     17          6           0        7.183769   -1.548180    0.018632
     18          1           0        4.447642   -1.129035    0.087675
     19          1           0        5.121209   -0.210094   -1.255075
     20          1           0        6.298576   -0.324412    1.565158
     21          1           0        6.971346    0.593366    0.222525
     22          1           0        7.319737   -1.539871   -1.067667
     23          1           0        6.643144   -2.462865    0.282595
     24          1           0        8.173338   -1.592679    0.484070
     25          6           0        4.226531    1.006426    0.283054
     26          6           0        2.838110    1.096459   -0.351114
     27          6           0        2.059699    2.331584    0.103127
     28          1           0        4.122259    0.993499    1.376834
     29          1           0        4.795825    1.912440    0.034084
     30          1           0        2.272122    0.190039   -0.100766
     31          1           0        2.944891    1.107817   -1.443399
     32          1           0        2.600323    3.246270   -0.160836
     33          1           0        1.923731    2.323277    1.189426
     34          1           0        1.070129    2.376084   -0.362310
 ---------------------------------------------------------------------

 SCF Done:  E(RHF) =  -669.535458260     A.U. after   15 cycles
 E2 =    -0.2091150372D+01 EUMP2 =    -0.67162660863187D+03

 The electronic state is 1-A.
 Alpha  occ. eigenvalues --  -20.60729 -20.60724 -15.85782 -11.31144 -11.27714
 Alpha  occ. eigenvalues --  -11.27703 -11.27449 -11.26731 -11.26693 -11.22705
 Alpha  occ. eigenvalues --  -11.22226 -11.22198 -11.22161 -11.22103 -11.21594
 Alpha  occ. eigenvalues --   -1.59805  -1.39358  -1.19314  -1.09247  -1.08710
 Alpha  occ. eigenvalues --   -1.04719  -1.04353  -0.96790  -0.95546  -0.87806
 Alpha  occ. eigenvalues --   -0.86115  -0.82380  -0.80432  -0.79034  -0.77430
 Alpha  occ. eigenvalues --   -0.72001  -0.71128  -0.70424  -0.65872  -0.64966
 Alpha  occ. eigenvalues --   -0.64760  -0.62126  -0.61724  -0.60167  -0.58398
 Alpha  occ. eigenvalues --   -0.56045  -0.55225  -0.53562  -0.53267  -0.53043
 Alpha  occ. eigenvalues --   -0.52675  -0.50708  -0.48786  -0.48756  -0.48714
 Alpha  occ. eigenvalues --   -0.47459  -0.46581  -0.46478  -0.44765  -0.44604
 Alpha  occ. eigenvalues --   -0.37295  -0.36318
 Alpha virt. eigenvalues --    0.05105   0.11306   0.16588   0.19029   0.22433
 Alpha virt. eigenvalues --    0.23743   0.24892   0.25786   0.26328   0.28094
 Alpha virt. eigenvalues --    0.28711   0.29632   0.30871   0.31632   0.32104

 Mulliken charges:
               1
     1  C   -0.174182
     2  C   -0.224085
     3  C   -0.172920
     4  C    0.158745
     5  C   -0.171148
     6  C   -0.218531
     7  H    0.226979
     8  H    0.233129
     9  H    0.275637
    10  H    0.275406
    11  H    0.223169
    12  N    0.488082
    13  O   -0.460649
    14  O   -0.460442
    15  C   -0.298513
    16  C   -0.300319
    17  C   -0.476083
    18  H    0.147398
    19  H    0.150303
    20  H    0.153131
    21  H    0.153572
    22  H    0.155773
    23  H    0.154854
    24  H    0.162345
    25  C   -0.298731
    26  C   -0.302104
    27  C   -0.478203
    28  H    0.152067
    29  H    0.153025
    30  H    0.144370
    31  H    0.153517
    32  H    0.161506
    33  H    0.160799
    34  H    0.152103
 Sum of Mulliken charges =  -0.00000

 Dipole moment (field-independent basis, Debye):
    X=              5.0765    Y=             -1.7601    Z=             -0.7428  Tot=              5.4241
 Quadrupole moment (field-independent basis, Debye-Ang):
   XX=           -131.2179   YY=            -89.9359   ZZ=            -94.8457
   XY=              8.6863   XZ=              2.5898   YZ=             -1.4060

 Normal termination of Gaussian 16 at Thu May  6 17:33:40 2021.
