 Gaussian 16, Revision A.03,
 Gaussian 16:  EM64L-G16RevA.03 25-Dec-2016

 -------------
 #p 6-31g* mp2
 -------------

 ------------------------------------------------------
 Input file generated by CHIRIPA (05-May-2021 14:57:27)
 ------------------------------------------------------
 Symbolic Z-matrix:
 Charge =  0 Multiplicity = 1

                         Standard orientation:
 ---------------------------------------------------------------------
 Center     Atomic      Atomic             Coordinates (Angstroms)
 Number     Number       Type             X           Y           Z
 ---------------------------------------------------------------------
      1          6           0       -6.065968    0.318632    0.124059
      2          6           0       -5.663057   -0.926122   -0.370686
      3          6           0       -4.305277   -1.238928   -0.485292
      4          6           0       -3.373116   -0.279044   -0.094154
      5          6           0       -3.743100    0.969849    0.402502
      6          6           0       -5.106396    1.260983    0.508396
      7          1           0       -7.122867    0.553209    0.209703
      8          1           0       -6.406064   -1.659906   -0.669928
      9          1           0       -3.965609   -2.194884   -0.865016
     10          1           0       -2.979156    1.680860    0.692796
     11          1           0       -5.416394    2.228481    0.892966
     12          7           0       -1.932775   -0.598726   -0.210871
     13          8           0       -1.131192    0.264208    0.140479
     14          8           0       -1.632692   -1.706173   -0.651493
     15          6           0        4.896013   -1.936658    0.261326
     16          6           0        5.332061   -0.936404   -0.613816
     17          6           0        4.627633    0.266056   -0.725262
     18          6           0        3.486223    0.435468    0.056896
     19          6           0        3.026526   -0.542175    0.937908
     20          6           0        3.746664   -1.736704    1.033035
     21          1           0        5.449332   -2.867678    0.341561
     22          1           0        6.224317   -1.088934   -1.214365
     23          1           0        4.942924    1.057126   -1.394752
     24          1           0        2.133459   -0.361077    1.523616
     25          1           0        3.405687   -2.511764    1.713522
     26          7           0        2.732160    1.704261   -0.052447
     27          8           0        1.729633    1.828990    0.647566
     28          8           0        3.157931    2.549987   -0.836096
 ---------------------------------------------------------------------

 SCF Done:  E(RHF) =  -868.337542350     A.U. after   16 cycles
 E2 =    -0.2599653604D+01 EUMP2 =    -0.87093719595414D+03

 The electronic state is 1-A.
 Alpha  occ. eigenvalues --  -20.60438 -20.60348 -20.59594 -20.59474 -15.85422
 Alpha  occ. eigenvalues --  -15.84577 -11.30852 -11.30031 -11.27469 -11.27379
 Alpha  occ. eigenvalues --  -11.27210 -11.26696 -11.26553 -11.26492 -11.26468
 Alpha  occ. eigenvalues --  -11.26439 -11.25744 -11.25659  -1.59482  -1.58602
 Alpha  occ. eigenvalues --   -1.39022  -1.38147  -1.19040  -1.18235  -1.08432
 Alpha  occ. eigenvalues --   -1.07630  -1.04447  -1.03659  -0.95250  -0.94443
 Alpha  occ. eigenvalues --   -0.85843  -0.85057  -0.82071  -0.81273  -0.77107
 Alpha  occ. eigenvalues --   -0.76286  -0.71656  -0.70810  -0.70787  -0.70147
 Alpha  occ. eigenvalues --   -0.69895  -0.69372  -0.64686  -0.64454  -0.63899
 Alpha  occ. eigenvalues --   -0.63688  -0.61785  -0.61001  -0.54961  -0.54205
 Alpha  occ. eigenvalues --   -0.52783  -0.52538  -0.51980  -0.51767  -0.48453
 Alpha  occ. eigenvalues --   -0.48408  -0.47598  -0.47533  -0.44416  -0.43504
 Alpha  occ. eigenvalues --   -0.37037  -0.36246  -0.36055  -0.35255
 Alpha virt. eigenvalues --    0.05413   0.06255   0.11597   0.12397   0.16886
 Alpha virt. eigenvalues --    0.17696   0.21729   0.22419   0.27642   0.28314
 Alpha virt. eigenvalues --    0.28647   0.29349   0.31274   0.31913   0.32936

 Mulliken charges:
               1
     1  C   -0.171041
     2  C   -0.218856
     3  C   -0.171566
     4  C    0.157323
     5  C   -0.171441
     6  C   -0.218966
     7  H    0.224560
     8  H    0.221835
     9  H    0.273715
    10  H    0.282204
    11  H    0.223948
    12  N    0.487453
    13  O   -0.451008
    14  O   -0.467991
    15  C   -0.171183
    16  C   -0.219288
    17  C   -0.171716
    18  C    0.158299
    19  C   -0.163730
    20  C   -0.218556
    21  H    0.221578
    22  H    0.219124
    23  H    0.272374
    24  H    0.282639
    25  H    0.221278
    26  N    0.488170
    27  O   -0.450176
    28  O   -0.468985
 Sum of Mulliken charges =  -0.00000

 Dipole moment (field-independent basis, Debye):
    X=             -2.6399    Y=             -3.1949    Z=              0.9318  Tot=              4.2479
 Quadrupole moment (field-independent basis, Debye-Ang):
   XX=            -52.8161   YY=           -105.9066   ZZ=           -103.2146
   XY=            -15.0097   XZ=             -1.4158   YZ=              0.3982

 Normal termination of Gaussian 16 at Wed May  5 19:38:27 2021.
