 Gaussian 16, Revision A.03,
 Gaussian 16:  EM64L-G16RevA.03 25-Dec-2016

 -------------
 #p 6-31g* mp2
 -------------

 ------------------------------------------------------
 Input file generated by CHIRIPA (05-May-2021 14:51:08)
 ------------------------------------------------------
 Symbolic Z-matrix:
 Charge =  0 Multiplicity = 1

                         Standard orientation:
 ---------------------------------------------------------------------
 Center     Atomic      Atomic             Coordinates (Angstroms)
 Number     Number       Type             X           Y           Z
 ---------------------------------------------------------------------
      1          6           0        3.238248    0.073930   -0.486324
      2          6           0        3.024013   -1.360224   -0.001256
      3          6           0        3.746517   -2.391693   -0.868351
      4          1           0        2.891199    0.158556   -1.525237
      5          1           0        4.314990    0.292778   -0.497655
      6          1           0        1.947915   -1.575843    0.010474
      7          1           0        3.371436   -1.441397    1.036686
      8          1           0        4.825217   -2.204613   -0.871375
      9          1           0        3.393607   -2.339822   -1.903419
     10          1           0        3.579834   -3.410082   -0.503715
     11          6           0        2.522187    1.116550    0.370372
     12          6           0        2.736422    2.550704   -0.114696
     13          6           0        2.013918    3.582173    0.752399
     14          1           0        1.445446    0.897702    0.381702
     15          1           0        2.869236    1.031924    1.409285
     16          1           0        2.388999    2.631877   -1.152639
     17          1           0        3.812520    2.766322   -0.126426
     18          1           0        2.366828    3.530302    1.787466
     19          1           0        0.935218    3.395092    0.755423
     20          1           0        2.180601    4.600562    0.387762
     21          6           0       -2.433936   -1.177432   -0.154898
     22          6           0       -1.837638   -1.946995    1.024164
     23          6           0       -0.947195   -3.108712    0.582216
     24          1           0       -3.014841   -1.869343   -0.780001
     25          1           0       -1.618447   -0.796412   -0.785135
     26          1           0       -2.653980   -2.325273    1.652741
     27          1           0       -1.258242   -1.253134    1.646638
     28          1           0       -0.113348   -2.744903   -0.026836
     29          1           0       -1.517015   -3.823135   -0.020698
     30          1           0       -0.531429   -3.645077    1.440885
     31          6           0       -3.326500   -0.013047    0.270851
     32          6           0       -3.922797    0.756515   -0.908212
     33          6           0       -4.813241    1.918232   -0.466264
     34          1           0       -4.141988   -0.394067    0.901087
     35          1           0       -2.745594    0.678863    0.895955
     36          1           0       -4.502192    0.062655   -1.530685
     37          1           0       -3.106456    1.134793   -1.536789
     38          1           0       -4.243420    2.632654    0.136651
     39          1           0       -5.647087    1.554424    0.142788
     40          1           0       -5.229006    2.454597   -1.324933
 ---------------------------------------------------------------------

 SCF Done:  E(RHF) =  -470.733335754     A.U. after   11 cycles
 E2 =    -0.1582892518D+01 EUMP2 =    -0.47231622827211D+03

 The electronic state is 1-A.
 Alpha  occ. eigenvalues --  -11.21643 -11.21633 -11.21627 -11.21600 -11.21446
 Alpha  occ. eigenvalues --  -11.21445 -11.21385 -11.21383 -11.21114 -11.21093
 Alpha  occ. eigenvalues --  -11.21077 -11.21074  -1.08476  -1.08454  -1.03577
 Alpha  occ. eigenvalues --   -1.03538  -0.96022  -0.95993  -0.87040  -0.87007
 Alpha  occ. eigenvalues --   -0.79669  -0.79573  -0.78299  -0.78258  -0.65200
 Alpha  occ. eigenvalues --   -0.65006  -0.61108  -0.60826  -0.59374  -0.59372
 Alpha  occ. eigenvalues --   -0.57650  -0.57585  -0.55383  -0.55218  -0.52703
 Alpha  occ. eigenvalues --   -0.52689  -0.52448  -0.52416  -0.50074  -0.49857
 Alpha  occ. eigenvalues --   -0.48019  -0.47866  -0.46813  -0.46491  -0.45920
 Alpha  occ. eigenvalues --   -0.45793  -0.45766  -0.45567  -0.43814  -0.43812
 Alpha virt. eigenvalues --    0.20135   0.23228   0.23617   0.24579   0.25939
 Alpha virt. eigenvalues --    0.26987   0.27120   0.27526   0.28270   0.29111
 Alpha virt. eigenvalues --    0.30748   0.31584   0.31704   0.31793   0.32047

 Mulliken charges:
               1
     1  C   -0.297757
     2  C   -0.307466
     3  C   -0.475540
     4  H    0.149366
     5  H    0.149772
     6  H    0.158801
     7  H    0.152175
     8  H    0.155276
     9  H    0.154912
    10  H    0.160937
    11  C   -0.298531
    12  C   -0.299686
    13  C   -0.475615
    14  H    0.148633
    15  H    0.149947
    16  H    0.151934
    17  H    0.152246
    18  H    0.155341
    19  H    0.154654
    20  H    0.160502
    21  C   -0.298404
    22  C   -0.300367
    23  C   -0.481030
    24  H    0.149949
    25  H    0.148490
    26  H    0.152258
    27  H    0.152659
    28  H    0.160305
    29  H    0.155330
    30  H    0.160654
    31  C   -0.298343
    32  C   -0.299651
    33  C   -0.475728
    34  H    0.149831
    35  H    0.149531
    36  H    0.152067
    37  H    0.151628
    38  H    0.155250
    39  H    0.155310
    40  H    0.160359
 Sum of Mulliken charges =  -0.00000

 Dipole moment (field-independent basis, Debye):
    X=              0.0022    Y=             -0.0117    Z=              0.0096  Tot=              0.0153
 Quadrupole moment (field-independent basis, Debye-Ang):
   XX=            -84.0014   YY=            -85.8555   ZZ=            -84.7373
   XY=              1.5705   XZ=              0.8631   YZ=             -0.5612

 Normal termination of Gaussian 16 at Thu May  6 13:13:23 2021.
