 Gaussian 16, Revision A.03,
 Gaussian 16:  EM64L-G16RevA.03 25-Dec-2016

 -------------
 #p 6-31g* mp2
 -------------

 ------------------------------------------------------
 Input file generated by CHIRIPA (05-May-2021 14:55:20)
 ------------------------------------------------------
 Symbolic Z-matrix:
 Charge =  0 Multiplicity = 1

                         Standard orientation:
 ---------------------------------------------------------------------
 Center     Atomic      Atomic             Coordinates (Angstroms)
 Number     Number       Type             X           Y           Z
 ---------------------------------------------------------------------
      1          6           0       -5.475634   -0.856016    0.459439
      2          6           0       -5.171571    0.488990    0.224860
      3          6           0       -3.868675    0.875647   -0.103017
      4          6           0       -2.890002   -0.113416   -0.188127
      5          6           0       -3.161628   -1.461568    0.039897
      6          6           0       -4.471462   -1.825293    0.366373
      7          1           0       -6.490450   -1.147474    0.713597
      8          1           0       -5.949407    1.243903    0.296432
      9          1           0       -3.605644    1.909767   -0.289642
     10          1           0       -2.364988   -2.191348   -0.038870
     11          1           0       -4.704704   -2.870590    0.548023
     12          7           0       -1.507011    0.283782   -0.534494
     13          8           0       -0.662744   -0.606794   -0.603212
     14          8           0       -1.293478    1.478162   -0.730701
     15          6           0        4.549814   -0.170287   -0.166496
     16          6           0        4.740555   -1.564360    0.431972
     17          6           0        5.862149   -2.350847   -0.247188
     18          1           0        4.335174   -0.265180   -1.239748
     19          1           0        5.492403    0.388453   -0.084452
     20          1           0        3.797490   -2.119821    0.350074
     21          1           0        4.954576   -1.466146    1.503963
     22          1           0        6.815580   -1.820932   -0.153586
     23          1           0        5.651919   -2.478320   -1.314031
     24          1           0        5.981249   -3.344364    0.196207
     25          6           0        3.432101    0.628217    0.501963
     26          6           0        3.241360    2.022290   -0.096505
     27          6           0        2.119766    2.808777    0.582655
     28          1           0        2.489513    0.069478    0.419919
     29          1           0        3.646741    0.723111    1.575215
     30          1           0        3.027339    1.924077   -1.168496
     31          1           0        4.184425    2.577751   -0.014606
     32          1           0        2.329996    2.936250    1.649498
     33          1           0        1.166336    2.278862    0.489053
     34          1           0        2.000666    3.802294    0.139260
 ---------------------------------------------------------------------

 SCF Done:  E(RHF) =  -669.536925139     A.U. after   15 cycles
 E2 =    -0.2091416642D+01 EUMP2 =    -0.67162834178040D+03

 The electronic state is 1-A.
 Alpha  occ. eigenvalues --  -20.61133 -20.61125 -15.86130 -11.31389 -11.27941
 Alpha  occ. eigenvalues --  -11.27937 -11.27668 -11.26932 -11.26922 -11.20644
 Alpha  occ. eigenvalues --  -11.20305 -11.20225 -11.20086 -11.19891 -11.19308
 Alpha  occ. eigenvalues --   -1.60171  -1.39728  -1.19548  -1.08966  -1.07155
 Alpha  occ. eigenvalues --   -1.04933  -1.02263  -0.95817  -0.94711  -0.86337
 Alpha  occ. eigenvalues --   -0.85734  -0.82652  -0.78373  -0.77714  -0.76932
 Alpha  occ. eigenvalues --   -0.72344  -0.71474  -0.70656  -0.65204  -0.64937
 Alpha  occ. eigenvalues --   -0.63772  -0.62280  -0.59644  -0.58141  -0.56327
 Alpha  occ. eigenvalues --   -0.55442  -0.53982  -0.53268  -0.53023  -0.51444
 Alpha  occ. eigenvalues --   -0.51153  -0.49210  -0.49116  -0.48535  -0.46676
 Alpha  occ. eigenvalues --   -0.45425  -0.45085  -0.44497  -0.44303  -0.42517
 Alpha  occ. eigenvalues --   -0.37522  -0.36530
 Alpha virt. eigenvalues --    0.04777   0.11126   0.16280   0.21263   0.24109
 Alpha virt. eigenvalues --    0.25634   0.27192   0.27864   0.28192   0.28781
 Alpha virt. eigenvalues --    0.29284   0.30841   0.32366   0.32680   0.32827

 Mulliken charges:
               1
     1  C   -0.170305
     2  C   -0.218605
     3  C   -0.170502
     4  C    0.158313
     5  C   -0.170556
     6  C   -0.218619
     7  H    0.226379
     8  H    0.224231
     9  H    0.276299
    10  H    0.275930
    11  H    0.224166
    12  N    0.488538
    13  O   -0.460157
    14  O   -0.457890
    15  C   -0.297104
    16  C   -0.299350
    17  C   -0.474976
    18  H    0.150565
    19  H    0.144980
    20  H    0.154343
    21  H    0.148752
    22  H    0.153170
    23  H    0.154729
    24  H    0.156666
    25  C   -0.303939
    26  C   -0.296278
    27  C   -0.484216
    28  H    0.166449
    29  H    0.142609
    30  H    0.154917
    31  H    0.143577
    32  H    0.144346
    33  H    0.179492
    34  H    0.154046
 Sum of Mulliken charges =  -0.00000

 Dipole moment (field-independent basis, Debye):
    X=             -5.3708    Y=             -1.4869    Z=              1.1141  Tot=              5.6831
 Quadrupole moment (field-independent basis, Debye-Ang):
   XX=            -68.3185   YY=            -90.8895   ZZ=            -96.0003
   XY=              3.6354   XZ=             -2.2376   YZ=             -0.4612

 Normal termination of Gaussian 16 at Thu May  6 07:43:46 2021.
