 Gaussian 16, Revision A.03,
 Gaussian 16:  EM64L-G16RevA.03 25-Dec-2016

 -------------
 #p 6-31g* mp2
 -------------

 ------------------------------------------------------
 Input file generated by CHIRIPA (05-May-2021 14:51:07)
 ------------------------------------------------------
 Symbolic Z-matrix:
 Charge =  0 Multiplicity = 1

                         Standard orientation:
 ---------------------------------------------------------------------
 Center     Atomic      Atomic             Coordinates (Angstroms)
 Number     Number       Type             X           Y           Z
 ---------------------------------------------------------------------
      1          6           0       -3.265298   -0.317037    0.058157
      2          6           0       -4.170422   -1.327585   -0.647201
      3          6           0       -3.782212   -2.776500   -0.351008
      4          1           0       -2.224696   -0.489454   -0.249031
      5          1           0       -3.304672   -0.493943    1.141923
      6          1           0       -4.130425   -1.147936   -1.729210
      7          1           0       -5.209013   -1.152618   -0.338445
      8          1           0       -3.840114   -2.978911    0.723365
      9          1           0       -2.755398   -2.974203   -0.675301
     10          1           0       -4.442194   -3.482098   -0.865223
     11          6           0       -3.640806    1.135801   -0.228173
     12          6           0       -2.735682    2.146348    0.477185
     13          6           0       -3.123892    3.595264    0.180992
     14          1           0       -3.601432    1.312706   -1.311939
     15          1           0       -4.681408    1.308218    0.079016
     16          1           0       -1.697091    1.971381    0.168429
     17          1           0       -2.775679    1.966700    1.559194
     18          1           0       -4.150706    3.792967    0.505286
     19          1           0       -3.065990    3.797675   -0.893381
     20          1           0       -2.463910    4.300862    0.695207
     21          6           0        2.765842   -0.661933   -0.132689
     22          6           0        2.029931   -1.436347    0.961250
     23          6           0        0.656632   -1.935111    0.510606
     24          1           0        2.149309    0.191292   -0.447079
     25          1           0        2.880306   -1.306788   -1.014989
     26          1           0        1.918112   -0.790682    1.841721
     27          1           0        2.648371   -2.287717    1.273207
     28          1           0        0.752914   -2.600454   -0.353482
     29          1           0        0.018506   -1.094913    0.218263
     30          1           0        0.148077   -2.485987    1.307957
     31          6           0        4.140262   -0.156831    0.302705
     32          6           0        4.876173    0.617584   -0.791234
     33          6           0        6.249473    1.116347   -0.340590
     34          1           0        4.025798    0.488025    1.185005
     35          1           0        4.756794   -1.010056    0.617095
     36          1           0        4.257734    1.468953   -1.103192
     37          1           0        4.987993   -0.028082   -1.671705
     38          1           0        6.887598    0.276149   -0.048246
     39          1           0        6.153190    1.781690    0.523498
     40          1           0        6.758027    1.667223   -1.137940
 ---------------------------------------------------------------------

 SCF Done:  E(RHF) =  -470.733248399     A.U. after   11 cycles
 E2 =    -0.1582809104D+01 EUMP2 =    -0.47231605750273D+03

 The electronic state is 1-A.
 Alpha  occ. eigenvalues --  -11.21625 -11.21612 -11.21602 -11.21556 -11.21419
 Alpha  occ. eigenvalues --  -11.21378 -11.21359 -11.21301 -11.21088 -11.21079
 Alpha  occ. eigenvalues --  -11.21053 -11.21002  -1.08443  -1.08407  -1.03540
 Alpha  occ. eigenvalues --   -1.03504  -0.95992  -0.95950  -0.87014  -0.86963
 Alpha  occ. eigenvalues --   -0.79639  -0.79542  -0.78290  -0.78185  -0.65113
 Alpha  occ. eigenvalues --   -0.65009  -0.60955  -0.60890  -0.59364  -0.59311
 Alpha  occ. eigenvalues --   -0.57632  -0.57539  -0.55372  -0.55158  -0.52687
 Alpha  occ. eigenvalues --   -0.52646  -0.52472  -0.52332  -0.50037  -0.49808
 Alpha  occ. eigenvalues --   -0.47989  -0.47849  -0.46714  -0.46590  -0.45919
 Alpha  occ. eigenvalues --   -0.45740  -0.45716  -0.45422  -0.43787  -0.43760
 Alpha virt. eigenvalues --    0.21551   0.23032   0.23879   0.24234   0.25408
 Alpha virt. eigenvalues --    0.26692   0.27064   0.27511   0.27838   0.29282
 Alpha virt. eigenvalues --    0.30716   0.31516   0.31684   0.32017   0.32239

 Mulliken charges:
               1
     1  C   -0.305476
     2  C   -0.299102
     3  C   -0.476912
     4  H    0.157706
     5  H    0.149239
     6  H    0.151559
     7  H    0.151622
     8  H    0.154811
     9  H    0.157738
    10  H    0.159743
    11  C   -0.297771
    12  C   -0.299634
    13  C   -0.475651
    14  H    0.149316
    15  H    0.149666
    16  H    0.150611
    17  H    0.152058
    18  H    0.155414
    19  H    0.155240
    20  H    0.160094
    21  C   -0.298287
    22  C   -0.299718
    23  C   -0.480903
    24  H    0.149071
    25  H    0.149450
    26  H    0.152222
    27  H    0.151937
    28  H    0.154367
    29  H    0.160039
    30  H    0.161340
    31  C   -0.298288
    32  C   -0.299662
    33  C   -0.475716
    34  H    0.149643
    35  H    0.149750
    36  H    0.151873
    37  H    0.151899
    38  H    0.155214
    39  H    0.155230
    40  H    0.160269
 Sum of Mulliken charges =  -0.00000

 Dipole moment (field-independent basis, Debye):
    X=              0.0058    Y=             -0.0105    Z=              0.0074  Tot=              0.0141
 Quadrupole moment (field-independent basis, Debye-Ang):
   XX=            -85.3376   YY=            -85.4287   ZZ=            -84.0619
   XY=             -0.6385   XZ=             -0.8560   YZ=              0.3390

 Normal termination of Gaussian 16 at Wed May  5 19:38:00 2021.
