 Gaussian 16, Revision A.03,
 Gaussian 16:  EM64L-G16RevA.03 25-Dec-2016

 -------------
 #p 6-31g* mp2
 -------------

 ------------------------------------------------------
 Input file generated by CHIRIPA (05-May-2021 14:57:27)
 ------------------------------------------------------
 Symbolic Z-matrix:
 Charge =  0 Multiplicity = 1

                         Standard orientation:
 ---------------------------------------------------------------------
 Center     Atomic      Atomic             Coordinates (Angstroms)
 Number     Number       Type             X           Y           Z
 ---------------------------------------------------------------------
      1          6           0       -4.728351    0.927216    0.787804
      2          6           0       -4.451324    0.814526   -0.578606
      3          6           0       -3.346127    0.081404   -1.020895
      4          6           0       -2.535434   -0.528833   -0.065030
      5          6           0       -2.785140   -0.434989    1.303228
      6          6           0       -3.895842    0.303199    1.722712
      7          1           0       -5.589033    1.498691    1.122527
      8          1           0       -5.096127    1.298083   -1.306924
      9          1           0       -3.108454   -0.022101   -2.072663
     10          1           0       -2.124090   -0.928217    2.005480
     11          1           0       -4.108552    0.389012    2.784520
     12          7           0       -1.362497   -1.307638   -0.521190
     13          8           0       -0.663709   -1.835808    0.340999
     14          8           0       -1.164148   -1.375150   -1.732279
     15          6           0        1.970167    2.755420   -0.504842
     16          6           0        1.663128    1.719848   -1.393571
     17          6           0        2.078319    0.411221   -1.129636
     18          6           0        2.802086    0.172810    0.037674
     19          6           0        3.123572    1.183236    0.942647
     20          6           0        2.698125    2.484287    0.658379
     21          1           0        1.643653    3.769050   -0.717770
     22          1           0        1.097927    1.927479   -2.297717
     23          1           0        1.854365   -0.409315   -1.800444
     24          1           0        3.688472    0.945340    1.835794
     25          1           0        2.938015    3.286552    1.350381
     26          7           0        3.247058   -1.208565    0.327853
     27          8           0        3.883449   -1.392502    1.363135
     28          8           0        2.951011   -2.081192   -0.485483
 ---------------------------------------------------------------------

 SCF Done:  E(RHF) =  -868.337900928     A.U. after   16 cycles
 E2 =    -0.2600861176D+01 EUMP2 =    -0.87093876210410D+03

 The electronic state is 1-A.
 Alpha  occ. eigenvalues --  -20.61028 -20.60970 -20.59617 -20.59511 -15.86034
 Alpha  occ. eigenvalues --  -15.84626 -11.31424 -11.30219 -11.28021 -11.27963
 Alpha  occ. eigenvalues --  -11.27741 -11.27029 -11.26991 -11.26921 -11.26741
 Alpha  occ. eigenvalues --  -11.26697 -11.26009 -11.25908  -1.60058  -1.58626
 Alpha  occ. eigenvalues --   -1.39614  -1.38173  -1.19597  -1.18452  -1.08987
 Alpha  occ. eigenvalues --   -1.07820  -1.05004  -1.03890  -0.95816  -0.94603
 Alpha  occ. eigenvalues --   -0.86400  -0.85278  -0.82650  -0.81434  -0.77695
 Alpha  occ. eigenvalues --   -0.76412  -0.72246  -0.71405  -0.70858  -0.70704
 Alpha  occ. eigenvalues --   -0.69921  -0.69570  -0.65250  -0.65004  -0.64107
 Alpha  occ. eigenvalues --   -0.63910  -0.62349  -0.61203  -0.55502  -0.54442
 Alpha  occ. eigenvalues --   -0.53335  -0.53094  -0.52228  -0.51983  -0.49012
 Alpha  occ. eigenvalues --   -0.48975  -0.47647  -0.47576  -0.45027  -0.43517
 Alpha  occ. eigenvalues --   -0.37584  -0.36611  -0.36482  -0.35513
 Alpha virt. eigenvalues --    0.04814   0.06133   0.11042   0.12133   0.16301
 Alpha virt. eigenvalues --    0.17534   0.21184   0.22207   0.27092   0.27951
 Alpha virt. eigenvalues --    0.28225   0.29191   0.30761   0.31687   0.32342

 Mulliken charges:
               1
     1  C   -0.171039
     2  C   -0.218883
     3  C   -0.172462
     4  C    0.159274
     5  C   -0.170561
     6  C   -0.218790
     7  H    0.225894
     8  H    0.223023
     9  H    0.273585
    10  H    0.278197
    11  H    0.224471
    12  N    0.488052
    13  O   -0.451742
    14  O   -0.466661
    15  C   -0.172405
    16  C   -0.224052
    17  C   -0.170762
    18  C    0.161324
    19  C   -0.172357
    20  C   -0.220270
    21  H    0.220143
    22  H    0.221470
    23  H    0.290809
    24  H    0.272828
    25  H    0.218557
    26  N    0.489796
    27  O   -0.468388
    28  O   -0.449051
 Sum of Mulliken charges =  -0.00000

 Dipole moment (field-independent basis, Debye):
    X=             -5.8465    Y=              7.2304    Z=              0.5591  Tot=              9.3152
 Quadrupole moment (field-independent basis, Debye-Ang):
   XX=            -93.3241   YY=           -107.0435   ZZ=            -97.3488
   XY=              8.3759   XZ=             -4.0964   YZ=             -0.5757

 Normal termination of Gaussian 16 at Thu May  6 21:24:41 2021.
