 Gaussian 16, Revision A.03,
 Gaussian 16:  EM64L-G16RevA.03 25-Dec-2016

 -------------
 #p 6-31g* mp2
 -------------

 ------------------------------------------------------
 Input file generated by CHIRIPA (05-May-2021 14:51:11)
 ------------------------------------------------------
 Symbolic Z-matrix:
 Charge =  0 Multiplicity = 1

                         Standard orientation:
 ---------------------------------------------------------------------
 Center     Atomic      Atomic             Coordinates (Angstroms)
 Number     Number       Type             X           Y           Z
 ---------------------------------------------------------------------
      1          6           0        2.961204    0.088303   -0.165220
      2          6           0        3.819185   -0.571050   -1.245547
      3          6           0        4.419632    0.440221   -2.222578
      4          1           0        2.155037    0.660344   -0.644606
      5          1           0        3.573701    0.814223    0.387304
      6          1           0        3.205620   -1.296510   -1.794965
      7          1           0        4.623289   -1.141744   -0.763529
      8          1           0        5.054472    1.157702   -1.692671
      9          1           0        3.628748    1.002056   -2.729968
     10          1           0        5.029159   -0.052650   -2.986394
     11          6           0        2.353995   -0.909745    0.819120
     12          6           0        1.496014   -0.250392    1.899447
     13          6           0        0.895567   -1.261663    2.876477
     14          1           0        1.741498   -1.635664    0.266596
     15          1           0        3.160161   -1.481786    1.298505
     16          1           0        0.691910    0.320303    1.417428
     17          1           0        2.109579    0.475069    2.448865
     18          1           0        1.686451   -1.823498    3.383868
     19          1           0        0.260727   -1.979143    2.346571
     20          1           0        0.286040   -0.768792    3.640293
     21          6           0       -2.187501    0.842376    0.092709
     22          6           0       -2.278394    2.333091   -0.235149
     23          6           0       -1.331976    3.183603    0.612623
     24          1           0       -2.412718    0.693254    1.157597
     25          1           0       -1.153347    0.503194   -0.058539
     26          1           0       -3.312367    2.669049   -0.084658
     27          1           0       -2.053122    2.478661   -1.299423
     28          1           0       -0.292937    2.876438    0.455626
     29          1           0       -1.559337    3.067907    1.677294
     30          1           0       -1.413319    4.245836    0.361821
     31          6           0       -3.127698   -0.020934   -0.746608
     32          6           0       -3.036805   -1.511649   -0.418750
     33          6           0       -3.983223   -2.362161   -1.266524
     34          1           0       -4.161852    0.318248   -0.595361
     35          1           0       -2.902481    0.128188   -1.811496
     36          1           0       -3.262078   -1.657220    0.645523
     37          1           0       -2.002831   -1.847608   -0.569242
     38          1           0       -3.755862   -2.246466   -2.331194
     39          1           0       -5.022262   -2.054996   -1.109527
     40          1           0       -3.901880   -3.424395   -1.015720
 ---------------------------------------------------------------------

 SCF Done:  E(RHF) =  -470.733219790     A.U. after   11 cycles
 E2 =    -0.1583688495D+01 EUMP2 =    -0.47231690828549D+03

 The electronic state is 1-A.
 Alpha  occ. eigenvalues --  -11.21662 -11.21650 -11.21626 -11.21499 -11.21463
 Alpha  occ. eigenvalues --  -11.21423 -11.21403 -11.21350 -11.21114 -11.21099
 Alpha  occ. eigenvalues --  -11.21092 -11.21013  -1.08502  -1.08418  -1.03584
 Alpha  occ. eigenvalues --   -1.03506  -0.96027  -0.95966  -0.87044  -0.86982
 Alpha  occ. eigenvalues --   -0.79684  -0.79545  -0.78391  -0.78163  -0.65242
 Alpha  occ. eigenvalues --   -0.64954  -0.61012  -0.60884  -0.59427  -0.59303
 Alpha  occ. eigenvalues --   -0.57641  -0.57571  -0.55316  -0.55255  -0.52718
 Alpha  occ. eigenvalues --   -0.52655  -0.52454  -0.52391  -0.49995  -0.49893
 Alpha  occ. eigenvalues --   -0.48078  -0.47847  -0.46828  -0.46580  -0.46118
 Alpha  occ. eigenvalues --   -0.45798  -0.45737  -0.45201  -0.43836  -0.43771
 Alpha virt. eigenvalues --    0.19985   0.23165   0.23588   0.24052   0.25475
 Alpha virt. eigenvalues --    0.26607   0.26948   0.28120   0.28339   0.29658
 Alpha virt. eigenvalues --    0.31042   0.31342   0.31561   0.31871   0.32351

 Mulliken charges:
               1
     1  C   -0.299044
     2  C   -0.299578
     3  C   -0.475705
     4  H    0.148423
     5  H    0.150026
     6  H    0.151739
     7  H    0.152295
     8  H    0.155354
     9  H    0.154967
    10  H    0.160346
    11  C   -0.298237
    12  C   -0.308725
    13  C   -0.475462
    14  H    0.148716
    15  H    0.149846
    16  H    0.162042
    17  H    0.151535
    18  H    0.154721
    19  H    0.155633
    20  H    0.159828
    21  C   -0.303728
    22  C   -0.299575
    23  C   -0.477947
    24  H    0.150416
    25  H    0.154035
    26  H    0.152211
    27  H    0.151671
    28  H    0.157284
    29  H    0.155501
    30  H    0.160556
    31  C   -0.297726
    32  C   -0.299938
    33  C   -0.475748
    34  H    0.149932
    35  H    0.149545
    36  H    0.152569
    37  H    0.151078
    38  H    0.155221
    39  H    0.155451
    40  H    0.160470
 Sum of Mulliken charges =  -0.00000

 Dipole moment (field-independent basis, Debye):
    X=             -0.0341    Y=              0.0160    Z=              0.0014  Tot=              0.0377
 Quadrupole moment (field-independent basis, Debye-Ang):
   XX=            -84.1260   YY=            -85.6881   ZZ=            -84.8646
   XY=             -0.7781   XZ=              0.0039   YZ=              0.2388

 Normal termination of Gaussian 16 at Wed May  5 18:15:05 2021.
