 Gaussian 16, Revision A.03,
 Gaussian 16:  EM64L-G16RevA.03 25-Dec-2016

 -------------
 #p 6-31g* mp2
 -------------

 ------------------------------------------------------
 Input file generated by CHIRIPA (05-May-2021 14:53:16)
 ------------------------------------------------------
 Symbolic Z-matrix:
 Charge =  0 Multiplicity = 1

                         Standard orientation:
 ---------------------------------------------------------------------
 Center     Atomic      Atomic             Coordinates (Angstroms)
 Number     Number       Type             X           Y           Z
 ---------------------------------------------------------------------
      1          6           0        2.761909   -0.919272   -0.007120
      2          6           0        2.069798   -1.181040   -1.345194
      3          6           0        0.820733   -2.051554   -1.204346
      4          1           0        3.032516   -1.879697    0.452555
      5          1           0        2.051310   -0.434664    0.676693
      6          1           0        2.781906   -1.663757   -2.026738
      7          1           0        1.800979   -0.219875   -1.801827
      8          1           0        0.089415   -1.572253   -0.545525
      9          1           0        1.075916   -3.024340   -0.771714
     10          1           0        0.341741   -2.226107   -2.172828
     11          6           0        4.012260   -0.050441   -0.131551
     12          6           0        4.704372    0.211327    1.206523
     13          6           0        5.953436    1.081841    1.065675
     14          1           0        4.722860   -0.535049   -0.815363
     15          1           0        3.741654    0.909984   -0.591226
     16          1           0        4.973191   -0.749838    1.663156
     17          1           0        3.992264    0.694044    1.888067
     18          1           0        5.698254    2.054627    0.633043
     19          1           0        6.684755    0.602540    0.406854
     20          1           0        6.432429    1.256394    2.034157
     21          6           0       -3.687562   -1.448371    1.448038
     22          6           0       -3.644156   -0.136914    1.932515
     23          6           0       -3.069563    0.883463    1.168825
     24          6           0       -2.545481    0.555438   -0.080586
     25          6           0       -2.573659   -0.741542   -0.590821
     26          6           0       -3.153118   -1.745974    0.190134
     27          1           0       -4.135810   -2.234831    2.047996
     28          1           0       -4.058436    0.097123    2.909062
     29          1           0       -3.022663    1.907270    1.519591
     30          1           0       -2.152500   -0.944128   -1.568063
     31          1           0       -3.185434   -2.763576   -0.188664
     32          7           0       -1.934610    1.627226   -0.898208
     33          8           0       -1.479803    1.312303   -1.995757
     34          8           0       -1.922183    2.761920   -0.426032
 ---------------------------------------------------------------------

 SCF Done:  E(RHF) =  -669.535032679     A.U. after   15 cycles
 E2 =    -0.2092456440D+01 EUMP2 =    -0.67162748911872D+03

 The electronic state is 1-A.
 Alpha  occ. eigenvalues --  -20.60841 -20.60833 -15.85885 -11.31212 -11.27799
 Alpha  occ. eigenvalues --  -11.27748 -11.27532 -11.26792 -11.26772 -11.21355
 Alpha  occ. eigenvalues --  -11.21278 -11.21142 -11.21056 -11.21026 -11.20819
 Alpha  occ. eigenvalues --   -1.59910  -1.39464  -1.19403  -1.08795  -1.08164
 Alpha  occ. eigenvalues --   -1.04801  -1.03302  -0.95813  -0.95616  -0.86835
 Alpha  occ. eigenvalues --   -0.86181  -0.82464  -0.79374  -0.77971  -0.77510
 Alpha  occ. eigenvalues --   -0.72102  -0.71236  -0.70509  -0.65046  -0.64855
 Alpha  occ. eigenvalues --   -0.64728  -0.62167  -0.60682  -0.59154  -0.57393
 Alpha  occ. eigenvalues --   -0.55348  -0.55084  -0.53176  -0.52902  -0.52464
 Alpha  occ. eigenvalues --   -0.52167  -0.49699  -0.48859  -0.48859  -0.47689
 Alpha  occ. eigenvalues --   -0.46367  -0.45527  -0.45422  -0.44860  -0.43566
 Alpha  occ. eigenvalues --   -0.37378  -0.36328
 Alpha virt. eigenvalues --    0.04994   0.11217   0.16471   0.21187   0.23119
 Alpha virt. eigenvalues --    0.24339   0.26708   0.26946   0.27718   0.27990
 Alpha virt. eigenvalues --    0.28954   0.30758   0.31513   0.31660   0.32212

 Mulliken charges:
               1
     1  C   -0.298066
     2  C   -0.301873
     3  C   -0.481852
     4  H    0.146573
     5  H    0.148935
     6  H    0.150726
     7  H    0.165697
     8  H    0.157024
     9  H    0.151470
    10  H    0.156503
    11  C   -0.299171
    12  C   -0.299430
    13  C   -0.475805
    14  H    0.148795
    15  H    0.154547
    16  H    0.149984
    17  H    0.151906
    18  H    0.157091
    19  H    0.154654
    20  H    0.159078
    21  C   -0.170362
    22  C   -0.218792
    23  C   -0.170935
    24  C    0.157483
    25  C   -0.172801
    26  C   -0.219038
    27  H    0.225883
    28  H    0.223511
    29  H    0.275550
    30  H    0.280914
    31  H    0.224655
    32  N    0.488380
    33  O   -0.460962
    34  O   -0.460271
 Sum of Mulliken charges =  -0.00000

 Dipole moment (field-independent basis, Debye):
    X=             -2.1992    Y=             -3.6801    Z=              2.8366  Tot=              5.1406
 Quadrupole moment (field-independent basis, Debye-Ang):
   XX=            -84.8823   YY=            -97.0736   ZZ=            -92.9623
   XY=              7.0660   XZ=             -8.4847   YZ=              4.6122

 Normal termination of Gaussian 16 at Wed May  5 18:43:25 2021.
