 Gaussian 16, Revision A.03,
 Gaussian 16:  EM64L-G16RevA.03 25-Dec-2016

 -------------
 #p 6-31g* mp2
 -------------

 ------------------------------------------------------
 Input file generated by CHIRIPA (05-May-2021 14:53:12)
 ------------------------------------------------------
 Symbolic Z-matrix:
 Charge =  0 Multiplicity = 1

                         Standard orientation:
 ---------------------------------------------------------------------
 Center     Atomic      Atomic             Coordinates (Angstroms)
 Number     Number       Type             X           Y           Z
 ---------------------------------------------------------------------
      1          6           0        3.380183   -0.572796   -0.021596
      2          6           0        2.888423   -1.288774   -1.279980
      3          6           0        1.425154   -1.720925   -1.180576
      4          1           0        3.250313   -1.236180    0.844430
      5          1           0        2.748544    0.307494    0.161480
      6          1           0        3.521664   -2.166673   -1.461406
      7          1           0        3.019657   -0.623680   -2.143139
      8          1           0        0.776927   -0.852809   -1.023166
      9          1           0        1.281787   -2.404569   -0.337559
     10          1           0        1.094380   -2.230715   -2.090831
     11          6           0        4.841229   -0.134627   -0.105741
     12          6           0        5.332989    0.581351    1.152644
     13          6           0        6.796259    1.013502    1.053240
     14          1           0        5.472869   -1.014917   -0.288816
     15          1           0        4.971099    0.528757   -0.971766
     16          1           0        5.201756   -0.083743    2.015803
     17          1           0        4.699748    1.459251    1.334070
     18          1           0        6.939625    1.697146    0.210223
     19          1           0        7.444485    0.145386    0.895829
     20          1           0        7.127032    1.523292    1.963494
     21          6           0       -4.201984   -1.842421    0.996159
     22          6           0       -4.793636   -0.606576    1.277507
     23          6           0       -4.253404    0.573817    0.758500
     24          6           0       -3.115732    0.481171   -0.041756
     25          6           0       -2.503324   -0.735063   -0.340121
     26          6           0       -3.060728   -1.902613    0.189666
     27          1           0       -4.628319   -2.754390    1.403523
     28          1           0       -5.680007   -0.556808    1.903538
     29          1           0       -4.691208    1.543863    0.960382
     30          1           0       -1.620340   -0.752831   -0.967371
     31          1           0       -2.599121   -2.860993   -0.030502
     32          7           0       -2.534723    1.724002   -0.596911
     33          8           0       -1.531930    1.615497   -1.299242
     34          8           0       -3.093121    2.783107   -0.319197
 ---------------------------------------------------------------------

 SCF Done:  E(RHF) =  -669.535910554     A.U. after   15 cycles
 E2 =    -0.2091090347D+01 EUMP2 =    -0.67162700090145D+03

 The electronic state is 1-A.
 Alpha  occ. eigenvalues --  -20.60795 -20.60788 -15.85838 -11.31148 -11.27728
 Alpha  occ. eigenvalues --  -11.27673 -11.27467 -11.26738 -11.26711 -11.21591
 Alpha  occ. eigenvalues --  -11.21420 -11.21302 -11.21253 -11.21190 -11.20899
 Alpha  occ. eigenvalues --   -1.59863  -1.39419  -1.19324  -1.08733  -1.08312
 Alpha  occ. eigenvalues --   -1.04719  -1.03468  -0.95947  -0.95571  -0.86980
 Alpha  occ. eigenvalues --   -0.86120  -0.82405  -0.79548  -0.78113  -0.77453
 Alpha  occ. eigenvalues --   -0.72059  -0.71182  -0.70443  -0.64980  -0.64942
 Alpha  occ. eigenvalues --   -0.64720  -0.62095  -0.60841  -0.59310  -0.57541
 Alpha  occ. eigenvalues --   -0.55322  -0.55142  -0.53059  -0.52886  -0.52633
 Alpha  occ. eigenvalues --   -0.52319  -0.49865  -0.48815  -0.48811  -0.47853
 Alpha  occ. eigenvalues --   -0.46537  -0.45665  -0.45556  -0.44830  -0.43715
 Alpha  occ. eigenvalues --   -0.37312  -0.36317
 Alpha virt. eigenvalues --    0.05053   0.11305   0.16566   0.20979   0.23042
 Alpha virt. eigenvalues --    0.24260   0.25876   0.26779   0.27724   0.27912
 Alpha virt. eigenvalues --    0.29327   0.30112   0.31576   0.31731   0.32049

 Mulliken charges:
               1
     1  C   -0.300272
     2  C   -0.297766
     3  C   -0.487908
     4  H    0.146967
     5  H    0.156282
     6  H    0.150828
     7  H    0.157239
     8  H    0.165301
     9  H    0.150535
    10  H    0.158275
    11  C   -0.298623
    12  C   -0.299992
    13  C   -0.475753
    14  H    0.148071
    15  H    0.151778
    16  H    0.150533
    17  H    0.154372
    18  H    0.156135
    19  H    0.154204
    20  H    0.160070
    21  C   -0.170574
    22  C   -0.218916
    23  C   -0.170418
    24  C    0.157019
    25  C   -0.176110
    26  C   -0.221532
    27  H    0.225421
    28  H    0.223231
    29  H    0.275331
    30  H    0.286844
    31  H    0.224289
    32  N    0.488050
    33  O   -0.462949
    34  O   -0.459963
 Sum of Mulliken charges =  -0.00000

 Dipole moment (field-independent basis, Debye):
    X=             -1.9992    Y=             -4.2974    Z=              1.9380  Tot=              5.1206
 Quadrupole moment (field-independent basis, Debye-Ang):
   XX=            -80.7363   YY=            -97.5504   ZZ=            -94.4636
   XY=             10.2312   XZ=             -8.1384   YZ=              2.0320

 Normal termination of Gaussian 16 at Thu May  6 04:07:15 2021.
