 Gaussian 16, Revision A.03,
 Gaussian 16:  EM64L-G16RevA.03 25-Dec-2016

 -------------
 #p 6-31g* mp2
 -------------

 ------------------------------------------------------
 Input file generated by CHIRIPA (05-May-2021 14:57:25)
 ------------------------------------------------------
 Symbolic Z-matrix:
 Charge =  0 Multiplicity = 1

                         Standard orientation:
 ---------------------------------------------------------------------
 Center     Atomic      Atomic             Coordinates (Angstroms)
 Number     Number       Type             X           Y           Z
 ---------------------------------------------------------------------
      1          6           0        4.277126    2.219276    0.690056
      2          6           0        2.903290    1.959615    0.730957
      3          6           0        2.398177    0.736394    0.280248
      4          6           0        3.299471   -0.208746   -0.207266
      5          6           0        4.673516    0.020200   -0.260874
      6          6           0        5.156304    1.250448    0.195144
      7          1           0        4.660839    3.172233    1.042240
      8          1           0        2.218165    2.710159    1.114796
      9          1           0        1.339239    0.509112    0.300566
     10          1           0        5.331781   -0.747595   -0.648942
     11          1           0        6.223729    1.449352    0.162191
     12          7           0        2.776547   -1.507435   -0.687221
     13          8           0        3.591443   -2.323543   -1.112131
     14          8           0        1.561685   -1.684648   -0.629413
     15          6           0       -4.701878    1.053876   -1.745772
     16          6           0       -5.319334    0.790044   -0.518719
     17          6           0       -4.599771    0.203471    0.526608
     18          6           0       -3.258408   -0.107691    0.309329
     19          6           0       -2.615042    0.142830   -0.901709
     20          6           0       -3.354079    0.729999   -1.933021
     21          1           0       -5.268416    1.509772   -2.552364
     22          1           0       -6.365915    1.040506   -0.370457
     23          1           0       -5.052921   -0.011669    1.486707
     24          1           0       -1.570315   -0.118075   -1.019564
     25          1           0       -2.871949    0.933753   -2.884904
     26          7           0       -2.486330   -0.728984    1.408552
     27          8           0       -1.305805   -0.993635    1.191851
     28          8           0       -3.076320   -0.939539    2.466009
 ---------------------------------------------------------------------

 SCF Done:  E(RHF) =  -868.338013871     A.U. after   16 cycles
 E2 =    -0.2600065858D+01 EUMP2 =    -0.87093807972922D+03

 The electronic state is 1-A.
 Alpha  occ. eigenvalues --  -20.60560 -20.60536 -20.60263 -20.60216 -15.85582
 Alpha  occ. eigenvalues --  -15.85286 -11.30992 -11.30712 -11.27591 -11.27518
 Alpha  occ. eigenvalues --  -11.27341 -11.27336 -11.27228 -11.27100 -11.26616
 Alpha  occ. eigenvalues --  -11.26580 -11.26368 -11.26325  -1.59621  -1.59315
 Alpha  occ. eigenvalues --   -1.39168  -1.38860  -1.19177  -1.18907  -1.08570
 Alpha  occ. eigenvalues --   -1.08300  -1.04580  -1.04318  -0.95392  -0.95113
 Alpha  occ. eigenvalues --   -0.85977  -0.85714  -0.82216  -0.81934  -0.77284
 Alpha  occ. eigenvalues --   -0.76929  -0.71829  -0.71449  -0.70949  -0.70640
 Alpha  occ. eigenvalues --   -0.70277  -0.70016  -0.64827  -0.64589  -0.64552
 Alpha  occ. eigenvalues --   -0.64325  -0.61920  -0.61641  -0.55090  -0.54840
 Alpha  occ. eigenvalues --   -0.52920  -0.52669  -0.52654  -0.52407  -0.48586
 Alpha  occ. eigenvalues --   -0.48560  -0.48283  -0.48205  -0.44558  -0.44248
 Alpha  occ. eigenvalues --   -0.37175  -0.36913  -0.36191  -0.35927
 Alpha virt. eigenvalues --    0.05236   0.05546   0.11448   0.11721   0.16701
 Alpha virt. eigenvalues --    0.17014   0.21024   0.22057   0.26117   0.27759
 Alpha virt. eigenvalues --    0.28035   0.29311   0.30479   0.31600   0.32027

 Mulliken charges:
               1
     1  C   -0.170850
     2  C   -0.220153
     3  C   -0.174813
     4  C    0.156518
     5  C   -0.171044
     6  C   -0.219229
     7  H    0.223724
     8  H    0.222513
     9  H    0.287348
    10  H    0.274332
    11  H    0.221632
    12  N    0.487862
    13  O   -0.463707
    14  O   -0.455733
    15  C   -0.170947
    16  C   -0.218924
    17  C   -0.171285
    18  C    0.156819
    19  C   -0.176323
    20  C   -0.219497
    21  H    0.224829
    22  H    0.222584
    23  H    0.274921
    24  H    0.285579
    25  H    0.224041
    26  N    0.488509
    27  O   -0.456792
    28  O   -0.461916
 Sum of Mulliken charges =  -0.00000

 Dipole moment (field-independent basis, Debye):
    X=             -0.9694    Y=              6.6413    Z=             -2.1601  Tot=              7.0507
 Quadrupole moment (field-independent basis, Debye-Ang):
   XX=            -68.5971   YY=           -108.3579   ZZ=           -107.3323
   XY=              6.2744   XZ=             13.5355   YZ=              0.1882

 Normal termination of Gaussian 16 at Thu May  6 16:24:08 2021.
