 Gaussian 16, Revision A.03,
 Gaussian 16:  EM64L-G16RevA.03 25-Dec-2016

 -------------
 #p 6-31g* mp2
 -------------

 ------------------------------------------------------
 Input file generated by CHIRIPA (05-May-2021 14:57:23)
 ------------------------------------------------------
 Symbolic Z-matrix:
 Charge =  0 Multiplicity = 1

                         Standard orientation:
 ---------------------------------------------------------------------
 Center     Atomic      Atomic             Coordinates (Angstroms)
 Number     Number       Type             X           Y           Z
 ---------------------------------------------------------------------
      1          6           0        4.169309    2.352285   -0.592129
      2          6           0        4.849903    1.235820   -1.088939
      3          6           0        4.486985   -0.053382   -0.687946
      4          6           0        3.434006   -0.190095    0.215289
      5          6           0        2.736587    0.902576    0.728093
      6          6           0        3.116679    2.182399    0.313205
      7          1           0        4.457903    3.350125   -0.909027
      8          1           0        5.667779    1.364746   -1.792147
      9          1           0        4.996825   -0.935086   -1.056837
     10          1           0        1.925398    0.742336    1.427888
     11          1           0        2.586333    3.047639    0.700683
     12          7           0        3.040710   -1.549951    0.647157
     13          8           0        2.109563   -1.643614    1.443920
     14          8           0        3.671039   -2.496394    0.180716
     15          6           0       -1.176220   -0.931203   -0.552159
     16          6           0       -2.291636   -1.646325   -1.000454
     17          6           0       -3.583225   -1.158765   -0.779926
     18          6           0       -3.723366    0.052710   -0.104664
     19          6           0       -2.631820    0.788408    0.354209
     20          6           0       -1.349567    0.281743    0.122552
     21          1           0       -0.176509   -1.317371   -0.727794
     22          1           0       -2.160025   -2.588590   -1.524724
     23          1           0       -4.464187   -1.691914   -1.116194
     24          1           0       -2.794755    1.724794    0.873874
     25          1           0       -0.485148    0.839262    0.471835
     26          7           0       -5.085772    0.578980    0.134690
     27          8           0       -5.182441    1.648749    0.732090
     28          8           0       -6.031160   -0.088263   -0.279636
 ---------------------------------------------------------------------

 SCF Done:  E(RHF) =  -868.338200131     A.U. after   16 cycles
 E2 =    -0.2600255688D+01 EUMP2 =    -0.87093845581817D+03

 The electronic state is 1-A.
 Alpha  occ. eigenvalues --  -20.61952 -20.61934 -20.60541 -20.60532 -15.86970
 Alpha  occ. eigenvalues --  -15.85594 -11.32266 -11.30867 -11.28859 -11.28749
 Alpha  occ. eigenvalues --  -11.28446 -11.27798 -11.27726 -11.27499 -11.27431
 Alpha  occ. eigenvalues --  -11.27085 -11.26484 -11.26356  -1.61020  -1.59618
 Alpha  occ. eigenvalues --   -1.40571  -1.39174  -1.20407  -1.19037  -1.09801
 Alpha  occ. eigenvalues --   -1.08422  -1.05793  -1.04450  -0.96655  -0.95273
 Alpha  occ. eigenvalues --   -0.87187  -0.85840  -0.83482  -0.82130  -0.78567
 Alpha  occ. eigenvalues --   -0.77212  -0.73173  -0.72373  -0.71814  -0.71485
 Alpha  occ. eigenvalues --   -0.70941  -0.70072  -0.66045  -0.65785  -0.64687
 Alpha  occ. eigenvalues --   -0.64490  -0.63132  -0.61807  -0.56243  -0.54872
 Alpha  occ. eigenvalues --   -0.54120  -0.53871  -0.52750  -0.52535  -0.49957
 Alpha  occ. eigenvalues --   -0.49927  -0.48574  -0.48563  -0.45970  -0.44602
 Alpha  occ. eigenvalues --   -0.38350  -0.37389  -0.36945  -0.36060
 Alpha virt. eigenvalues --    0.03904   0.05364   0.10174   0.11586   0.15442
 Alpha virt. eigenvalues --    0.16886   0.19578   0.21911   0.25236   0.27004
 Alpha virt. eigenvalues --    0.28261   0.28694   0.30402   0.30751   0.32151

 Mulliken charges:
               1
     1  C   -0.169740
     2  C   -0.217322
     3  C   -0.170694
     4  C    0.156744
     5  C   -0.179605
     6  C   -0.217844
     7  H    0.230015
     8  H    0.227518
     9  H    0.277979
    10  H    0.273655
    11  H    0.226017
    12  N    0.485282
    13  O   -0.461734
    14  O   -0.455477
    15  C   -0.164483
    16  C   -0.219658
    17  C   -0.170635
    18  C    0.157930
    19  C   -0.171987
    20  C   -0.216843
    21  H    0.230366
    22  H    0.225230
    23  H    0.274981
    24  H    0.272239
    25  H    0.213227
    26  N    0.488265
    27  O   -0.462637
    28  O   -0.460787
 Sum of Mulliken charges =  -0.00000

 Dipole moment (field-independent basis, Debye):
    X=              6.5993    Y=              2.8662    Z=             -2.4762  Tot=              7.6090
 Quadrupole moment (field-independent basis, Debye-Ang):
   XX=           -127.6507   YY=           -103.2033   ZZ=           -103.7338
   XY=             24.3384   XZ=             -3.9917   YZ=              4.8499

 Normal termination of Gaussian 16 at Fri May  7 03:22:23 2021.
