 Gaussian 16, Revision A.03,
 Gaussian 16:  EM64L-G16RevA.03 25-Dec-2016

 -------------
 #p 6-31g* mp2
 -------------

 ------------------------------------------------------
 Input file generated by CHIRIPA (05-May-2021 14:57:26)
 ------------------------------------------------------
 Symbolic Z-matrix:
 Charge =  0 Multiplicity = 1

                         Standard orientation:
 ---------------------------------------------------------------------
 Center     Atomic      Atomic             Coordinates (Angstroms)
 Number     Number       Type             X           Y           Z
 ---------------------------------------------------------------------
      1          6           0       -1.968851    1.724267    0.458911
      2          6           0       -2.896727    1.993563   -0.552548
      3          6           0       -3.977808    1.134543   -0.771395
      4          6           0       -4.100970    0.010259    0.043533
      5          6           0       -3.193132   -0.285206    1.059319
      6          6           0       -2.119750    0.587745    1.260204
      7          1           0       -1.132032    2.396985    0.621940
      8          1           0       -2.782051    2.875455   -1.176375
      9          1           0       -4.710809    1.319060   -1.547333
     10          1           0       -3.333937   -1.172175    1.665023
     11          1           0       -1.400688    0.376094    2.046460
     12          7           0       -5.241387   -0.906522   -0.178642
     13          8           0       -5.327527   -1.890385    0.552952
     14          8           0       -6.027512   -0.623872   -1.080171
     15          6           0        6.433808   -0.265701   -0.105349
     16          6           0        5.683131   -1.433747   -0.274688
     17          6           0        4.285888   -1.387791   -0.262473
     18          6           0        3.669314   -0.151267   -0.077714
     19          6           0        4.389528    1.029921    0.093682
     20          6           0        5.785754    0.960243    0.077972
     21          1           0        7.518825   -0.310615   -0.116195
     22          1           0        6.183728   -2.387226   -0.417253
     23          1           0        3.680293   -2.276666   -0.391205
     24          1           0        3.862150    1.965695    0.233740
     25          1           0        6.366177    1.868974    0.209731
     26          7           0        2.190654   -0.090060   -0.062933
     27          8           0        1.671393    1.011731    0.101577
     28          8           0        1.578940   -1.145034   -0.216137
 ---------------------------------------------------------------------

 SCF Done:  E(RHF) =  -868.339729297     A.U. after   16 cycles
 E2 =    -0.2598594251D+01 EUMP2 =    -0.87093832354812D+03

 The electronic state is 1-A.
 Alpha  occ. eigenvalues --  -20.61699 -20.61647 -20.59723 -20.59715 -15.86711
 Alpha  occ. eigenvalues --  -15.84768 -11.31847 -11.29846 -11.28409 -11.28363
 Alpha  occ. eigenvalues --  -11.28077 -11.27355 -11.27326 -11.26453 -11.26379
 Alpha  occ. eigenvalues --  -11.25954 -11.25361 -11.25237  -1.60738  -1.58804
 Alpha  occ. eigenvalues --   -1.40300  -1.38366  -1.19995  -1.17986  -1.09431
 Alpha  occ. eigenvalues --   -1.07397  -1.05364  -1.03366  -0.96306  -0.94287
 Alpha  occ. eigenvalues --   -0.86772  -0.84760  -0.83149  -0.81152  -0.78220
 Alpha  occ. eigenvalues --   -0.76265  -0.72950  -0.72047  -0.71098  -0.70996
 Alpha  occ. eigenvalues --   -0.70123  -0.69021  -0.65651  -0.65361  -0.63632
 Alpha  occ. eigenvalues --   -0.63368  -0.62714  -0.60747  -0.55866  -0.53770
 Alpha  occ. eigenvalues --   -0.53705  -0.53449  -0.51690  -0.51463  -0.49694
 Alpha  occ. eigenvalues --   -0.49649  -0.47764  -0.47724  -0.45757  -0.43837
 Alpha  occ. eigenvalues --   -0.37959  -0.36957  -0.35855  -0.34964
 Alpha virt. eigenvalues --    0.04296   0.06289   0.10702   0.12710   0.15840
 Alpha virt. eigenvalues --    0.17879   0.20870   0.22838   0.26796   0.27728
 Alpha virt. eigenvalues --    0.28620   0.29723   0.30484   0.31917   0.32398

 Mulliken charges:
               1
     1  C   -0.159792
     2  C   -0.221204
     3  C   -0.172275
     4  C    0.156760
     5  C   -0.171476
     6  C   -0.210930
     7  H    0.233028
     8  H    0.218214
     9  H    0.270583
    10  H    0.271560
    11  H    0.223680
    12  N    0.488426
    13  O   -0.463681
    14  O   -0.464730
    15  C   -0.169919
    16  C   -0.218478
    17  C   -0.170382
    18  C    0.157640
    19  C   -0.170868
    20  C   -0.218416
    21  H    0.227841
    22  H    0.225928
    23  H    0.277367
    24  H    0.273292
    25  H    0.224764
    26  N    0.489988
    27  O   -0.471776
    28  O   -0.455143
 Sum of Mulliken charges =  -0.00000

 Dipole moment (field-independent basis, Debye):
    X=              9.8478    Y=              2.9652    Z=              0.7742  Tot=             10.3137
 Quadrupole moment (field-independent basis, Debye-Ang):
   XX=           -101.1356   YY=            -98.5982   ZZ=           -103.1967
   XY=            -16.0023   XZ=             -2.4909   YZ=             -1.3464

 Normal termination of Gaussian 16 at Fri May  7 08:10:15 2021.
