 Gaussian 16, Revision A.03,
 Gaussian 16:  EM64L-G16RevA.03 25-Dec-2016

 -------------
 #p 6-31g* mp2
 -------------

 ------------------------------------------------------
 Input file generated by CHIRIPA (05-May-2021 14:51:07)
 ------------------------------------------------------
 Symbolic Z-matrix:
 Charge =  0 Multiplicity = 1

                         Standard orientation:
 ---------------------------------------------------------------------
 Center     Atomic      Atomic             Coordinates (Angstroms)
 Number     Number       Type             X           Y           Z
 ---------------------------------------------------------------------
      1          6           0        2.833752   -0.468322    0.550930
      2          6           0        2.540501   -1.761649   -0.210183
      3          6           0        2.106106   -2.903269    0.709490
      4          1           0        3.617709   -0.658902    1.296608
      5          1           0        1.936605   -0.168737    1.110190
      6          1           0        3.437500   -2.057960   -0.768940
      7          1           0        1.757286   -1.567922   -0.954267
      8          1           0        1.197687   -2.632342    1.257188
      9          1           0        2.887447   -3.125163    1.443568
     10          1           0        1.901580   -3.818147    0.144665
     11          6           0        3.269209    0.682202   -0.354830
     12          6           0        3.562460    1.975529    0.406284
     13          6           0        3.996855    3.117149   -0.513390
     14          1           0        4.166356    0.382616   -0.914090
     15          1           0        2.485252    0.872781   -1.100508
     16          1           0        4.345674    1.781802    1.150367
     17          1           0        2.665461    2.271839    0.965040
     18          1           0        3.215514    3.339042   -1.247468
     19          1           0        4.905274    2.846221   -1.061088
     20          1           0        4.201381    4.032027    0.051435
     21          6           0       -2.585544   -0.554800   -0.505183
     22          6           0       -2.393223   -1.943568    0.104998
     23          6           0       -1.458507   -2.827865   -0.720906
     24          1           0       -2.983537   -0.660684   -1.523680
     25          1           0       -1.606425   -0.065471   -0.601506
     26          1           0       -3.372561   -2.429588    0.201420
     27          1           0       -1.995823   -1.834359    1.122230
     28          1           0       -0.468765   -2.367782   -0.806560
     29          1           0       -1.853327   -2.966395   -1.732602
     30          1           0       -1.335164   -3.815928   -0.266618
     31          6           0       -3.517416    0.340921    0.309083
     32          6           0       -3.709737    1.729688   -0.301098
     33          6           0       -4.644454    2.613985    0.524806
     34          1           0       -4.496536   -0.148409    0.405406
     35          1           0       -3.119423    0.446805    1.327580
     36          1           0       -4.107138    1.620479   -1.318330
     37          1           0       -2.730400    2.215709   -0.397520
     38          1           0       -4.249635    2.752515    1.536502
     39          1           0       -5.634195    2.153903    0.610460
     40          1           0       -4.767796    3.602049    0.070518
 ---------------------------------------------------------------------

 SCF Done:  E(RHF) =  -470.732769128     A.U. after   11 cycles
 E2 =    -0.1583478906D+01 EUMP2 =    -0.47231624803431D+03

 The electronic state is 1-A.
 Alpha  occ. eigenvalues --  -11.21636 -11.21634 -11.21632 -11.21617 -11.21447
 Alpha  occ. eigenvalues --  -11.21440 -11.21387 -11.21380 -11.21096 -11.21094
 Alpha  occ. eigenvalues --  -11.21045 -11.20990  -1.08484  -1.08443  -1.03609
 Alpha  occ. eigenvalues --   -1.03496  -0.96076  -0.95917  -0.87072  -0.86950
 Alpha  occ. eigenvalues --   -0.79630  -0.79602  -0.78300  -0.78254  -0.65250
 Alpha  occ. eigenvalues --   -0.64977  -0.61289  -0.60662  -0.59399  -0.59329
 Alpha  occ. eigenvalues --   -0.57666  -0.57551  -0.55600  -0.54951  -0.52767
 Alpha  occ. eigenvalues --   -0.52595  -0.52428  -0.52398  -0.50024  -0.49818
 Alpha  occ. eigenvalues --   -0.48018  -0.47850  -0.46762  -0.46546  -0.45896
 Alpha  occ. eigenvalues --   -0.45781  -0.45773  -0.45615  -0.43854  -0.43753
 Alpha virt. eigenvalues --    0.20284   0.23343   0.23470   0.25218   0.25892
 Alpha virt. eigenvalues --    0.26582   0.27018   0.27646   0.28292   0.29307
 Alpha virt. eigenvalues --    0.30294   0.30581   0.31112   0.32128   0.32518

 Mulliken charges:
               1
     1  C   -0.298047
     2  C   -0.305502
     3  C   -0.477146
     4  H    0.150122
     5  H    0.148733
     6  H    0.152860
     7  H    0.154746
     8  H    0.156941
     9  H    0.155188
    10  H    0.161736
    11  C   -0.298448
    12  C   -0.299629
    13  C   -0.475745
    14  H    0.149851
    15  H    0.149548
    16  H    0.152093
    17  H    0.151648
    18  H    0.155231
    19  H    0.155320
    20  H    0.160352
    21  C   -0.298216
    22  C   -0.300411
    23  C   -0.483212
    24  H    0.149953
    25  H    0.148261
    26  H    0.152167
    27  H    0.151404
    28  H    0.165004
    29  H    0.154303
    30  H    0.160716
    31  C   -0.298285
    32  C   -0.299622
    33  C   -0.475723
    34  H    0.149813
    35  H    0.149507
    36  H    0.152055
    37  H    0.151606
    38  H    0.155188
    39  H    0.155301
    40  H    0.160344
 Sum of Mulliken charges =  -0.00000

 Dipole moment (field-independent basis, Debye):
    X=              0.0202    Y=             -0.0150    Z=             -0.0036  Tot=              0.0255
 Quadrupole moment (field-independent basis, Debye-Ang):
   XX=            -83.6478   YY=            -85.9640   ZZ=            -85.0361
   XY=              0.1457   XZ=              1.0169   YZ=              0.2762

 Normal termination of Gaussian 16 at Thu May  6 05:14:32 2021.
