 Gaussian 16, Revision A.03,
 Gaussian 16:  EM64L-G16RevA.03 25-Dec-2016

 -------------
 #p 6-31g* mp2
 -------------

 ------------------------------------------------------
 Input file generated by CHIRIPA (05-May-2021 14:55:21)
 ------------------------------------------------------
 Symbolic Z-matrix:
 Charge =  0 Multiplicity = 1

                         Standard orientation:
 ---------------------------------------------------------------------
 Center     Atomic      Atomic             Coordinates (Angstroms)
 Number     Number       Type             X           Y           Z
 ---------------------------------------------------------------------
      1          6           0       -0.012992   -2.025330    0.862894
      2          6           0       -0.188994   -1.838924   -0.512169
      3          6           0       -1.280602   -1.111785   -0.996121
      4          6           0       -2.180868   -0.582633   -0.072644
      5          6           0       -2.032844   -0.751106    1.303218
      6          6           0       -0.933855   -1.481784    1.764609
      7          1           0        0.837862   -2.591563    1.230076
      8          1           0        0.524568   -2.259902   -1.214772
      9          1           0       -1.440973   -0.952257   -2.055484
     10          1           0       -2.760934   -0.319374    1.979169
     11          1           0       -0.799698   -1.624954    2.833042
     12          7           0       -3.340412    0.189029   -0.573040
     13          8           0       -4.119384    0.645013    0.261176
     14          8           0       -3.448333    0.323263   -1.789992
     15          6           0        2.793190    0.195043   -0.129474
     16          6           0        4.307065    0.100064   -0.322202
     17          6           0        4.784553   -1.333673   -0.555006
     18          1           0        2.498131   -0.433951    0.721556
     19          1           0        2.291162   -0.220508   -1.014165
     20          1           0        4.806091    0.516937    0.561996
     21          1           0        4.598580    0.729508   -1.172752
     22          1           0        4.313459   -1.756339   -1.448328
     23          1           0        4.522149   -1.970119    0.296277
     24          1           0        5.869703   -1.378445   -0.690298
     25          6           0        2.300600    1.622077    0.104316
     26          6           0        0.786724    1.717056    0.297044
     27          6           0        0.309237    3.150794    0.529848
     28          1           0        2.802627    2.037629    0.989008
     29          1           0        2.595659    2.251071   -0.746713
     30          1           0        0.495210    1.087612    1.147595
     31          1           0        0.287698    1.300184   -0.587154
     32          1           0        0.571640    3.787239   -0.321434
     33          1           0        0.780330    3.573460    1.423170
     34          1           0       -0.775914    3.195566    0.665140
 ---------------------------------------------------------------------

 SCF Done:  E(RHF) =  -669.532277922     A.U. after   15 cycles
 E2 =    -0.2097534042D+01 EUMP2 =    -0.67162981196422D+03

 The electronic state is 1-A.
 Alpha  occ. eigenvalues --  -20.60812 -20.60806 -15.85865 -11.31220 -11.27814
 Alpha  occ. eigenvalues --  -11.27772 -11.27527 -11.26824 -11.26779 -11.22120
 Alpha  occ. eigenvalues --  -11.21874 -11.21801 -11.21606 -11.21451 -11.20953
 Alpha  occ. eigenvalues --   -1.59888  -1.39442  -1.19425  -1.08882  -1.08701
 Alpha  occ. eigenvalues --   -1.04832  -1.03817  -0.96308  -0.95640  -0.87317
 Alpha  occ. eigenvalues --   -0.86222  -0.82480  -0.79924  -0.78610  -0.77517
 Alpha  occ. eigenvalues --   -0.72084  -0.71212  -0.70533  -0.65438  -0.65068
 Alpha  occ. eigenvalues --   -0.64824  -0.62177  -0.61232  -0.59717  -0.57917
 Alpha  occ. eigenvalues --   -0.55647  -0.55297  -0.53514  -0.52934  -0.52785
 Alpha  occ. eigenvalues --   -0.52683  -0.50261  -0.48845  -0.48839  -0.48197
 Alpha  occ. eigenvalues --   -0.46985  -0.46121  -0.45875  -0.44842  -0.44060
 Alpha  occ. eigenvalues --   -0.37277  -0.36291
 Alpha virt. eigenvalues --    0.04966   0.11118   0.16322   0.20221   0.22996
 Alpha virt. eigenvalues --    0.23907   0.25196   0.26554   0.27660   0.28281
 Alpha virt. eigenvalues --    0.29068   0.29725   0.31414   0.31768   0.31964

 Mulliken charges:
               1
     1  C   -0.167864
     2  C   -0.209267
     3  C   -0.176914
     4  C    0.165636
     5  C   -0.170787
     6  C   -0.220664
     7  H    0.225987
     8  H    0.224108
     9  H    0.275237
    10  H    0.275782
    11  H    0.223545
    12  N    0.487511
    13  O   -0.460625
    14  O   -0.460586
    15  C   -0.296247
    16  C   -0.299477
    17  C   -0.475343
    18  H    0.143486
    19  H    0.144515
    20  H    0.153272
    21  H    0.154445
    22  H    0.151535
    23  H    0.149584
    24  H    0.163985
    25  C   -0.297735
    26  C   -0.306315
    27  C   -0.476439
    28  H    0.148432
    29  H    0.150342
    30  H    0.154274
    31  H    0.154101
    32  H    0.155863
    33  H    0.152667
    34  H    0.163955
 Sum of Mulliken charges =  -0.00000

 Dipole moment (field-independent basis, Debye):
    X=              4.0038    Y=             -2.7410    Z=              1.7600  Tot=              5.1615
 Quadrupole moment (field-independent basis, Debye-Ang):
   XX=           -113.2317   YY=            -93.2491   ZZ=            -89.7127
   XY=              3.8420   XZ=             -5.6990   YZ=             -0.4565

 Normal termination of Gaussian 16 at Thu May  6 17:30:03 2021.
