 Gaussian 16, Revision A.03,
 Gaussian 16:  EM64L-G16RevA.03 25-Dec-2016

 -------------
 #p 6-31g* mp2
 -------------

 ------------------------------------------------------
 Input file generated by CHIRIPA (05-May-2021 14:51:09)
 ------------------------------------------------------
 Symbolic Z-matrix:
 Charge =  0 Multiplicity = 1

                         Standard orientation:
 ---------------------------------------------------------------------
 Center     Atomic      Atomic             Coordinates (Angstroms)
 Number     Number       Type             X           Y           Z
 ---------------------------------------------------------------------
      1          6           0        3.139274    0.134119   -0.328728
      2          6           0        4.033815   -0.717741    0.572446
      3          6           0        4.559007   -1.970251   -0.129827
      4          1           0        2.293591   -0.474913   -0.676355
      5          1           0        3.704361    0.424931   -1.225110
      6          1           0        3.467648   -1.005704    1.467515
      7          1           0        4.877364   -0.106554    0.918122
      8          1           0        5.146829   -1.699012   -1.012717
      9          1           0        3.729104   -2.603271   -0.460203
     10          1           0        5.196181   -2.564531    0.532517
     11          6           0        2.606483    1.389766    0.359178
     12          6           0        1.711942    2.241626   -0.541996
     13          6           0        1.186750    3.494136    0.160277
     14          1           0        2.041396    1.098955    1.255560
     15          1           0        3.452166    1.998798    0.706805
     16          1           0        0.868393    1.630439   -0.887673
     17          1           0        2.278108    2.529589   -1.437065
     18          1           0        2.016653    4.127156    0.490653
     19          1           0        0.598928    3.222897    1.043167
     20          1           0        0.549576    4.088416   -0.502068
     21          6           0       -3.295236   -0.139800   -0.149329
     22          6           0       -4.755244   -0.294438    0.277812
     23          6           0       -5.587421    0.958484    0.003112
     24          1           0       -2.854542    0.717609    0.377533
     25          1           0       -3.257384    0.098912   -1.221233
     26          1           0       -4.790274   -0.534151    1.348293
     27          1           0       -5.192459   -1.151695   -0.249983
     28          1           0       -5.582261    1.197803   -1.065206
     29          1           0       -5.177791    1.818856    0.542151
     30          1           0       -6.627788    0.826026    0.316086
     31          6           0       -2.450520   -1.384085    0.118879
     32          6           0       -0.990512   -1.229447   -0.308262
     33          6           0       -0.158336   -2.482369   -0.033561
     34          1           0       -2.488372   -1.622796    1.190784
     35          1           0       -2.891213   -2.241495   -0.407983
     36          1           0       -0.553297   -0.372189    0.219534
     37          1           0       -0.955483   -0.989735   -1.378741
     38          1           0       -0.567966   -3.342742   -0.572601
     39          1           0       -0.163496   -2.721687    1.034756
     40          1           0        0.882031   -2.349911   -0.346536
 ---------------------------------------------------------------------

 SCF Done:  E(RHF) =  -470.732978962     A.U. after   11 cycles
 E2 =    -0.1584134390D+01 EUMP2 =    -0.47231711335153D+03

 The electronic state is 1-A.
 Alpha  occ. eigenvalues --  -11.21708 -11.21641 -11.21579 -11.21544 -11.21474
 Alpha  occ. eigenvalues --  -11.21409 -11.21373 -11.21307 -11.21163 -11.21096
 Alpha  occ. eigenvalues --  -11.21067 -11.21056  -1.08512  -1.08396  -1.03604
 Alpha  occ. eigenvalues --   -1.03508  -0.96056  -0.95955  -0.87075  -0.86968
 Alpha  occ. eigenvalues --   -0.79688  -0.79548  -0.78345  -0.78193  -0.65230
 Alpha  occ. eigenvalues --   -0.64993  -0.61012  -0.60910  -0.59437  -0.59303
 Alpha  occ. eigenvalues --   -0.57690  -0.57547  -0.55342  -0.55231  -0.52765
 Alpha  occ. eigenvalues --   -0.52648  -0.52516  -0.52354  -0.50010  -0.49887
 Alpha  occ. eigenvalues --   -0.48100  -0.47790  -0.46710  -0.46578  -0.45933
 Alpha  occ. eigenvalues --   -0.45786  -0.45709  -0.45552  -0.43834  -0.43758
 Alpha virt. eigenvalues --    0.19772   0.22569   0.23316   0.24847   0.25984
 Alpha virt. eigenvalues --    0.26445   0.27274   0.27496   0.27694   0.29533
 Alpha virt. eigenvalues --    0.30284   0.31278   0.31704   0.31838   0.32625

 Mulliken charges:
               1
     1  C   -0.305764
     2  C   -0.299482
     3  C   -0.477891
     4  H    0.157200
     5  H    0.149403
     6  H    0.152247
     7  H    0.152018
     8  H    0.155241
     9  H    0.156377
    10  H    0.160506
    11  C   -0.297746
    12  C   -0.304187
    13  C   -0.475454
    14  H    0.148865
    15  H    0.149641
    16  H    0.156769
    17  H    0.151739
    18  H    0.155131
    19  H    0.154184
    20  H    0.160347
    21  C   -0.298491
    22  C   -0.299694
    23  C   -0.475776
    24  H    0.149709
    25  H    0.149706
    26  H    0.151991
    27  H    0.152066
    28  H    0.155283
    29  H    0.155377
    30  H    0.160391
    31  C   -0.298374
    32  C   -0.303999
    33  C   -0.482705
    34  H    0.149691
    35  H    0.150116
    36  H    0.155834
    37  H    0.152484
    38  H    0.156072
    39  H    0.155569
    40  H    0.165606
 Sum of Mulliken charges =  -0.00000

 Dipole moment (field-independent basis, Debye):
    X=             -0.0367    Y=             -0.0209    Z=             -0.0109  Tot=              0.0436
 Quadrupole moment (field-independent basis, Debye-Ang):
   XX=            -84.7950   YY=            -86.0008   ZZ=            -83.9627
   XY=              1.5389   XZ=              0.0292   YZ=             -0.0733

 Normal termination of Gaussian 16 at Wed May  5 21:21:55 2021.
