 Gaussian 16, Revision A.03,
 Gaussian 16:  EM64L-G16RevA.03 25-Dec-2016

 -------------
 #p 6-31g* mp2
 -------------

 ------------------------------------------------------
 Input file generated by CHIRIPA (05-May-2021 14:51:07)
 ------------------------------------------------------
 Symbolic Z-matrix:
 Charge =  0 Multiplicity = 1

                         Standard orientation:
 ---------------------------------------------------------------------
 Center     Atomic      Atomic             Coordinates (Angstroms)
 Number     Number       Type             X           Y           Z
 ---------------------------------------------------------------------
      1          6           0       -3.051798    0.680618    0.250490
      2          6           0       -2.793770    1.613379   -0.933302
      3          6           0       -3.680152    2.858975   -0.908608
      4          1           0       -4.108604    0.380444    0.249040
      5          1           0       -2.884800    1.232130    1.186087
      6          1           0       -2.959862    1.059883   -1.866400
      7          1           0       -1.737411    1.911215   -0.929144
      8          1           0       -3.508902    3.435585    0.006157
      9          1           0       -4.738299    2.579417   -0.936424
     10          1           0       -3.479128    3.511783   -1.763763
     11          6           0       -2.173264   -0.569099    0.239776
     12          6           0       -2.431292   -1.501859    1.423568
     13          6           0       -1.544909   -2.747456    1.398874
     14          1           0       -2.340262   -1.120610   -0.695821
     15          1           0       -1.116458   -0.268924    0.241226
     16          1           0       -3.487650   -1.799695    1.419410
     17          1           0       -2.265199   -0.948364    2.356665
     18          1           0       -0.486762   -2.467898    1.426690
     19          1           0       -1.716159   -3.324066    0.484109
     20          1           0       -1.745933   -3.400264    2.254029
     21          6           0        3.215963    0.379326   -0.071924
     22          6           0        2.846875    1.652070    0.690888
     23          6           0        4.064694    2.512043    1.030234
     24          1           0        3.925254   -0.207327    0.527818
     25          1           0        3.741308    0.654011   -0.997103
     26          1           0        2.321161    1.375116    1.613677
     27          1           0        2.138231    2.235668    0.089344
     28          1           0        4.587315    2.816925    0.117811
     29          1           0        4.771282    1.951484    1.650804
     30          1           0        3.777977    3.416735    1.575380
     31          6           0        2.009098   -0.490846   -0.418342
     32          6           0        2.378187   -1.763589   -1.181154
     33          6           0        1.160368   -2.623562   -1.520500
     34          1           0        1.483753   -0.765531    0.506838
     35          1           0        1.299807    0.095807   -1.018083
     36          1           0        3.086830   -2.347187   -0.579610
     37          1           0        2.903901   -1.486636   -2.103942
     38          1           0        0.453779   -2.063003   -2.141070
     39          1           0        0.637747   -2.928444   -0.608077
     40          1           0        1.447086   -3.528255   -2.065646
 ---------------------------------------------------------------------

 SCF Done:  E(RHF) =  -470.732186955     A.U. after   11 cycles
 E2 =    -0.1584804165D+01 EUMP2 =    -0.47231699112006D+03

 The electronic state is 1-A.
 Alpha  occ. eigenvalues --  -11.21657 -11.21591 -11.21583 -11.21573 -11.21440
 Alpha  occ. eigenvalues --  -11.21381 -11.21342 -11.21249 -11.21109 -11.21081
 Alpha  occ. eigenvalues --  -11.21062 -11.20891  -1.08475  -1.08374  -1.03570
 Alpha  occ. eigenvalues --   -1.03477  -0.96023  -0.95918  -0.87061  -0.86919
 Alpha  occ. eigenvalues --   -0.79731  -0.79481  -0.78458  -0.78010  -0.65124
 Alpha  occ. eigenvalues --   -0.64999  -0.61019  -0.60855  -0.59434  -0.59244
 Alpha  occ. eigenvalues --   -0.57761  -0.57437  -0.55282  -0.55242  -0.52682
 Alpha  occ. eigenvalues --   -0.52656  -0.52625  -0.52179  -0.49927  -0.49891
 Alpha  occ. eigenvalues --   -0.48259  -0.47653  -0.46726  -0.46536  -0.46275
 Alpha  occ. eigenvalues --   -0.45703  -0.45667  -0.45044  -0.43789  -0.43754
 Alpha virt. eigenvalues --    0.20895   0.22866   0.23421   0.24534   0.25298
 Alpha virt. eigenvalues --    0.25704   0.26619   0.27783   0.28832   0.30276
 Alpha virt. eigenvalues --    0.30534   0.31339   0.31422   0.31757   0.31932

 Mulliken charges:
               1
     1  C   -0.297875
     2  C   -0.299918
     3  C   -0.475633
     4  H    0.149296
     5  H    0.149246
     6  H    0.151623
     7  H    0.151644
     8  H    0.155245
     9  H    0.155255
    10  H    0.159997
    11  C   -0.306079
    12  C   -0.299231
    13  C   -0.481143
    14  H    0.149560
    15  H    0.159247
    16  H    0.151814
    17  H    0.151325
    18  H    0.157845
    19  H    0.157703
    20  H    0.160392
    21  C   -0.297631
    22  C   -0.299862
    23  C   -0.475646
    24  H    0.149774
    25  H    0.149931
    26  H    0.151361
    27  H    0.151534
    28  H    0.155428
    29  H    0.155364
    30  H    0.160320
    31  C   -0.304181
    32  C   -0.299295
    33  C   -0.483374
    34  H    0.151841
    35  H    0.151836
    36  H    0.151394
    37  H    0.151595
    38  H    0.155189
    39  H    0.165172
    40  H    0.158941
 Sum of Mulliken charges =  -0.00000

 Dipole moment (field-independent basis, Debye):
    X=              0.0066    Y=             -0.0132    Z=              0.0111  Tot=              0.0185
 Quadrupole moment (field-independent basis, Debye-Ang):
   XX=            -85.2729   YY=            -85.7247   ZZ=            -83.9024
   XY=              0.3544   XZ=              0.2215   YZ=             -0.3296

 Normal termination of Gaussian 16 at Thu May  6 11:32:13 2021.
