 Gaussian 16, Revision A.03,
 Gaussian 16:  EM64L-G16RevA.03 25-Dec-2016

 -------------
 #p 6-31g* mp2
 -------------

 ------------------------------------------------------
 Input file generated by CHIRIPA (05-May-2021 14:57:23)
 ------------------------------------------------------
 Symbolic Z-matrix:
 Charge =  0 Multiplicity = 1

                         Standard orientation:
 ---------------------------------------------------------------------
 Center     Atomic      Atomic             Coordinates (Angstroms)
 Number     Number       Type             X           Y           Z
 ---------------------------------------------------------------------
      1          6           0        5.749007    0.298200   -0.306408
      2          6           0        5.342549   -1.030693   -0.147172
      3          6           0        3.988330   -1.346503   -0.002596
      4          6           0        3.063306   -0.303792   -0.021967
      5          6           0        3.436969    1.030016   -0.178881
      6          6           0        4.796599    1.322507   -0.321727
      7          1           0        6.803098    0.534472   -0.418046
      8          1           0        6.079993   -1.828234   -0.134896
      9          1           0        3.646046   -2.366642    0.122211
     10          1           0        2.678572    1.803439   -0.187116
     11          1           0        5.109364    2.355450   -0.445231
     12          7           0        1.626791   -0.625783    0.130174
     13          8           0        0.831496    0.311086    0.109728
     14          8           0        1.323347   -1.808932    0.266986
     15          6           0       -4.522842   -1.910663   -0.399205
     16          6           0       -3.767899   -1.761790    0.768879
     17          6           0       -3.086255   -0.568664    1.026484
     18          6           0       -3.181847    0.459679    0.090183
     19          6           0       -3.925885    0.341829   -1.082766
     20          6           0       -4.599290   -0.860230   -1.319676
     21          1           0       -5.049158   -2.840982   -0.591282
     22          1           0       -3.706732   -2.575884    1.485506
     23          1           0       -2.494630   -0.426521    1.922696
     24          1           0       -3.967931    1.171123   -1.778410
     25          1           0       -5.184837   -0.973028   -2.227672
     26          7           0       -2.464583    1.727517    0.351944
     27          8           0       -2.564781    2.618490   -0.488748
     28          8           0       -1.815773    1.806268    1.392849
 ---------------------------------------------------------------------

 SCF Done:  E(RHF) =  -868.338360174     A.U. after   16 cycles
 E2 =    -0.2599767694D+01 EUMP2 =    -0.87093812786796D+03

 The electronic state is 1-A.
 Alpha  occ. eigenvalues --  -20.60551 -20.60454 -20.59449 -20.59356 -15.85535
 Alpha  occ. eigenvalues --  -15.84453 -11.30889 -11.29862 -11.27502 -11.27400
 Alpha  occ. eigenvalues --  -11.27230 -11.26523 -11.26512 -11.26449 -11.26413
 Alpha  occ. eigenvalues --  -11.26301 -11.25585 -11.25498  -1.59579  -1.58447
 Alpha  occ. eigenvalues --   -1.39126  -1.38009  -1.19069  -1.18060  -1.08475
 Alpha  occ. eigenvalues --   -1.07460  -1.04467  -1.03495  -0.95309  -0.94290
 Alpha  occ. eigenvalues --   -0.85867  -0.84898  -0.82136  -0.81141  -0.77175
 Alpha  occ. eigenvalues --   -0.76156  -0.71809  -0.70899  -0.70705  -0.70183
 Alpha  occ. eigenvalues --   -0.69664  -0.69228  -0.64720  -0.64475  -0.63744
 Alpha  occ. eigenvalues --   -0.63542  -0.61805  -0.60858  -0.54987  -0.54053
 Alpha  occ. eigenvalues --   -0.52805  -0.52558  -0.51793  -0.51621  -0.48558
 Alpha  occ. eigenvalues --   -0.48524  -0.47473  -0.47434  -0.44549  -0.43360
 Alpha  occ. eigenvalues --   -0.37063  -0.36072  -0.36050  -0.35080
 Alpha virt. eigenvalues --    0.05335   0.06450   0.11582   0.12572   0.16832
 Alpha virt. eigenvalues --    0.17885   0.21717   0.22528   0.27633   0.28420
 Alpha virt. eigenvalues --    0.28634   0.29441   0.31262   0.32014   0.32932

 Mulliken charges:
               1
     1  C   -0.170850
     2  C   -0.218915
     3  C   -0.171459
     4  C    0.157580
     5  C   -0.170814
     6  C   -0.219052
     7  H    0.224733
     8  H    0.221842
     9  H    0.273397
    10  H    0.282768
    11  H    0.224410
    12  N    0.488624
    13  O   -0.454337
    14  O   -0.467916
    15  C   -0.171267
    16  C   -0.217569
    17  C   -0.159534
    18  C    0.164205
    19  C   -0.171820
    20  C   -0.219229
    21  H    0.220777
    22  H    0.220551
    23  H    0.276732
    24  H    0.271369
    25  H    0.218102
    26  N    0.492772
    27  O   -0.469657
    28  O   -0.455442
 Sum of Mulliken charges =  -0.00000

 Dipole moment (field-independent basis, Debye):
    X=              2.7625    Y=             -3.1936    Z=             -1.3141  Tot=              4.4223
 Quadrupole moment (field-independent basis, Debye-Ang):
   XX=            -59.8574   YY=           -105.2923   ZZ=           -102.4379
   XY=             13.5823   XZ=              2.3587   YZ=             -2.9318

 Normal termination of Gaussian 16 at Thu May  6 19:34:30 2021.
