 Gaussian 16, Revision A.03,
 Gaussian 16:  EM64L-G16RevA.03 25-Dec-2016

 -------------
 #p 6-31g* mp2
 -------------

 ------------------------------------------------------
 Input file generated by CHIRIPA (05-May-2021 14:51:08)
 ------------------------------------------------------
 Symbolic Z-matrix:
 Charge =  0 Multiplicity = 1

                         Standard orientation:
 ---------------------------------------------------------------------
 Center     Atomic      Atomic             Coordinates (Angstroms)
 Number     Number       Type             X           Y           Z
 ---------------------------------------------------------------------
      1          6           0       -2.299127    1.078848    0.221141
      2          6           0       -2.416693    2.560439   -0.138093
      3          6           0       -1.468443    3.442767    0.674381
      4          1           0       -2.504374    0.950519    1.292752
      5          1           0       -1.262922    0.750724    0.059869
      6          1           0       -3.452684    2.885325    0.022492
      7          1           0       -2.211330    2.685231   -1.209013
      8          1           0       -0.427906    3.146588    0.506569
      9          1           0       -1.676313    3.347819    1.745071
     10          1           0       -1.569076    4.497885    0.401509
     11          6           0       -3.240834    0.184001   -0.582703
     12          6           0       -3.123268   -1.297591   -0.223469
     13          6           0       -4.071518   -2.179918   -1.035943
     14          1           0       -4.277039    0.512125   -0.421431
     15          1           0       -3.035587    0.312330   -1.654314
     16          1           0       -3.328631   -1.422382    0.847451
     17          1           0       -2.087277   -1.622476   -0.384054
     18          1           0       -3.863649   -2.084970   -2.106633
     19          1           0       -5.112056   -1.883739   -0.868131
     20          1           0       -3.970886   -3.235036   -0.763071
     21          6           0        2.190384   -0.666622    0.677027
     22          6           0        1.294230   -1.889269    0.476955
     23          6           0        0.139223   -1.945674    1.477240
     24          1           0        2.589857   -0.676254    1.700391
     25          1           0        1.581849    0.243917    0.587589
     26          1           0        1.904533   -2.797195    0.565373
     27          1           0        0.896997   -1.876829   -0.546111
     28          1           0       -0.493690   -1.057088    1.385388
     29          1           0        0.519571   -1.982683    2.503187
     30          1           0       -0.488658   -2.827537    1.316172
     31          6           0        3.349578   -0.596227   -0.315465
     32          6           0        4.245730    0.626420   -0.115394
     33          6           0        5.400739    0.682826   -1.115678
     34          1           0        3.958113   -1.506765   -0.226026
     35          1           0        2.950104   -0.586595   -1.338829
     36          1           0        4.642965    0.613980    0.907673
     37          1           0        3.635429    1.534347   -0.203811
     38          1           0        5.020391    0.719834   -2.141625
     39          1           0        6.033652   -0.205762   -1.023826
     40          1           0        6.028620    1.564688   -0.954610
 ---------------------------------------------------------------------

 SCF Done:  E(RHF) =  -470.731600456     A.U. after   11 cycles
 E2 =    -0.1584843681D+01 EUMP2 =    -0.47231644413712D+03

 The electronic state is 1-A.
 Alpha  occ. eigenvalues --  -11.21659 -11.21616 -11.21598 -11.21513 -11.21462
 Alpha  occ. eigenvalues --  -11.21422 -11.21381 -11.21363 -11.21126 -11.21082
 Alpha  occ. eigenvalues --  -11.21043 -11.20870  -1.08506  -1.08408  -1.03577
 Alpha  occ. eigenvalues --   -1.03489  -0.96013  -0.95960  -0.87047  -0.86960
 Alpha  occ. eigenvalues --   -0.79682  -0.79551  -0.78382  -0.78158  -0.65281
 Alpha  occ. eigenvalues --   -0.64917  -0.61046  -0.60846  -0.59477  -0.59240
 Alpha  occ. eigenvalues --   -0.57752  -0.57444  -0.55316  -0.55261  -0.52738
 Alpha  occ. eigenvalues --   -0.52646  -0.52442  -0.52331  -0.49979  -0.49931
 Alpha  occ. eigenvalues --   -0.47991  -0.47837  -0.46806  -0.46633  -0.45977
 Alpha  occ. eigenvalues --   -0.45771  -0.45758  -0.45183  -0.43819  -0.43746
 Alpha virt. eigenvalues --    0.20234   0.23112   0.23579   0.24082   0.26013
 Alpha virt. eigenvalues --    0.26139   0.27070   0.27337   0.28002   0.30115
 Alpha virt. eigenvalues --    0.30583   0.31192   0.31604   0.31822   0.32291

 Mulliken charges:
               1
     1  C   -0.305089
     2  C   -0.298889
     3  C   -0.476060
     4  H    0.150511
     5  H    0.153252
     6  H    0.152425
     7  H    0.151914
     8  H    0.154702
     9  H    0.155654
    10  H    0.160635
    11  C   -0.297344
    12  C   -0.305683
    13  C   -0.475415
    14  H    0.149539
    15  H    0.149094
    16  H    0.152185
    17  H    0.161032
    18  H    0.154645
    19  H    0.154809
    20  H    0.159934
    21  C   -0.300662
    22  C   -0.301974
    23  C   -0.484398
    24  H    0.150372
    25  H    0.150349
    26  H    0.152288
    27  H    0.151026
    28  H    0.166453
    29  H    0.154486
    30  H    0.160149
    31  C   -0.298163
    32  C   -0.299581
    33  C   -0.475705
    34  H    0.149799
    35  H    0.149228
    36  H    0.152167
    37  H    0.151614
    38  H    0.155085
    39  H    0.155253
    40  H    0.160362
 Sum of Mulliken charges =  -0.00000

 Dipole moment (field-independent basis, Debye):
    X=             -0.0241    Y=              0.0182    Z=              0.0159  Tot=              0.0341
 Quadrupole moment (field-independent basis, Debye-Ang):
   XX=            -85.1243   YY=            -85.1646   ZZ=            -84.5686
   XY=             -1.0639   XZ=              0.0549   YZ=             -0.5160

 Normal termination of Gaussian 16 at Wed May  5 22:56:12 2021.
