 Gaussian 16, Revision A.03,
 Gaussian 16:  EM64L-G16RevA.03 25-Dec-2016

 -------------
 #p 6-31g* mp2
 -------------

 ------------------------------------------------------
 Input file generated by CHIRIPA (05-May-2021 14:51:10)
 ------------------------------------------------------
 Symbolic Z-matrix:
 Charge =  0 Multiplicity = 1

                         Standard orientation:
 ---------------------------------------------------------------------
 Center     Atomic      Atomic             Coordinates (Angstroms)
 Number     Number       Type             X           Y           Z
 ---------------------------------------------------------------------
      1          6           0       -4.098826    0.021995   -0.398710
      2          6           0       -3.014953    0.698255    0.441455
      3          6           0       -1.706314    0.890394   -0.325578
      4          1           0       -3.729543   -0.952482   -0.746517
      5          1           0       -4.285127    0.624856   -1.298291
      6          1           0       -2.831734    0.095017    1.339870
      7          1           0       -3.386930    1.671152    0.787462
      8          1           0       -1.867516    1.510781   -1.213123
      9          1           0       -1.309165   -0.074310   -0.657575
     10          1           0       -0.945443    1.375490    0.293790
     11          6           0       -5.413009   -0.177005    0.354317
     12          6           0       -6.496881   -0.853265   -0.485849
     13          6           0       -7.805521   -1.045403    0.281185
     14          1           0       -5.226707   -0.779865    1.253898
     15          1           0       -5.782291    0.797472    0.702124
     16          1           0       -6.124904   -1.826162   -0.831855
     17          1           0       -6.680101   -0.250027   -1.384264
     18          1           0       -8.202669   -0.080700    0.613182
     19          1           0       -7.644318   -1.665790    1.168729
     20          1           0       -8.566391   -1.530499   -0.338184
     21          6           0        5.293017   -0.324121    0.387782
     22          6           0        6.392341   -0.848582   -0.536562
     23          6           0        7.459500   -1.650069    0.209484
     24          1           0        5.746580    0.303205    1.167324
     25          1           0        4.821983   -1.172196    0.903818
     26          1           0        6.860233    0.000115   -1.051740
     27          1           0        5.936088   -1.474577   -1.314108
     28          1           0        7.012060   -2.514924    0.709907
     29          1           0        7.941456   -1.031853    0.973766
     30          1           0        8.235537   -2.015442   -0.470317
     31          6           0        4.218818    0.479131   -0.343388
     32          6           0        3.119493    1.003591    0.580956
     33          6           0        2.052334    1.805079   -0.165090
     34          1           0        4.689851    1.327205   -0.859424
     35          1           0        3.765255   -0.148196   -1.122930
     36          1           0        3.575746    1.629587    1.358501
     37          1           0        2.651601    0.154894    1.096134
     38          1           0        1.570378    1.186862   -0.929373
     39          1           0        2.499774    2.669933   -0.665514
     40          1           0        1.276298    2.170451    0.514711
 ---------------------------------------------------------------------

 SCF Done:  E(RHF) =  -470.732769315     A.U. after   11 cycles
 E2 =    -0.1582409705D+01 EUMP2 =    -0.47231517901969D+03

 The electronic state is 1-A.
 Alpha  occ. eigenvalues --  -11.21591 -11.21585 -11.21570 -11.21548 -11.21388
 Alpha  occ. eigenvalues --  -11.21376 -11.21328 -11.21315 -11.21064 -11.21059
 Alpha  occ. eigenvalues --  -11.20998 -11.20954  -1.08413  -1.08395  -1.03529
 Alpha  occ. eigenvalues --   -1.03470  -0.96020  -0.95880  -0.87084  -0.86852
 Alpha  occ. eigenvalues --   -0.79646  -0.79482  -0.78229  -0.78207  -0.65045
 Alpha  occ. eigenvalues --   -0.65026  -0.60932  -0.60873  -0.59599  -0.59105
 Alpha  occ. eigenvalues --   -0.57680  -0.57435  -0.55285  -0.55192  -0.53013
 Alpha  occ. eigenvalues --   -0.52455  -0.52366  -0.52175  -0.49921  -0.49832
 Alpha  occ. eigenvalues --   -0.47957  -0.47799  -0.46619  -0.46574  -0.45779
 Alpha  occ. eigenvalues --   -0.45740  -0.45689  -0.45681  -0.43957  -0.43503
 Alpha virt. eigenvalues --    0.22310   0.23005   0.23569   0.24918   0.26497
 Alpha virt. eigenvalues --    0.26701   0.27071   0.27226   0.27626   0.28999
 Alpha virt. eigenvalues --    0.29382   0.31202   0.31501   0.31858   0.32159

 Mulliken charges:
               1
     1  C   -0.298468
     2  C   -0.300066
     3  C   -0.479008
     4  H    0.149354
     5  H    0.149443
     6  H    0.151410
     7  H    0.151576
     8  H    0.154808
     9  H    0.153603
    10  H    0.166812
    11  C   -0.298165
    12  C   -0.299582
    13  C   -0.475674
    14  H    0.149384
    15  H    0.149581
    16  H    0.151838
    17  H    0.151900
    18  H    0.155159
    19  H    0.155126
    20  H    0.160180
    21  C   -0.298255
    22  C   -0.299634
    23  C   -0.475687
    24  H    0.149604
    25  H    0.149441
    26  H    0.151925
    27  H    0.151918
    28  H    0.155134
    29  H    0.155159
    30  H    0.160217
    31  C   -0.298547
    32  C   -0.299947
    33  C   -0.478250
    34  H    0.149534
    35  H    0.149728
    36  H    0.151587
    37  H    0.151947
    38  H    0.159119
    39  H    0.154619
    40  H    0.161179
 Sum of Mulliken charges =  -0.00000

 Dipole moment (field-independent basis, Debye):
    X=              0.0231    Y=              0.0140    Z=             -0.0086  Tot=              0.0283
 Quadrupole moment (field-independent basis, Debye-Ang):
   XX=            -86.3636   YY=            -83.5921   ZZ=            -85.0211
   XY=              0.4514   XZ=              0.2584   YZ=              0.1531

 Normal termination of Gaussian 16 at Wed May  5 16:42:22 2021.
