 Gaussian 16, Revision A.03,
 Gaussian 16:  EM64L-G16RevA.03 25-Dec-2016

 -------------
 #p 6-31g* mp2
 -------------

 ------------------------------------------------------
 Input file generated by CHIRIPA (05-May-2021 14:53:12)
 ------------------------------------------------------
 Symbolic Z-matrix:
 Charge =  0 Multiplicity = 1

                         Standard orientation:
 ---------------------------------------------------------------------
 Center     Atomic      Atomic             Coordinates (Angstroms)
 Number     Number       Type             X           Y           Z
 ---------------------------------------------------------------------
      1          6           0        3.213810   -0.653246    0.040147
      2          6           0        3.637533   -1.808935   -0.866950
      3          6           0        3.678083   -3.150716   -0.134983
      4          1           0        3.907889   -0.588503    0.889269
      5          1           0        2.223111   -0.871818    0.462211
      6          1           0        4.626535   -1.587613   -1.288266
      7          1           0        2.942476   -1.870813   -1.714112
      8          1           0        2.691974   -3.397824    0.271376
      9          1           0        4.385601   -3.113015    0.699641
     10          1           0        3.983354   -3.962891   -0.802097
     11          6           0        3.168525    0.694738   -0.677221
     12          6           0        2.744802    1.850428    0.229876
     13          6           0        2.704253    3.192208   -0.502091
     14          1           0        4.159224    0.913310   -1.099285
     15          1           0        2.474446    0.629996   -1.526343
     16          1           0        3.439859    1.912306    1.077038
     17          1           0        1.755800    1.629105    0.651192
     18          1           0        1.996734    3.154507   -1.336715
     19          1           0        3.690361    3.439316   -0.908450
     20          1           0        2.398981    4.004383    0.165023
     21          6           0       -0.929419    0.357920    2.193300
     22          6           0       -1.671399   -0.824841    2.109248
     23          6           0       -2.540864   -1.042831    1.036375
     24          6           0       -2.644271   -0.052378    0.060876
     25          6           0       -1.918450    1.136479    0.116524
     26          6           0       -1.055092    1.333086    1.198423
     27          1           0       -0.256370    0.518954    3.030240
     28          1           0       -1.575817   -1.583913    2.880429
     29          1           0       -3.127131   -1.949271    0.946514
     30          1           0       -2.034980    1.874767   -0.667549
     31          1           0       -0.480104    2.252599    1.261101
     32          7           0       -3.561502   -0.271836   -1.079706
     33          8           0       -3.634663    0.616284   -1.926186
     34          8           0       -4.189899   -1.327810   -1.105616
 ---------------------------------------------------------------------

 SCF Done:  E(RHF) =  -669.535309812     A.U. after   15 cycles
 E2 =    -0.2092504537D+01 EUMP2 =    -0.67162781434881D+03

 The electronic state is 1-A.
 Alpha  occ. eigenvalues --  -20.60833 -20.60828 -15.85887 -11.31280 -11.27846
 Alpha  occ. eigenvalues --  -11.27841 -11.27597 -11.26866 -11.26845 -11.22223
 Alpha  occ. eigenvalues --  -11.21898 -11.21838 -11.21759 -11.21734 -11.21366
 Alpha  occ. eigenvalues --   -1.59908  -1.39461  -1.19458  -1.08901  -1.08827
 Alpha  occ. eigenvalues --   -1.04865  -1.04003  -0.96443  -0.95673  -0.87460
 Alpha  occ. eigenvalues --   -0.86262  -0.82503  -0.80084  -0.78695  -0.77545
 Alpha  occ. eigenvalues --   -0.72105  -0.71232  -0.70548  -0.65577  -0.65105
 Alpha  occ. eigenvalues --   -0.64835  -0.62252  -0.61354  -0.59826  -0.58057
 Alpha  occ. eigenvalues --   -0.55727  -0.55342  -0.53236  -0.53120  -0.52953
 Alpha  occ. eigenvalues --   -0.52865  -0.50378  -0.48872  -0.48858  -0.48385
 Alpha  occ. eigenvalues --   -0.47100  -0.46230  -0.46133  -0.44860  -0.44241
 Alpha  occ. eigenvalues --   -0.37404  -0.36433
 Alpha virt. eigenvalues --    0.04978   0.11037   0.16430   0.20479   0.22729
 Alpha virt. eigenvalues --    0.23762   0.26048   0.26659   0.26838   0.28401
 Alpha virt. eigenvalues --    0.28557   0.30623   0.31092   0.31559   0.31652

 Mulliken charges:
               1
     1  C   -0.300230
     2  C   -0.300164
     3  C   -0.475830
     4  H    0.147748
     5  H    0.149969
     6  H    0.152721
     7  H    0.154865
     8  H    0.154242
     9  H    0.154168
    10  H    0.162273
    11  C   -0.297325
    12  C   -0.306671
    13  C   -0.477346
    14  H    0.151212
    15  H    0.152783
    16  H    0.151220
    17  H    0.148749
    18  H    0.156532
    19  H    0.159768
    20  H    0.156380
    21  C   -0.171009
    22  C   -0.219050
    23  C   -0.170727
    24  C    0.158478
    25  C   -0.173124
    26  C   -0.217837
    27  H    0.227360
    28  H    0.224122
    29  H    0.276007
    30  H    0.276138
    31  H    0.226784
    32  N    0.488060
    33  O   -0.460137
    34  O   -0.460129
 Sum of Mulliken charges =  -0.00000

 Dipole moment (field-independent basis, Debye):
    X=              3.2278    Y=              0.7192    Z=              3.9647  Tot=              5.1628
 Quadrupole moment (field-independent basis, Debye-Ang):
   XX=           -111.2114   YY=            -92.1307   ZZ=            -94.1239
   XY=             -0.7251   XZ=            -11.1144   YZ=             -1.7181

 Normal termination of Gaussian 16 at Wed May  5 20:09:35 2021.
