 Gaussian 16, Revision A.03,
 Gaussian 16:  EM64L-G16RevA.03 25-Dec-2016

 -------------
 #p 6-31g* mp2
 -------------

 ------------------------------------------------------
 Input file generated by CHIRIPA (05-May-2021 14:55:23)
 ------------------------------------------------------
 Symbolic Z-matrix:
 Charge =  0 Multiplicity = 1

                         Standard orientation:
 ---------------------------------------------------------------------
 Center     Atomic      Atomic             Coordinates (Angstroms)
 Number     Number       Type             X           Y           Z
 ---------------------------------------------------------------------
      1          6           0        1.135848    0.582207    0.651514
      2          6           0        1.770925    1.148306   -0.458770
      3          6           0        3.067278    0.759946   -0.809759
      4          6           0        3.701939   -0.201448   -0.024763
      5          6           0        3.095750   -0.783900    1.087251
      6          6           0        1.799118   -0.380393    1.419626
      7          1           0        0.128701    0.889777    0.916941
      8          1           0        1.258241    1.896088   -1.057118
      9          1           0        3.582365    1.181935   -1.664176
     10          1           0        3.632325   -1.527054    1.664509
     11          1           0        1.308364   -0.821737    2.282425
     12          7           0        5.074478   -0.620605   -0.386487
     13          8           0        5.612081   -1.469513    0.321309
     14          8           0        5.586682   -0.092296   -1.370953
     15          6           0       -4.061856    0.788774   -0.268250
     16          6           0       -2.966483    1.206477    0.713415
     17          6           0       -2.200968    2.447046    0.252143
     18          1           0       -3.610842    0.598440   -1.251767
     19          1           0       -4.762637    1.624453   -0.402187
     20          1           0       -2.268746    0.369780    0.846523
     21          1           0       -3.420129    1.395653    1.694758
     22          1           0       -2.879960    3.298167    0.137409
     23          1           0       -1.722035    2.266466   -0.715646
     24          1           0       -1.422776    2.728046    0.968605
     25          6           0       -4.836008   -0.449918    0.179026
     26          6           0       -5.931381   -0.867621   -0.802640
     27          6           0       -6.696896   -2.108190   -0.341368
     28          1           0       -4.135226   -1.285598    0.312962
     29          1           0       -5.287020   -0.259585    1.162543
     30          1           0       -5.477735   -1.056798   -1.783982
     31          1           0       -6.629118   -0.030924   -0.935748
     32          1           0       -7.175828   -1.927610    0.626420
     33          1           0       -6.017904   -2.959311   -0.226634
     34          1           0       -7.475087   -2.389191   -1.057829
 ---------------------------------------------------------------------

 SCF Done:  E(RHF) =  -669.535089969     A.U. after   15 cycles
 E2 =    -0.2091886277D+01 EUMP2 =    -0.67162697624646D+03

 The electronic state is 1-A.
 Alpha  occ. eigenvalues --  -20.60706 -20.60701 -15.85759 -11.31106 -11.27677
 Alpha  occ. eigenvalues --  -11.27673 -11.27318 -11.26673 -11.26658 -11.22915
 Alpha  occ. eigenvalues --  -11.22545 -11.22355 -11.22220 -11.22136 -11.21576
 Alpha  occ. eigenvalues --   -1.59782  -1.39336  -1.19273  -1.09370  -1.08663
 Alpha  occ. eigenvalues --   -1.04677  -1.04506  -0.96958  -0.95499  -0.87965
 Alpha  occ. eigenvalues --   -0.86068  -0.82344  -0.80590  -0.79111  -0.77397
 Alpha  occ. eigenvalues --   -0.71976  -0.71106  -0.70438  -0.65995  -0.64920
 Alpha  occ. eigenvalues --   -0.64688  -0.62049  -0.61872  -0.60405  -0.58566
 Alpha  occ. eigenvalues --   -0.56284  -0.55020  -0.53638  -0.53333  -0.52998
 Alpha  occ. eigenvalues --   -0.52761  -0.50885  -0.48893  -0.48735  -0.48733
 Alpha  occ. eigenvalues --   -0.47615  -0.46660  -0.46541  -0.44746  -0.44725
 Alpha  occ. eigenvalues --   -0.37238  -0.36288
 Alpha virt. eigenvalues --    0.05122   0.11354   0.16561   0.19510   0.22498
 Alpha virt. eigenvalues --    0.24020   0.25244   0.25746   0.26466   0.27579
 Alpha virt. eigenvalues --    0.29429   0.29887   0.30717   0.31295   0.31767

 Mulliken charges:
               1
     1  C   -0.179873
     2  C   -0.224148
     3  C   -0.170794
     4  C    0.158137
     5  C   -0.170698
     6  C   -0.221619
     7  H    0.243706
     8  H    0.224278
     9  H    0.275275
    10  H    0.275167
    11  H    0.223254
    12  N    0.487997
    13  O   -0.460697
    14  O   -0.460698
    15  C   -0.298219
    16  C   -0.305468
    17  C   -0.487201
    18  H    0.151508
    19  H    0.152841
    20  H    0.147180
    21  H    0.157142
    22  H    0.166444
    23  H    0.154654
    24  H    0.156568
    25  C   -0.299256
    26  C   -0.300453
    27  C   -0.476258
    28  H    0.149939
    29  H    0.150846
    30  H    0.153221
    31  H    0.153097
    32  H    0.155808
    33  H    0.155930
    34  H    0.162390
 Sum of Mulliken charges =  -0.00000

 Dipole moment (field-independent basis, Debye):
    X=             -5.1666    Y=              1.5027    Z=              1.2464  Tot=              5.5232
 Quadrupole moment (field-independent basis, Debye-Ang):
   XX=           -130.1590   YY=            -94.0760   ZZ=            -91.9421
   XY=              5.3337   XZ=              4.7701   YZ=             -2.6868

 Normal termination of Gaussian 16 at Thu May  6 20:50:48 2021.
