 Gaussian 16, Revision A.03,
 Gaussian 16:  EM64L-G16RevA.03 25-Dec-2016

 -------------
 #p 6-31g* mp2
 -------------

 ------------------------------------------------------
 Input file generated by CHIRIPA (05-May-2021 14:53:15)
 ------------------------------------------------------
 Symbolic Z-matrix:
 Charge =  0 Multiplicity = 1

                         Standard orientation:
 ---------------------------------------------------------------------
 Center     Atomic      Atomic             Coordinates (Angstroms)
 Number     Number       Type             X           Y           Z
 ---------------------------------------------------------------------
      1          6           0       -3.790132    0.846736   -0.387527
      2          6           0       -2.409284    1.490890   -0.515234
      3          6           0       -2.480808    2.981217   -0.849306
      4          1           0       -4.341595    0.987258   -1.327254
      5          1           0       -4.361019    1.371047    0.391306
      6          1           0       -1.840672    0.964636   -1.292635
      7          1           0       -1.860972    1.348651    0.424840
      8          1           0       -3.025128    3.524923   -0.070396
      9          1           0       -3.004711    3.138726   -1.797629
     10          1           0       -1.482593    3.421576   -0.935968
     11          6           0       -3.735147   -0.643002   -0.053782
     12          6           0       -5.115996   -1.287156    0.073925
     13          6           0       -5.044472   -2.777482    0.407997
     14          1           0       -3.164261   -1.167313   -0.832616
     15          1           0       -3.183684   -0.783524    0.885945
     16          1           0       -5.664307   -1.144917   -0.866149
     17          1           0       -5.684608   -0.760901    0.851326
     18          1           0       -4.520568   -2.934991    1.356320
     19          1           0       -4.500152   -3.321189   -0.370913
     20          1           0       -6.042687   -3.217841    0.494659
     21          6           0        4.381622   -1.087575   -1.636021
     22          6           0        4.767243   -1.189079   -0.295308
     23          6           0        3.976005   -0.634342    0.715018
     24          6           0        2.800149    0.017865    0.347216
     25          6           0        2.389025    0.135530   -0.979592
     26          6           0        3.195834   -0.426760   -1.973291
     27          1           0        5.002323   -1.521441   -2.414409
     28          1           0        5.687626   -1.701706   -0.030442
     29          1           0        4.250786   -0.698334    1.760876
     30          1           0        1.466108    0.652564   -1.212658
     31          1           0        2.893865   -0.346401   -3.013676
     32          7           0        1.954259    0.609138    1.408002
     33          8           0        0.922915    1.178650    1.057827
     34          8           0        2.338611    0.491870    2.569535
 ---------------------------------------------------------------------

 SCF Done:  E(RHF) =  -669.536006932     A.U. after   15 cycles
 E2 =    -0.2091113277D+01 EUMP2 =    -0.67162712020886D+03

 The electronic state is 1-A.
 Alpha  occ. eigenvalues --  -20.60885 -20.60880 -15.85926 -11.31250 -11.27818
 Alpha  occ. eigenvalues --  -11.27808 -11.27558 -11.26827 -11.26817 -11.21160
 Alpha  occ. eigenvalues --  -11.20821 -11.20715 -11.20709 -11.20628 -11.20306
 Alpha  occ. eigenvalues --   -1.59952  -1.39507  -1.19421  -1.08826  -1.07800
 Alpha  occ. eigenvalues --   -1.04819  -1.02895  -0.95668  -0.95378  -0.86400
 Alpha  occ. eigenvalues --   -0.86218  -0.82504  -0.78967  -0.77666  -0.77466
 Alpha  occ. eigenvalues --   -0.72151  -0.71268  -0.70530  -0.65079  -0.64823
 Alpha  occ. eigenvalues --   -0.64429  -0.62165  -0.60290  -0.58745  -0.56965
 Alpha  occ. eigenvalues --   -0.55324  -0.54680  -0.53151  -0.52911  -0.52076
 Alpha  occ. eigenvalues --   -0.51803  -0.49338  -0.48908  -0.48907  -0.47280
 Alpha  occ. eigenvalues --   -0.45994  -0.45196  -0.45092  -0.44773  -0.43157
 Alpha  occ. eigenvalues --   -0.37402  -0.36420
 Alpha virt. eigenvalues --    0.04968   0.11232   0.16454   0.21021   0.23384
 Alpha virt. eigenvalues --    0.24388   0.26447   0.27496   0.27605   0.28527
 Alpha virt. eigenvalues --    0.28991   0.30596   0.31592   0.32108   0.32547

 Mulliken charges:
               1
     1  C   -0.298138
     2  C   -0.304888
     3  C   -0.475271
     4  H    0.144911
     5  H    0.149632
     6  H    0.139184
     7  H    0.179580
     8  H    0.155617
     9  H    0.148480
    10  H    0.161512
    11  C   -0.297954
    12  C   -0.299103
    13  C   -0.475360
    14  H    0.145054
    15  H    0.154423
    16  H    0.149903
    17  H    0.152273
    18  H    0.156185
    19  H    0.153008
    20  H    0.158730
    21  C   -0.170542
    22  C   -0.218670
    23  C   -0.170643
    24  C    0.157640
    25  C   -0.171805
    26  C   -0.218867
    27  H    0.225828
    28  H    0.223639
    29  H    0.275681
    30  H    0.277797
    31  H    0.223762
    32  N    0.492764
    33  O   -0.464642
    34  O   -0.459722
 Sum of Mulliken charges =  -0.00000

 Dipole moment (field-independent basis, Debye):
    X=              3.1718    Y=             -2.0561    Z=             -3.5659  Tot=              5.1965
 Quadrupole moment (field-independent basis, Debye-Ang):
   XX=            -77.0370   YY=            -96.4710   ZZ=            -94.4779
   XY=             -7.3660   XZ=             -7.5193   YZ=             -1.2763

 Normal termination of Gaussian 16 at Thu May  6 04:14:57 2021.
