 Gaussian 16, Revision A.03,
 Gaussian 16:  EM64L-G16RevA.03 25-Dec-2016

 -------------
 #p 6-31g* mp2
 -------------

 ------------------------------------------------------
 Input file generated by CHIRIPA (05-May-2021 14:57:27)
 ------------------------------------------------------
 Symbolic Z-matrix:
 Charge =  0 Multiplicity = 1

                         Standard orientation:
 ---------------------------------------------------------------------
 Center     Atomic      Atomic             Coordinates (Angstroms)
 Number     Number       Type             X           Y           Z
 ---------------------------------------------------------------------
      1          6           0        1.403450   -0.717762    0.589696
      2          6           0        2.379908   -1.717800    0.644241
      3          6           0        3.706098   -1.434511    0.304364
      4          6           0        4.022161   -0.134554   -0.087436
      5          6           0        3.071930    0.883388   -0.151804
      6          6           0        1.751962    0.577357    0.192548
      7          1           0        0.375650   -0.946661    0.855459
      8          1           0        2.112131   -2.724494    0.952311
      9          1           0        4.482015   -2.189664    0.337745
     10          1           0        3.369240    1.877558   -0.462694
     11          1           0        0.995726    1.355995    0.149261
     12          7           0        5.422845    0.177389   -0.449617
     13          8           0        5.675652    1.330549   -0.791593
     14          8           0        6.241373   -0.737176   -0.384660
     15          6           0       -2.366234    2.120593    0.797352
     16          6           0       -3.410582    2.336977   -0.107654
     17          6           0       -4.206626    1.272492   -0.540935
     18          6           0       -3.929082   -0.001066   -0.046659
     19          6           0       -2.895813   -0.248683    0.855744
     20          6           0       -2.112630    0.830728    1.275320
     21          1           0       -1.752843    2.953308    1.128612
     22          1           0       -3.609834    3.337634   -0.480521
     23          1           0       -5.021514    1.411748   -1.240924
     24          1           0       -2.721428   -1.257460    1.209830
     25          1           0       -1.302246    0.659719    1.978227
     26          7           0       -4.765012   -1.135889   -0.498100
     27          8           0       -4.500030   -2.248379   -0.047779
     28          8           0       -5.669366   -0.891386   -1.293712
 ---------------------------------------------------------------------

 SCF Done:  E(RHF) =  -868.336869219     A.U. after   16 cycles
 E2 =    -0.2601089249D+01 EUMP2 =    -0.87093795846884D+03

 The electronic state is 1-A.
 Alpha  occ. eigenvalues --  -20.61613 -20.61599 -20.61109 -20.61100 -15.86671
 Alpha  occ. eigenvalues --  -15.86164 -11.32244 -11.31614 -11.28916 -11.28780
 Alpha  occ. eigenvalues --  -11.28628 -11.28212 -11.28160 -11.27984 -11.27978
 Alpha  occ. eigenvalues --  -11.27815 -11.27274 -11.27199  -1.60679  -1.60181
 Alpha  occ. eigenvalues --   -1.40227  -1.39732  -1.20444  -1.19797  -1.09799
 Alpha  occ. eigenvalues --   -1.09188  -1.05889  -1.05211  -0.96595  -0.96010
 Alpha  occ. eigenvalues --   -0.87273  -0.86605  -0.83442  -0.82830  -0.78449
 Alpha  occ. eigenvalues --   -0.77858  -0.72883  -0.72381  -0.72005  -0.71545
 Alpha  occ. eigenvalues --   -0.71504  -0.70957  -0.66099  -0.65934  -0.65443
 Alpha  occ. eigenvalues --   -0.65196  -0.63214  -0.62549  -0.56375  -0.55766
 Alpha  occ. eigenvalues --   -0.54169  -0.53958  -0.53527  -0.53298  -0.49658
 Alpha  occ. eigenvalues --   -0.49627  -0.49147  -0.49130  -0.45588  -0.45118
 Alpha  occ. eigenvalues --   -0.38423  -0.37800  -0.37477  -0.36810
 Alpha virt. eigenvalues --    0.04050   0.04664   0.10041   0.10805   0.15348
 Alpha virt. eigenvalues --    0.16097   0.18845   0.22097   0.24745   0.25748
 Alpha virt. eigenvalues --    0.27945   0.29562   0.29586   0.30754   0.32414

 Mulliken charges:
               1
     1  C   -0.173215
     2  C   -0.218198
     3  C   -0.170101
     4  C    0.159136
     5  C   -0.170490
     6  C   -0.220849
     7  H    0.221496
     8  H    0.226156
     9  H    0.277484
    10  H    0.275451
    11  H    0.218598
    12  N    0.488011
    13  O   -0.460175
    14  O   -0.458702
    15  C   -0.174694
    16  C   -0.217573
    17  C   -0.168690
    18  C    0.159943
    19  C   -0.172614
    20  C   -0.225685
    21  H    0.227757
    22  H    0.228068
    23  H    0.279731
    24  H    0.274451
    25  H    0.222676
    26  N    0.488142
    27  O   -0.459621
    28  O   -0.456491
 Sum of Mulliken charges =  -0.00000

 Dipole moment (field-independent basis, Debye):
    X=             -2.2129    Y=              2.9181    Z=              2.7343  Tot=              4.5704
 Quadrupole moment (field-independent basis, Debye-Ang):
   XX=           -165.1607   YY=            -98.1048   ZZ=           -104.8209
   XY=            -23.4373   XZ=              1.4648   YZ=             -3.4052

 Normal termination of Gaussian 16 at Thu May  6 10:00:25 2021.
