 Gaussian 16, Revision A.03,
 Gaussian 16:  EM64L-G16RevA.03 25-Dec-2016

 -------------
 #p 6-31g* mp2
 -------------

 ------------------------------------------------------
 Input file generated by CHIRIPA (05-May-2021 14:53:17)
 ------------------------------------------------------
 Symbolic Z-matrix:
 Charge =  0 Multiplicity = 1

                         Standard orientation:
 ---------------------------------------------------------------------
 Center     Atomic      Atomic             Coordinates (Angstroms)
 Number     Number       Type             X           Y           Z
 ---------------------------------------------------------------------
      1          6           0        3.113939   -0.271002   -0.388003
      2          6           0        3.791294   -1.487497    0.243911
      3          6           0        3.926674   -2.660025   -0.728016
      4          1           0        2.119977   -0.561936   -0.754530
      5          1           0        3.691175    0.045555   -1.267767
      6          1           0        3.213716   -1.800820    1.123030
      7          1           0        4.783683   -1.193587    0.609148
      8          1           0        4.521216   -2.370486   -1.600534
      9          1           0        2.942329   -2.981169   -1.083733
     10          1           0        4.413503   -3.518914   -0.255611
     11          6           0        2.971375    0.909363    0.571237
     12          6           0        2.294020    2.125857   -0.060678
     13          6           0        2.158640    3.298385    0.911250
     14          1           0        2.394139    0.592805    1.451001
     15          1           0        3.965337    1.200296    0.937764
     16          1           0        1.301631    1.831947   -0.425914
     17          1           0        2.871598    2.439180   -0.939796
     18          1           0        3.142985    3.619529    1.266966
     19          1           0        1.564098    3.008846    1.783768
     20          1           0        1.671811    4.157274    0.438844
     21          6           0       -2.159616   -2.693182    0.516952
     22          6           0       -1.047155   -1.983078    0.053590
     23          6           0       -1.156026   -0.628675   -0.275479
     24          6           0       -2.398099   -0.013100   -0.128472
     25          6           0       -3.524853   -0.693496    0.330634
     26          6           0       -3.392740   -2.047263    0.653754
     27          1           0       -2.066015   -3.745068    0.770271
     28          1           0       -0.088249   -2.482120   -0.053644
     29          1           0       -0.311015   -0.055025   -0.636453
     30          1           0       -4.467600   -0.168766    0.427093
     31          1           0       -4.258391   -2.596233    1.013372
     32          7           0       -2.525658    1.420410   -0.473694
     33          8           0       -3.631018    1.939719   -0.335371
     34          8           0       -1.517862    1.997544   -0.876065
 ---------------------------------------------------------------------

 SCF Done:  E(RHF) =  -669.535390373     A.U. after   15 cycles
 E2 =    -0.2093348709D+01 EUMP2 =    -0.67162873908168D+03

 The electronic state is 1-A.
 Alpha  occ. eigenvalues --  -20.60890 -20.60884 -15.85925 -11.31244 -11.27811
 Alpha  occ. eigenvalues --  -11.27790 -11.27549 -11.26821 -11.26809 -11.22137
 Alpha  occ. eigenvalues --  -11.21891 -11.21701 -11.21460 -11.21192 -11.20553
 Alpha  occ. eigenvalues --   -1.59954  -1.39511  -1.19417  -1.08821  -1.08669
 Alpha  occ. eigenvalues --   -1.04815  -1.03619  -0.96103  -0.95664  -0.87119
 Alpha  occ. eigenvalues --   -0.86218  -0.82502  -0.79755  -0.78432  -0.77523
 Alpha  occ. eigenvalues --   -0.72154  -0.71268  -0.70541  -0.65385  -0.65072
 Alpha  occ. eigenvalues --   -0.64814  -0.62139  -0.61012  -0.59519  -0.57662
 Alpha  occ. eigenvalues --   -0.55447  -0.55302  -0.53143  -0.52928  -0.52733
 Alpha  occ. eigenvalues --   -0.52512  -0.50087  -0.48949  -0.48898  -0.48018
 Alpha  occ. eigenvalues --   -0.46836  -0.45908  -0.45782  -0.44889  -0.43900
 Alpha  occ. eigenvalues --   -0.37396  -0.36413
 Alpha virt. eigenvalues --    0.04960   0.11219   0.16458   0.18352   0.22914
 Alpha virt. eigenvalues --    0.23413   0.25042   0.26719   0.27276   0.28322
 Alpha virt. eigenvalues --    0.29173   0.31221   0.31487   0.32213   0.32733

 Mulliken charges:
               1
     1  C   -0.299722
     2  C   -0.300471
     3  C   -0.475493
     4  H    0.137224
     5  H    0.154639
     6  H    0.149022
     7  H    0.156398
     8  H    0.159350
     9  H    0.147403
    10  H    0.161807
    11  C   -0.299947
    12  C   -0.314145
    13  C   -0.473503
    14  H    0.147573
    15  H    0.151021
    16  H    0.172228
    17  H    0.151449
    18  H    0.150711
    19  H    0.154085
    20  H    0.168695
    21  C   -0.170365
    22  C   -0.224882
    23  C   -0.178154
    24  C    0.157588
    25  C   -0.169823
    26  C   -0.219018
    27  H    0.226112
    28  H    0.226194
    29  H    0.288431
    30  H    0.275712
    31  H    0.223741
    32  N    0.490428
    33  O   -0.459324
    34  O   -0.464964
 Sum of Mulliken charges =  -0.00000

 Dipole moment (field-independent basis, Debye):
    X=              0.4365    Y=             -4.8931    Z=              1.2006  Tot=              5.0571
 Quadrupole moment (field-independent basis, Debye-Ang):
   XX=            -90.9731   YY=            -95.6400   ZZ=            -95.9233
   XY=             12.9218   XZ=             -4.7383   YZ=             -0.2317

 Normal termination of Gaussian 16 at Thu May  6 13:57:55 2021.
