 Gaussian 16, Revision A.03,
 Gaussian 16:  EM64L-G16RevA.03 25-Dec-2016

 -------------
 #p 6-31g* mp2
 -------------

 ------------------------------------------------------
 Input file generated by CHIRIPA (05-May-2021 14:53:18)
 ------------------------------------------------------
 Symbolic Z-matrix:
 Charge =  0 Multiplicity = 1

                         Standard orientation:
 ---------------------------------------------------------------------
 Center     Atomic      Atomic             Coordinates (Angstroms)
 Number     Number       Type             X           Y           Z
 ---------------------------------------------------------------------
      1          6           0       -2.903502   -0.361508   -0.228073
      2          6           0       -3.789238   -1.603312   -0.121390
      3          6           0       -3.001263   -2.905639   -0.265727
      4          1           0       -2.383568   -0.371820   -1.195807
      5          1           0       -2.124685   -0.407607    0.545693
      6          1           0       -4.566994   -1.554207   -0.894241
      7          1           0       -4.307269   -1.589945    0.846123
      8          1           0       -2.235952   -2.981231    0.513494
      9          1           0       -2.497152   -2.945290   -1.236758
     10          1           0       -3.653884   -3.780647   -0.186301
     11          6           0       -3.676823    0.948244   -0.085770
     12          6           0       -2.791087    2.190048   -0.192454
     13          6           0       -3.579061    3.492375   -0.048117
     14          1           0       -4.455640    0.994343   -0.859536
     15          1           0       -4.196756    0.958556    0.881963
     16          1           0       -2.273055    2.176681   -1.159966
     17          1           0       -2.013330    2.140943    0.580397
     18          1           0       -4.083172    3.532026    0.922915
     19          1           0       -4.344372    3.567967   -0.827338
     20          1           0       -2.926441    4.367383   -0.127543
     21          6           0        0.859958   -2.003464    0.663099
     22          6           0        1.062761   -0.935422    1.543258
     23          6           0        2.007820    0.053380    1.253981
     24          6           0        2.735803   -0.057664    0.070341
     25          6           0        2.556708   -1.109611   -0.826666
     26          6           0        1.606263   -2.087001   -0.516974
     27          1           0        0.123721   -2.767156    0.895746
     28          1           0        0.484612   -0.867972    2.460449
     29          1           0        2.185086    0.890959    1.917650
     30          1           0        3.148220   -1.149743   -1.733265
     31          1           0        1.450887   -2.915331   -1.202374
     32          7           0        3.739145    0.983096   -0.246710
     33          8           0        4.367678    0.862383   -1.296001
     34          8           0        3.878033    1.899850    0.560079
 ---------------------------------------------------------------------

 SCF Done:  E(RHF) =  -669.535316749     A.U. after   15 cycles
 E2 =    -0.2092217186D+01 EUMP2 =    -0.67162753393431D+03

 The electronic state is 1-A.
 Alpha  occ. eigenvalues --  -20.60755 -20.60750 -15.85810 -11.31173 -11.27760
 Alpha  occ. eigenvalues --  -11.27751 -11.27471 -11.26773 -11.26742 -11.22326
 Alpha  occ. eigenvalues --  -11.22107 -11.21930 -11.21889 -11.21781 -11.21271
 Alpha  occ. eigenvalues --   -1.59831  -1.39385  -1.19352  -1.08955  -1.08739
 Alpha  occ. eigenvalues --   -1.04758  -1.04076  -0.96543  -0.95579  -0.87566
 Alpha  occ. eigenvalues --   -0.86154  -0.82416  -0.80148  -0.78721  -0.77460
 Alpha  occ. eigenvalues --   -0.72028  -0.71154  -0.70478  -0.65593  -0.65004
 Alpha  occ. eigenvalues --   -0.64760  -0.62108  -0.61485  -0.59922  -0.58145
 Alpha  occ. eigenvalues --   -0.55941  -0.55198  -0.53241  -0.53080  -0.52942
 Alpha  occ. eigenvalues --   -0.52850  -0.50498  -0.48787  -0.48783  -0.48448
 Alpha  occ. eigenvalues --   -0.47174  -0.46268  -0.46180  -0.44791  -0.44302
 Alpha  occ. eigenvalues --   -0.37281  -0.36356
 Alpha virt. eigenvalues --    0.05060   0.11189   0.16481   0.20002   0.22689
 Alpha virt. eigenvalues --    0.23949   0.25554   0.26100   0.26834   0.27920
 Alpha virt. eigenvalues --    0.28905   0.30173   0.31141   0.31504   0.32127

 Mulliken charges:
               1
     1  C   -0.299560
     2  C   -0.299964
     3  C   -0.476692
     4  H    0.151825
     5  H    0.146878
     6  H    0.155412
     7  H    0.152602
     8  H    0.143844
     9  H    0.155741
    10  H    0.163984
    11  C   -0.299005
    12  C   -0.299263
    13  C   -0.476262
    14  H    0.150807
    15  H    0.148869
    16  H    0.154363
    17  H    0.150699
    18  H    0.154529
    19  H    0.155704
    20  H    0.163172
    21  C   -0.169127
    22  C   -0.220449
    23  C   -0.170832
    24  C    0.158439
    25  C   -0.170660
    26  C   -0.220683
    27  H    0.230998
    28  H    0.222755
    29  H    0.275501
    30  H    0.275523
    31  H    0.223858
    32  N    0.488082
    33  O   -0.460543
    34  O   -0.460546
 Sum of Mulliken charges =  -0.00000

 Dipole moment (field-independent basis, Debye):
    X=             -3.6123    Y=             -3.6068    Z=              1.0407  Tot=              5.2096
 Quadrupole moment (field-independent basis, Debye-Ang):
   XX=           -114.5588   YY=            -94.7360   ZZ=            -90.1710
   XY=            -10.1515   XZ=              2.0800   YZ=              1.9702

 Normal termination of Gaussian 16 at Wed May  5 20:26:06 2021.
