 Gaussian 16, Revision A.03,
 Gaussian 16:  EM64L-G16RevA.03 25-Dec-2016

 -------------
 #p 6-31g* mp2
 -------------

 ------------------------------------------------------
 Input file generated by CHIRIPA (05-May-2021 14:53:16)
 ------------------------------------------------------
 Symbolic Z-matrix:
 Charge =  0 Multiplicity = 1

                         Standard orientation:
 ---------------------------------------------------------------------
 Center     Atomic      Atomic             Coordinates (Angstroms)
 Number     Number       Type             X           Y           Z
 ---------------------------------------------------------------------
      1          6           0        3.426760   -0.350216   -0.423319
      2          6           0        4.518695   -1.345715   -0.030070
      3          6           0        4.462469   -2.637643   -0.845886
      4          1           0        2.443948   -0.824098   -0.295009
      5          1           0        3.522930   -0.114457   -1.492226
      6          1           0        4.421348   -1.578465    1.038090
      7          1           0        5.499014   -0.869344   -0.159149
      8          1           0        4.582135   -2.424843   -1.913124
      9          1           0        3.498345   -3.137994   -0.709082
     10          1           0        5.251824   -3.334981   -0.548399
     11          6           0        3.469909    0.946313    0.383452
     12          6           0        2.377973    1.941812   -0.009797
     13          6           0        2.434199    3.233740    0.806019
     14          1           0        3.373738    0.710553    1.452359
     15          1           0        4.452720    1.420195    0.255141
     16          1           0        1.397654    1.465441    0.119282
     17          1           0        2.475321    2.174562   -1.077957
     18          1           0        3.398323    3.734091    0.669215
     19          1           0        2.314533    3.020940    1.873257
     20          1           0        1.644845    3.931078    0.508532
     21          6           0       -2.442461   -2.659195    0.660164
     22          6           0       -3.678743   -2.176940    0.217941
     23          6           0       -3.829682   -0.834431   -0.141827
     24          6           0       -2.718330    0.001720   -0.046743
     25          6           0       -1.473581   -0.448832    0.390170
     26          6           0       -1.345760   -1.795125    0.744717
     27          1           0       -2.334188   -3.703558    0.937612
     28          1           0       -4.532183   -2.845700    0.151272
     29          1           0       -4.775287   -0.434675   -0.487432
     30          1           0       -0.641034    0.241936    0.446063
     31          1           0       -0.384444   -2.166883    1.087812
     32          7           0       -2.865885    1.424978   -0.424850
     33          8           0       -1.871413    2.141267   -0.332163
     34          8           0       -3.973217    1.797287   -0.806740
 ---------------------------------------------------------------------

 SCF Done:  E(RHF) =  -669.535540076     A.U. after   15 cycles
 E2 =    -0.2091759159D+01 EUMP2 =    -0.67162729923543D+03

 The electronic state is 1-A.
 Alpha  occ. eigenvalues --  -20.60790 -20.60784 -15.85839 -11.31203 -11.27776
 Alpha  occ. eigenvalues --  -11.27769 -11.27523 -11.26797 -11.26787 -11.21948
 Alpha  occ. eigenvalues --  -11.21734 -11.21561 -11.21497 -11.21451 -11.20753
 Alpha  occ. eigenvalues --   -1.59862  -1.39416  -1.19380  -1.08775  -1.08634
 Alpha  occ. eigenvalues --   -1.04786  -1.03639  -0.96085  -0.95610  -0.87102
 Alpha  occ. eigenvalues --   -0.86185  -0.82442  -0.79724  -0.78438  -0.77482
 Alpha  occ. eigenvalues --   -0.72060  -0.71183  -0.70498  -0.65304  -0.65034
 Alpha  occ. eigenvalues --   -0.64789  -0.62158  -0.61033  -0.59458  -0.57666
 Alpha  occ. eigenvalues --   -0.55401  -0.55288  -0.53111  -0.52903  -0.52728
 Alpha  occ. eigenvalues --   -0.52497  -0.50051  -0.48824  -0.48814  -0.48013
 Alpha  occ. eigenvalues --   -0.46783  -0.45963  -0.45887  -0.44819  -0.43905
 Alpha  occ. eigenvalues --   -0.37361  -0.36386
 Alpha virt. eigenvalues --    0.05040   0.11262   0.16516   0.19284   0.22978
 Alpha virt. eigenvalues --    0.23680   0.24986   0.26921   0.27532   0.27986
 Alpha virt. eigenvalues --    0.29201   0.30585   0.31506   0.31621   0.32231

 Mulliken charges:
               1
     1  C   -0.296286
     2  C   -0.299868
     3  C   -0.474860
     4  H    0.138802
     5  H    0.153276
     6  H    0.150046
     7  H    0.154650
     8  H    0.157398
     9  H    0.150513
    10  H    0.161120
    11  C   -0.298949
    12  C   -0.305876
    13  C   -0.476145
    14  H    0.146568
    15  H    0.151775
    16  H    0.153653
    17  H    0.156252
    18  H    0.153370
    19  H    0.152243
    20  H    0.172354
    21  C   -0.170226
    22  C   -0.219169
    23  C   -0.169432
    24  C    0.155365
    25  C   -0.178889
    26  C   -0.224500
    27  H    0.225794
    28  H    0.223570
    29  H    0.275770
    30  H    0.293389
    31  H    0.224096
    32  N    0.486570
    33  O   -0.462318
    34  O   -0.460056
 Sum of Mulliken charges =  -0.00000

 Dipole moment (field-independent basis, Debye):
    X=              0.5466    Y=             -4.8680    Z=              1.2663  Tot=              5.0597
 Quadrupole moment (field-independent basis, Debye-Ang):
   XX=            -92.3088   YY=            -95.6359   ZZ=            -95.2876
   XY=             15.2818   XZ=             -3.0962   YZ=             -0.4612

 Normal termination of Gaussian 16 at Thu May  6 01:11:02 2021.
