 Gaussian 16, Revision A.03,
 Gaussian 16:  EM64L-G16RevA.03 25-Dec-2016

 -------------
 #p 6-31g* mp2
 -------------

 ------------------------------------------------------
 Input file generated by CHIRIPA (05-May-2021 14:57:24)
 ------------------------------------------------------
 Symbolic Z-matrix:
 Charge =  0 Multiplicity = 1

                         Standard orientation:
 ---------------------------------------------------------------------
 Center     Atomic      Atomic             Coordinates (Angstroms)
 Number     Number       Type             X           Y           Z
 ---------------------------------------------------------------------
      1          6           0       -4.907829    1.969271   -0.851902
      2          6           0       -5.677363    0.801864   -0.813150
      3          6           0       -5.123785   -0.398664   -0.358364
      4          6           0       -3.791526   -0.395721    0.051962
      5          6           0       -2.999062    0.750828    0.025218
      6          6           0       -3.573487    1.940078   -0.433332
      7          1           0       -5.345959    2.897489   -1.206653
      8          1           0       -6.713891    0.821573   -1.137597
      9          1           0       -5.696804   -1.317049   -0.317893
     10          1           0       -1.968549    0.699968    0.355178
     11          1           0       -2.973475    2.845169   -0.462330
     12          7           0       -3.194443   -1.660697    0.535416
     13          8           0       -2.018400   -1.631752    0.891395
     14          8           0       -3.913799   -2.657178    0.549214
     15          6           0        2.012064    1.577103    0.980507
     16          6           0        3.306500    2.102638    0.911450
     17          6           0        4.354664    1.341564    0.385458
     18          6           0        4.071478    0.052871   -0.064395
     19          6           0        2.792450   -0.498769   -0.008978
     20          6           0        1.759616    0.280362    0.520884
     21          1           0        1.203780    2.175338    1.390614
     22          1           0        3.505484    3.109401    1.267652
     23          1           0        5.366170    1.723677    0.320182
     24          1           0        2.624954   -1.505560   -0.371936
     25          1           0        0.755325   -0.130369    0.573276
     26          7           0        5.173008   -0.762403   -0.623287
     27          8           0        4.897467   -1.895042   -1.012958
     28          8           0        6.291069   -0.253338   -0.661093
 ---------------------------------------------------------------------

 SCF Done:  E(RHF) =  -868.338403096     A.U. after   16 cycles
 E2 =    -0.2599355348D+01 EUMP2 =    -0.87093775844441D+03

 The electronic state is 1-A.
 Alpha  occ. eigenvalues --  -20.61682 -20.61632 -20.60514 -20.60500 -15.86701
 Alpha  occ. eigenvalues --  -15.85560 -11.31983 -11.30933 -11.28634 -11.28476
 Alpha  occ. eigenvalues --  -11.28217 -11.27558 -11.27524 -11.27469 -11.27420
 Alpha  occ. eigenvalues --  -11.27313 -11.26591 -11.26423  -1.60713  -1.59585
 Alpha  occ. eigenvalues --   -1.40277  -1.39137  -1.20134  -1.19105  -1.09532
 Alpha  occ. eigenvalues --   -1.08523  -1.05534  -1.04487  -0.96391  -0.95354
 Alpha  occ. eigenvalues --   -0.86934  -0.85904  -0.83235  -0.82163  -0.78311
 Alpha  occ. eigenvalues --   -0.77190  -0.72925  -0.72022  -0.71780  -0.71245
 Alpha  occ. eigenvalues --   -0.70907  -0.70267  -0.65794  -0.65542  -0.64760
 Alpha  occ. eigenvalues --   -0.64479  -0.62903  -0.61804  -0.56010  -0.55072
 Alpha  occ. eigenvalues --   -0.53848  -0.53635  -0.52846  -0.52559  -0.49688
 Alpha  occ. eigenvalues --   -0.49645  -0.48540  -0.48531  -0.45697  -0.44540
 Alpha  occ. eigenvalues --   -0.38083  -0.37138  -0.37123  -0.36084
 Alpha virt. eigenvalues --    0.04240   0.05311   0.10528   0.11533   0.15763
 Alpha virt. eigenvalues --    0.16793   0.18884   0.21858   0.25024   0.26934
 Alpha virt. eigenvalues --    0.28238   0.29016   0.30166   0.31056   0.31972

 Mulliken charges:
               1
     1  C   -0.169828
     2  C   -0.218090
     3  C   -0.169610
     4  C    0.158653
     5  C   -0.169864
     6  C   -0.218760
     7  H    0.228218
     8  H    0.226475
     9  H    0.277959
    10  H    0.268195
    11  H    0.223010
    12  N    0.491629
    13  O   -0.472140
    14  O   -0.453890
    15  C   -0.172979
    16  C   -0.218195
    17  C   -0.172030
    18  C    0.158931
    19  C   -0.171711
    20  C   -0.230344
    21  H    0.218081
    22  H    0.221109
    23  H    0.274610
    24  H    0.280467
    25  H    0.242809
    26  N    0.487844
    27  O   -0.458720
    28  O   -0.461828
 Sum of Mulliken charges =  -0.00000

 Dipole moment (field-independent basis, Debye):
    X=             -6.3504    Y=              7.1743    Z=              0.1812  Tot=              9.5829
 Quadrupole moment (field-independent basis, Debye-Ang):
   XX=           -113.7648   YY=           -104.7699   ZZ=           -106.7012
   XY=              0.1337   XZ=             16.3358   YZ=              1.7965

 Normal termination of Gaussian 16 at Fri May  7 09:31:55 2021.
