 Gaussian 16, Revision A.03,
 Gaussian 16:  EM64L-G16RevA.03 25-Dec-2016

 -------------
 #p 6-31g* mp2
 -------------

 ------------------------------------------------------
 Input file generated by CHIRIPA (05-May-2021 14:57:24)
 ------------------------------------------------------
 Symbolic Z-matrix:
 Charge =  0 Multiplicity = 1

                         Standard orientation:
 ---------------------------------------------------------------------
 Center     Atomic      Atomic             Coordinates (Angstroms)
 Number     Number       Type             X           Y           Z
 ---------------------------------------------------------------------
      1          6           0        0.928230    0.445545   -0.003508
      2          6           0        1.865905    1.441732    0.287861
      3          6           0        3.233876    1.153393    0.279829
      4          6           0        3.630813   -0.147634   -0.025229
      5          6           0        2.720899   -1.161826   -0.319783
      6          6           0        1.357962   -0.850770   -0.305867
      7          1           0       -0.132488    0.678357    0.005018
      8          1           0        1.535057    2.449343    0.523030
      9          1           0        3.981248    1.905491    0.501642
     10          1           0        3.081127   -2.157026   -0.550498
     11          1           0        0.632000   -1.626426   -0.532541
     12          7           0        5.076358   -0.464911   -0.036847
     13          8           0        5.400376   -1.618914   -0.308737
     14          8           0        5.857987    0.446420    0.226157
     15          6           0       -2.476719    2.433497   -0.221994
     16          6           0       -2.469933    1.806665    1.028428
     17          6           0       -2.974807    0.511345    1.176066
     18          6           0       -3.481111   -0.130702    0.047029
     19          6           0       -3.501735    0.467187   -1.212095
     20          6           0       -2.991691    1.762940   -1.336301
     21          1           0       -2.082513    3.439901   -0.327582
     22          1           0       -2.070626    2.325019    1.895555
     23          1           0       -2.981786    0.002565    2.132368
     24          1           0       -3.906386   -0.074919   -2.058142
     25          1           0       -2.998243    2.247282   -2.308625
     26          7           0       -4.018335   -1.502228    0.190924
     27          8           0       -4.458815   -2.046440   -0.819248
     28          8           0       -3.988760   -2.007048    1.311155
 ---------------------------------------------------------------------

 SCF Done:  E(RHF) =  -868.337078826     A.U. after   16 cycles
 E2 =    -0.2601997424D+01 EUMP2 =    -0.87093907624987D+03

 The electronic state is 1-A.
 Alpha  occ. eigenvalues --  -20.61829 -20.61824 -20.60832 -20.60822 -15.86890
 Alpha  occ. eigenvalues --  -15.85887 -11.32506 -11.31252 -11.29062 -11.29041
 Alpha  occ. eigenvalues --  -11.28829 -11.28113 -11.28077 -11.27889 -11.27809
 Alpha  occ. eigenvalues --  -11.27401 -11.26907 -11.26758  -1.60905  -1.59907
 Alpha  occ. eigenvalues --   -1.40448  -1.39460  -1.20718  -1.19431  -1.10053
 Alpha  occ. eigenvalues --   -1.08809  -1.06104  -1.04848  -0.96827  -0.95645
 Alpha  occ. eigenvalues --   -0.87469  -0.86240  -0.83625  -0.82489  -0.78639
 Alpha  occ. eigenvalues --   -0.77548  -0.73089  -0.72251  -0.72102  -0.71737
 Alpha  occ. eigenvalues --   -0.71233  -0.70543  -0.66308  -0.66041  -0.65076
 Alpha  occ. eigenvalues --   -0.64875  -0.63391  -0.62205  -0.56560  -0.55912
 Alpha  occ. eigenvalues --   -0.54132  -0.53829  -0.53173  -0.52938  -0.49872
 Alpha  occ. eigenvalues --   -0.49837  -0.48862  -0.48857  -0.45795  -0.44866
 Alpha  occ. eigenvalues --   -0.38723  -0.37837  -0.37279  -0.36472
 Alpha virt. eigenvalues --    0.03830   0.05021   0.09858   0.11184   0.15249
 Alpha virt. eigenvalues --    0.16531   0.19999   0.21654   0.25999   0.26684
 Alpha virt. eigenvalues --    0.27698   0.28709   0.29906   0.31143   0.31641

 Mulliken charges:
               1
     1  C   -0.179026
     2  C   -0.224465
     3  C   -0.170324
     4  C    0.157461
     5  C   -0.169874
     6  C   -0.222919
     7  H    0.242157
     8  H    0.214270
     9  H    0.274434
    10  H    0.276889
    11  H    0.226651
    12  N    0.488052
    13  O   -0.459463
    14  O   -0.461394
    15  C   -0.178787
    16  C   -0.231074
    17  C   -0.173263
    18  C    0.157156
    19  C   -0.172231
    20  C   -0.216702
    21  H    0.229457
    22  H    0.228395
    23  H    0.280854
    24  H    0.280304
    25  H    0.229559
    26  N    0.487429
    27  O   -0.456831
    28  O   -0.456716
 Sum of Mulliken charges =  -0.00000

 Dipole moment (field-independent basis, Debye):
    X=             -3.5959    Y=              5.8477    Z=             -0.5230  Tot=              6.8847
 Quadrupole moment (field-independent basis, Debye-Ang):
   XX=           -155.1360   YY=           -102.4480   ZZ=           -100.3275
   XY=            -11.4027   XZ=              3.7422   YZ=              1.5996

 Normal termination of Gaussian 16 at Thu May  6 09:49:34 2021.
