 Gaussian 16, Revision A.03,
 Gaussian 16:  EM64L-G16RevA.03 25-Dec-2016

 -------------
 #p 6-31g* mp2
 -------------

 ------------------------------------------------------
 Input file generated by CHIRIPA (05-May-2021 14:57:24)
 ------------------------------------------------------
 Symbolic Z-matrix:
 Charge =  0 Multiplicity = 1

                         Standard orientation:
 ---------------------------------------------------------------------
 Center     Atomic      Atomic             Coordinates (Angstroms)
 Number     Number       Type             X           Y           Z
 ---------------------------------------------------------------------
      1          6           0        5.968365    0.650122    0.365975
      2          6           0        5.041532    0.699441    1.412431
      3          6           0        3.746643    0.202046    1.238049
      4          6           0        3.410937   -0.340230   -0.001518
      5          6           0        4.311890   -0.403615   -1.063382
      6          6           0        5.601233    0.099722   -0.866419
      7          1           0        6.972112    1.038819    0.510210
      8          1           0        5.323870    1.126324    2.370607
      9          1           0        3.009291    0.227654    2.031191
     10          1           0        4.001131   -0.835100   -2.007134
     11          1           0        6.318945    0.060104   -1.680891
     12          7           0        2.043031   -0.869945   -0.198081
     13          8           0        1.772020   -1.342671   -1.299771
     14          8           0        1.267781   -0.802380    0.753264
     15          6           0       -4.769413   -1.962005    0.388937
     16          6           0       -3.399464   -1.918289    0.109921
     17          6           0       -2.761209   -0.696684   -0.124303
     18          6           0       -3.526847    0.467058   -0.071464
     19          6           0       -4.893335    0.456211    0.204004
     20          6           0       -5.510669   -0.776705    0.435006
     21          1           0       -5.257099   -2.915372    0.569636
     22          1           0       -2.821287   -2.837219    0.073501
     23          1           0       -1.702029   -0.633979   -0.342532
     24          1           0       -5.443273    1.389010    0.233548
     25          1           0       -6.574735   -0.807631    0.651461
     26          7           0       -2.862229    1.766305   -0.317721
     27          8           0       -3.559059    2.777410   -0.265462
     28          8           0       -1.657057    1.748947   -0.558333
 ---------------------------------------------------------------------

 SCF Done:  E(RHF) =  -868.340333849     A.U. after   16 cycles
 E2 =    -0.2598746017D+01 EUMP2 =    -0.87093907986570D+03

 The electronic state is 1-A.
 Alpha  occ. eigenvalues --  -20.60975 -20.60942 -20.59771 -20.59734 -15.85956
 Alpha  occ. eigenvalues --  -15.84804 -11.31133 -11.30027 -11.27687 -11.27671
 Alpha  occ. eigenvalues --  -11.27413 -11.26720 -11.26671 -11.26656 -11.26442
 Alpha  occ. eigenvalues --  -11.26395 -11.25727 -11.25533  -1.59996  -1.58837
 Alpha  occ. eigenvalues --   -1.39555  -1.38387  -1.19289  -1.18228  -1.08727
 Alpha  occ. eigenvalues --   -1.07675  -1.04668  -1.03592  -0.95594  -0.94510
 Alpha  occ. eigenvalues --   -0.86077  -0.85011  -0.82434  -0.81334  -0.77498
 Alpha  occ. eigenvalues --   -0.76368  -0.72195  -0.71270  -0.71029  -0.70410
 Alpha  occ. eigenvalues --   -0.70158  -0.69346  -0.64953  -0.64682  -0.63884
 Alpha  occ. eigenvalues --   -0.63606  -0.62019  -0.60901  -0.55195  -0.54170
 Alpha  occ. eigenvalues --   -0.52999  -0.52766  -0.51972  -0.51679  -0.48956
 Alpha  occ. eigenvalues --   -0.48953  -0.47799  -0.47765  -0.44991  -0.43822
 Alpha  occ. eigenvalues --   -0.37260  -0.36269  -0.36257  -0.35195
 Alpha virt. eigenvalues --    0.05030   0.06130   0.11401   0.12445   0.16552
 Alpha virt. eigenvalues --    0.17611   0.21512   0.22577   0.27438   0.28354
 Alpha virt. eigenvalues --    0.28550   0.29547   0.31079   0.32058   0.32635

 Mulliken charges:
               1
     1  C   -0.170017
     2  C   -0.218559
     3  C   -0.168802
     4  C    0.159870
     5  C   -0.169822
     6  C   -0.218629
     7  H    0.225809
     8  H    0.223914
     9  H    0.276468
    10  H    0.275402
    11  H    0.223493
    12  N    0.491333
    13  O   -0.462865
    14  O   -0.463109
    15  C   -0.171233
    16  C   -0.221843
    17  C   -0.173377
    18  C    0.154882
    19  C   -0.172043
    20  C   -0.220159
    21  H    0.221573
    22  H    0.226547
    23  H    0.297312
    24  H    0.271502
    25  H    0.218693
    26  N    0.487514
    27  O   -0.466964
    28  O   -0.456889
 Sum of Mulliken charges =  -0.00000

 Dipole moment (field-independent basis, Debye):
    X=              2.9680    Y=             -2.7645    Z=              1.5439  Tot=              4.3399
 Quadrupole moment (field-independent basis, Debye-Ang):
   XX=            -53.5999   YY=           -110.6420   ZZ=           -101.3452
   XY=             17.7987   XZ=             -2.3337   YZ=              2.3117

 Normal termination of Gaussian 16 at Fri May  7 11:05:39 2021.
