 Gaussian 16, Revision A.03,
 Gaussian 16:  EM64L-G16RevA.03 25-Dec-2016

 -------------
 #p 6-31g* mp2
 -------------

 ------------------------------------------------------
 Input file generated by CHIRIPA (05-May-2021 14:55:21)
 ------------------------------------------------------
 Symbolic Z-matrix:
 Charge =  0 Multiplicity = 1

                         Standard orientation:
 ---------------------------------------------------------------------
 Center     Atomic      Atomic             Coordinates (Angstroms)
 Number     Number       Type             X           Y           Z
 ---------------------------------------------------------------------
      1          6           0        3.234253    1.302731   -1.246661
      2          6           0        2.634851    1.740727   -0.061167
      3          6           0        1.934073    0.845851    0.752870
      4          6           0        1.852132   -0.485922    0.349193
      5          6           0        2.438525   -0.952782   -0.826169
      6          6           0        3.134353   -0.040258   -1.624712
      7          1           0        3.776712    2.004746   -1.873007
      8          1           0        2.710807    2.783129    0.234931
      9          1           0        1.460500    1.158045    1.675736
     10          1           0        2.345663   -1.998019   -1.095006
     11          1           0        3.598857   -0.383230   -2.544849
     12          7           0        1.112870   -1.442629    1.202776
     13          8           0        1.055155   -2.610756    0.824908
     14          8           0        0.605149   -1.006252    2.233520
     15          6           0       -2.052424    0.990395   -0.084316
     16          6           0       -2.759997    2.334169    0.093452
     17          6           0       -1.797960    3.465098    0.458523
     18          1           0       -1.521744    0.737056    0.843662
     19          1           0       -1.286245    1.087906   -0.865889
     20          1           0       -3.525553    2.233783    0.873492
     21          1           0       -3.289212    2.584246   -0.834993
     22          1           0       -1.041172    3.594116   -0.322007
     23          1           0       -1.278857    3.241662    1.396184
     24          1           0       -2.324829    4.416577    0.580816
     25          6           0       -3.000943   -0.150087   -0.449476
     26          6           0       -2.293370   -1.493859   -0.627243
     27          6           0       -3.255408   -2.624788   -0.992314
     28          1           0       -3.767121   -0.247597    0.332098
     29          1           0       -3.531623    0.103252   -1.377454
     30          1           0       -1.764155   -1.743937    0.301201
     31          1           0       -1.527814   -1.393474   -1.407283
     32          1           0       -3.774511   -2.401353   -1.929976
     33          1           0       -4.012196   -2.753807   -0.211785
     34          1           0       -2.728538   -3.576268   -1.114608
 ---------------------------------------------------------------------

 SCF Done:  E(RHF) =  -669.536696116     A.U. after   15 cycles
 E2 =    -0.2093892839D+01 EUMP2 =    -0.67163058895480D+03

 The electronic state is 1-A.
 Alpha  occ. eigenvalues --  -20.60957 -20.60950 -15.85943 -11.31233 -11.27806
 Alpha  occ. eigenvalues --  -11.27798 -11.27541 -11.26804 -11.26790 -11.21446
 Alpha  occ. eigenvalues --  -11.21181 -11.20993 -11.20878 -11.20819 -11.20381
 Alpha  occ. eigenvalues --   -1.59994  -1.39552  -1.19405  -1.08817  -1.08016
 Alpha  occ. eigenvalues --   -1.04797  -1.03136  -0.95666  -0.95614  -0.86644
 Alpha  occ. eigenvalues --   -0.86199  -0.82506  -0.79230  -0.77848  -0.77542
 Alpha  occ. eigenvalues --   -0.72183  -0.71287  -0.70521  -0.65066  -0.64805
 Alpha  occ. eigenvalues --   -0.64625  -0.62148  -0.60528  -0.59004  -0.57208
 Alpha  occ. eigenvalues --   -0.55312  -0.54914  -0.53137  -0.52891  -0.52316
 Alpha  occ. eigenvalues --   -0.52054  -0.49587  -0.48953  -0.48951  -0.47556
 Alpha  occ. eigenvalues --   -0.46253  -0.45346  -0.45293  -0.44807  -0.43372
 Alpha  occ. eigenvalues --   -0.37367  -0.36377
 Alpha virt. eigenvalues --    0.04907   0.11201   0.16385   0.21000   0.23247
 Alpha virt. eigenvalues --    0.24456   0.26273   0.27192   0.27468   0.28205
 Alpha virt. eigenvalues --    0.29189   0.30655   0.31412   0.32013   0.32436

 Mulliken charges:
               1
     1  C   -0.170693
     2  C   -0.219392
     3  C   -0.168376
     4  C    0.160921
     5  C   -0.171081
     6  C   -0.218995
     7  H    0.225823
     8  H    0.224365
     9  H    0.275538
    10  H    0.275711
    11  H    0.223530
    12  N    0.488655
    13  O   -0.458037
    14  O   -0.461033
    15  C   -0.308398
    16  C   -0.298347
    17  C   -0.475816
    18  H    0.159662
    19  H    0.145916
    20  H    0.154158
    21  H    0.150841
    22  H    0.150570
    23  H    0.152059
    24  H    0.160240
    25  C   -0.296449
    26  C   -0.308532
    27  C   -0.475214
    28  H    0.150967
    29  H    0.145803
    30  H    0.171597
    31  H    0.144614
    32  H    0.150059
    33  H    0.155633
    34  H    0.163698
 Sum of Mulliken charges =  -0.00000

 Dipole moment (field-independent basis, Debye):
    X=              2.7026    Y=              3.2206    Z=             -2.8843  Tot=              5.0986
 Quadrupole moment (field-independent basis, Debye-Ang):
   XX=            -85.9826   YY=            -96.5264   ZZ=            -94.4520
   XY=              3.8948   XZ=             -6.2192   YZ=              4.8001

 Normal termination of Gaussian 16 at Thu May  6 03:00:55 2021.
