 Gaussian 16, Revision A.03,
 Gaussian 16:  EM64L-G16RevA.03 25-Dec-2016

 -------------
 #p 6-31g* mp2
 -------------

 ------------------------------------------------------
 Input file generated by CHIRIPA (05-May-2021 14:53:14)
 ------------------------------------------------------
 Symbolic Z-matrix:
 Charge =  0 Multiplicity = 1

                         Standard orientation:
 ---------------------------------------------------------------------
 Center     Atomic      Atomic             Coordinates (Angstroms)
 Number     Number       Type             X           Y           Z
 ---------------------------------------------------------------------
      1          6           0       -4.511212   -0.616065   -0.281115
      2          6           0       -5.827747   -0.809936    0.471968
      3          6           0       -6.495797   -2.149301    0.159551
      4          1           0       -4.699424   -0.690517   -1.360919
      5          1           0       -3.826560   -1.436729   -0.025855
      6          1           0       -6.509211    0.011602    0.216430
      7          1           0       -5.636410   -0.734823    1.550098
      8          1           0       -5.837487   -2.980807    0.431261
      9          1           0       -6.715246   -2.230142   -0.909985
     10          1           0       -7.435296   -2.267044    0.708495
     11          6           0       -3.831405    0.718268    0.020792
     12          6           0       -2.514870    0.912139   -0.732291
     13          6           0       -1.846820    2.251504   -0.419874
     14          1           0       -4.516057    1.538932   -0.234468
     15          1           0       -3.643193    0.792720    1.100596
     16          1           0       -2.706207    0.837026   -1.810421
     17          1           0       -1.833406    0.090601   -0.476753
     18          1           0       -1.627371    2.332345    0.649662
     19          1           0       -2.505130    3.083010   -0.691584
     20          1           0       -0.907322    2.369247   -0.968818
     21          6           0        1.602818    1.793622    0.613200
     22          6           0        1.935021    1.500543   -0.713551
     23          6           0        2.851334    0.486739   -1.008712
     24          6           0        3.418932   -0.217184    0.052237
     25          6           0        3.108337    0.051231    1.384444
     26          6           0        2.189502    1.069307    1.656124
     27          1           0        0.890023    2.582828    0.833368
     28          1           0        1.480960    2.061416   -1.525521
     29          1           0        3.126503    0.239035   -2.026721
     30          1           0        3.577466   -0.525153    2.172554
     31          1           0        1.933394    1.294734    2.687452
     32          7           0        4.390327   -1.292713   -0.247807
     33          8           0        4.876453   -1.898283    0.704876
     34          8           0        4.647188   -1.509779   -1.429984
 ---------------------------------------------------------------------

 SCF Done:  E(RHF) =  -669.534305040     A.U. after   15 cycles
 E2 =    -0.2092285078D+01 EUMP2 =    -0.67162659011788D+03

 The electronic state is 1-A.
 Alpha  occ. eigenvalues --  -20.60739 -20.60734 -15.85794 -11.31146 -11.27734
 Alpha  occ. eigenvalues --  -11.27731 -11.27401 -11.26725 -11.26713 -11.22367
 Alpha  occ. eigenvalues --  -11.22211 -11.22001 -11.21976 -11.21821 -11.21358
 Alpha  occ. eigenvalues --   -1.59815  -1.39369  -1.19328  -1.09009  -1.08715
 Alpha  occ. eigenvalues --   -1.04738  -1.04153  -0.96651  -0.95544  -0.87676
 Alpha  occ. eigenvalues --   -0.86131  -0.82391  -0.80228  -0.78772  -0.77445
 Alpha  occ. eigenvalues --   -0.72013  -0.71140  -0.70444  -0.65629  -0.64988
 Alpha  occ. eigenvalues --   -0.64787  -0.62124  -0.61548  -0.60008  -0.58212
 Alpha  occ. eigenvalues --   -0.56046  -0.55128  -0.53431  -0.53095  -0.52961
 Alpha  occ. eigenvalues --   -0.52751  -0.50538  -0.48777  -0.48767  -0.48525
 Alpha  occ. eigenvalues --   -0.47221  -0.46328  -0.46219  -0.44778  -0.44400
 Alpha  occ. eigenvalues --   -0.37260  -0.36340
 Alpha virt. eigenvalues --    0.05092   0.11217   0.16542   0.20444   0.22538
 Alpha virt. eigenvalues --    0.24053   0.25609   0.26120   0.26560   0.27438
 Alpha virt. eigenvalues --    0.29189   0.29418   0.31146   0.31547   0.32018

 Mulliken charges:
               1
     1  C   -0.299052
     2  C   -0.300029
     3  C   -0.476092
     4  H    0.150829
     5  H    0.151385
     6  H    0.152147
     7  H    0.151938
     8  H    0.156296
     9  H    0.155899
    10  H    0.161238
    11  C   -0.299083
    12  C   -0.300191
    13  C   -0.478346
    14  H    0.150314
    15  H    0.149240
    16  H    0.154162
    17  H    0.156947
    18  H    0.150433
    19  H    0.158952
    20  H    0.152611
    21  C   -0.168077
    22  C   -0.221154
    23  C   -0.171289
    24  C    0.157877
    25  C   -0.170660
    26  C   -0.220963
    27  H    0.230415
    28  H    0.223543
    29  H    0.275510
    30  H    0.275379
    31  H    0.222935
    32  N    0.488131
    33  O   -0.460660
    34  O   -0.460583
 Sum of Mulliken charges =  -0.00000

 Dipole moment (field-independent basis, Debye):
    X=             -3.5960    Y=              3.7269    Z=              1.0507  Tot=              5.2844
 Quadrupole moment (field-independent basis, Debye-Ang):
   XX=           -118.6135   YY=            -97.7734   ZZ=            -89.3004
   XY=             13.0493   XZ=              4.4421   YZ=             -1.4571

 Normal termination of Gaussian 16 at Thu May  6 02:36:07 2021.
