 Gaussian 16, Revision A.03,
 Gaussian 16:  EM64L-G16RevA.03 25-Dec-2016

 -------------
 #p 6-31g* mp2
 -------------

 ------------------------------------------------------
 Input file generated by CHIRIPA (05-May-2021 14:57:26)
 ------------------------------------------------------
 Symbolic Z-matrix:
 Charge =  0 Multiplicity = 1

                         Standard orientation:
 ---------------------------------------------------------------------
 Center     Atomic      Atomic             Coordinates (Angstroms)
 Number     Number       Type             X           Y           Z
 ---------------------------------------------------------------------
      1          6           0       -4.208631    1.672171    0.912874
      2          6           0       -4.457191    0.349403    1.293696
      3          6           0       -3.712676   -0.699175    0.745310
      4          6           0       -2.722799   -0.387512   -0.185442
      5          6           0       -2.451405    0.920124   -0.585096
      6          6           0       -3.208296    1.952815   -0.023656
      7          1           0       -4.791795    2.480561    1.343944
      8          1           0       -5.233438    0.128487    2.020802
      9          1           0       -3.884148   -1.732279    1.022278
     10          1           0       -1.670994    1.109108   -1.312188
     11          1           0       -3.013065    2.979143   -0.321279
     12          7           0       -1.928063   -1.489185   -0.772904
     13          8           0       -1.061561   -1.188238   -1.590975
     14          8           0       -2.186701   -2.632764   -0.404161
     15          6           0        3.179622   -2.184800    0.826251
     16          6           0        2.610500   -1.908523   -0.421263
     17          6           0        2.425213   -0.587683   -0.840307
     18          6           0        2.822280    0.437071    0.017310
     19          6           0        3.392141    0.194003    1.266095
     20          6           0        3.567941   -1.134507    1.664472
     21          1           0        3.319873   -3.213839    1.143748
     22          1           0        2.307985   -2.722190   -1.074314
     23          1           0        1.987117   -0.345392   -1.800924
     24          1           0        3.683788    1.026234    1.895183
     25          1           0        4.010190   -1.346089    2.633849
     26          7           0        2.631146    1.839445   -0.415374
     27          8           0        2.989333    2.724418    0.358683
     28          8           0        2.126767    2.027100   -1.520373
 ---------------------------------------------------------------------

 SCF Done:  E(RHF) =  -868.340735439     A.U. after   16 cycles
 E2 =    -0.2598895283D+01 EUMP2 =    -0.87093963072156D+03

 The electronic state is 1-A.
 Alpha  occ. eigenvalues --  -20.61079 -20.61072 -20.60419 -20.60409 -15.86105
 Alpha  occ. eigenvalues --  -15.85453 -11.31173 -11.30483 -11.27751 -11.27634
 Alpha  occ. eigenvalues --  -11.27418 -11.27110 -11.26891 -11.26739 -11.26710
 Alpha  occ. eigenvalues --  -11.26605 -11.26072 -11.25834  -1.60141  -1.59499
 Alpha  occ. eigenvalues --   -1.39703  -1.39058  -1.19324  -1.18643  -1.08781
 Alpha  occ. eigenvalues --   -1.08110  -1.04674  -1.03967  -0.95663  -0.94989
 Alpha  occ. eigenvalues --   -0.86090  -0.85396  -0.82504  -0.81816  -0.77575
 Alpha  occ. eigenvalues --   -0.76890  -0.72358  -0.71681  -0.71441  -0.70818
 Alpha  occ. eigenvalues --   -0.70430  -0.69746  -0.64980  -0.64671  -0.64286
 Alpha  occ. eigenvalues --   -0.63961  -0.62012  -0.61299  -0.55203  -0.54524
 Alpha  occ. eigenvalues --   -0.53035  -0.52755  -0.52355  -0.52044  -0.49103
 Alpha  occ. eigenvalues --   -0.49079  -0.48445  -0.48409  -0.45174  -0.44535
 Alpha  occ. eigenvalues --   -0.37306  -0.36647  -0.36266  -0.35528
 Alpha virt. eigenvalues --    0.04877   0.05625   0.11384   0.12092   0.16453
 Alpha virt. eigenvalues --    0.17160   0.21520   0.22265   0.27472   0.27963
 Alpha virt. eigenvalues --    0.28473   0.29194   0.31092   0.31750   0.32421

 Mulliken charges:
               1
     1  C   -0.170191
     2  C   -0.219005
     3  C   -0.171453
     4  C    0.157130
     5  C   -0.172268
     6  C   -0.218901
     7  H    0.226478
     8  H    0.222811
     9  H    0.273677
    10  H    0.282924
    11  H    0.228894
    12  N    0.490353
    13  O   -0.467089
    14  O   -0.462274
    15  C   -0.171335
    16  C   -0.216779
    17  C   -0.164333
    18  C    0.152906
    19  C   -0.173065
    20  C   -0.219930
    21  H    0.224789
    22  H    0.232448
    23  H    0.283090
    24  H    0.271493
    25  H    0.219920
    26  N    0.487867
    27  O   -0.464205
    28  O   -0.463952
 Sum of Mulliken charges =  -0.00000

 Dipole moment (field-independent basis, Debye):
    X=             -2.3156    Y=             -1.1280    Z=              3.4344  Tot=              4.2930
 Quadrupole moment (field-independent basis, Debye-Ang):
   XX=            -85.3865   YY=           -110.2175   ZZ=           -101.2236
   XY=            -21.6078   XZ=             -0.9899   YZ=             -1.3126

 Normal termination of Gaussian 16 at Wed May  5 21:15:24 2021.
