 Gaussian 16, Revision A.03,
 Gaussian 16:  EM64L-G16RevA.03 25-Dec-2016

 -------------
 #p 6-31g* mp2
 -------------

 ------------------------------------------------------
 Input file generated by CHIRIPA (05-May-2021 14:55:21)
 ------------------------------------------------------
 Symbolic Z-matrix:
 Charge =  0 Multiplicity = 1

                         Standard orientation:
 ---------------------------------------------------------------------
 Center     Atomic      Atomic             Coordinates (Angstroms)
 Number     Number       Type             X           Y           Z
 ---------------------------------------------------------------------
      1          6           0        1.008281   -2.858881    0.308074
      2          6           0        1.930133   -2.638581   -0.720603
      3          6           0        2.575168   -1.404348   -0.843678
      4          6           0        2.273164   -0.408179    0.083540
      5          6           0        1.359519   -0.597062    1.119331
      6          6           0        0.726413   -1.839216    1.223145
      7          1           0        0.511836   -3.820740    0.396199
      8          1           0        2.150994   -3.428639   -1.432694
      9          1           0        3.293087   -1.206792   -1.630431
     10          1           0        1.159987    0.209754    1.814064
     11          1           0        0.010935   -2.007474    2.023036
     12          7           0        2.949720    0.902642   -0.036558
     13          8           0        2.666235    1.764019    0.793082
     14          8           0        3.750677    1.043865   -0.958057
     15          6           0       -2.349439    1.304320    0.259892
     16          6           0       -1.574288    2.273579   -0.633227
     17          6           0       -0.743856    3.278363    0.165890
     18          1           0       -3.007420    1.877278    0.927519
     19          1           0       -1.641837    0.765608    0.905248
     20          1           0       -2.283016    2.809307   -1.277678
     21          1           0       -0.918217    1.698238   -1.298938
     22          1           0       -0.014723    2.760034    0.797002
     23          1           0       -1.387276    3.877415    0.818383
     24          1           0       -0.197955    3.961523   -0.492246
     25          6           0       -3.184410    0.293677   -0.524425
     26          6           0       -3.959562   -0.675582    0.368694
     27          6           0       -4.789993   -1.680366   -0.430423
     28          1           0       -3.892012    0.832390   -1.169780
     29          1           0       -2.526430   -0.279280   -1.192052
     30          1           0       -4.615632   -0.100241    1.034405
     31          1           0       -3.250833   -1.211309    1.013145
     32          1           0       -4.146573   -2.279418   -1.082917
     33          1           0       -5.519126   -1.162037   -1.061535
     34          1           0       -5.335895   -2.363525    0.227713
 ---------------------------------------------------------------------

 SCF Done:  E(RHF) =  -669.536075827     A.U. after   15 cycles
 E2 =    -0.2093106771D+01 EUMP2 =    -0.67162918259762D+03

 The electronic state is 1-A.
 Alpha  occ. eigenvalues --  -20.60945 -20.60936 -15.85970 -11.31331 -11.27908
 Alpha  occ. eigenvalues --  -11.27891 -11.27629 -11.26915 -11.26897 -11.21946
 Alpha  occ. eigenvalues --  -11.21531 -11.21430 -11.21415 -11.21314 -11.20367
 Alpha  occ. eigenvalues --   -1.59999  -1.39556  -1.19503  -1.08895  -1.08490
 Alpha  occ. eigenvalues --   -1.04903  -1.03502  -0.95922  -0.95730  -0.86935
 Alpha  occ. eigenvalues --   -0.86298  -0.82565  -0.79593  -0.78294  -0.77607
 Alpha  occ. eigenvalues --   -0.72195  -0.71316  -0.70604  -0.65157  -0.65138
 Alpha  occ. eigenvalues --   -0.64900  -0.62251  -0.60895  -0.59346  -0.57528
 Alpha  occ. eigenvalues --   -0.55398  -0.55209  -0.53224  -0.52989  -0.52585
 Alpha  occ. eigenvalues --   -0.52348  -0.49899  -0.48950  -0.48940  -0.47887
 Alpha  occ. eigenvalues --   -0.46662  -0.45838  -0.45758  -0.44847  -0.43756
 Alpha  occ. eigenvalues --   -0.37472  -0.36478
 Alpha virt. eigenvalues --    0.04857   0.11074   0.16265   0.20310   0.22920
 Alpha virt. eigenvalues --    0.23855   0.25389   0.26938   0.27310   0.28197
 Alpha virt. eigenvalues --    0.29393   0.30020   0.31492   0.31659   0.32060

 Mulliken charges:
               1
     1  C   -0.170841
     2  C   -0.218467
     3  C   -0.170912
     4  C    0.157789
     5  C   -0.170278
     6  C   -0.219193
     7  H    0.226466
     8  H    0.224125
     9  H    0.276106
    10  H    0.276756
    11  H    0.224940
    12  N    0.488634
    13  O   -0.459312
    14  O   -0.458933
    15  C   -0.297402
    16  C   -0.300408
    17  C   -0.482127
    18  H    0.149712
    19  H    0.141395
    20  H    0.151009
    21  H    0.150423
    22  H    0.168418
    23  H    0.150366
    24  H    0.165400
    25  C   -0.297874
    26  C   -0.297900
    27  C   -0.475581
    28  H    0.151058
    29  H    0.149669
    30  H    0.153345
    31  H    0.143713
    32  H    0.153218
    33  H    0.157525
    34  H    0.159164
 Sum of Mulliken charges =  -0.00000

 Dipole moment (field-independent basis, Debye):
    X=             -2.2107    Y=             -4.5793    Z=              0.3767  Tot=              5.0989
 Quadrupole moment (field-independent basis, Debye-Ang):
   XX=           -104.7946   YY=            -90.9602   ZZ=            -91.9933
   XY=            -11.5056   XZ=             -1.7593   YZ=              0.6459

 Normal termination of Gaussian 16 at Thu May  6 06:13:29 2021.
