 Gaussian 16, Revision A.03,
 Gaussian 16:  EM64L-G16RevA.03 25-Dec-2016

 -------------
 #p 6-31g* mp2
 -------------

 ------------------------------------------------------
 Input file generated by CHIRIPA (05-May-2021 14:57:22)
 ------------------------------------------------------
 Symbolic Z-matrix:
 Charge =  0 Multiplicity = 1

                         Standard orientation:
 ---------------------------------------------------------------------
 Center     Atomic      Atomic             Coordinates (Angstroms)
 Number     Number       Type             X           Y           Z
 ---------------------------------------------------------------------
      1          6           0        1.797078   -0.001181    1.349577
      2          6           0        2.350349   -1.247475    1.037866
      3          6           0        3.560845   -1.333344    0.343693
      4          6           0        4.193999   -0.147421   -0.025077
      5          6           0        3.668107    1.109218    0.270876
      6          6           0        2.456560    1.171121    0.965763
      7          1           0        0.856327    0.056216    1.889105
      8          1           0        1.840398   -2.159558    1.334680
      9          1           0        4.011534   -2.285013    0.089484
     10          1           0        4.199748    2.000954   -0.038289
     11          1           0        2.029226    2.140389    1.206490
     12          7           0        5.476053   -0.225641   -0.760345
     13          8           0        6.014195    0.833912   -1.074014
     14          8           0        5.918509   -1.345021   -1.009056
     15          6           0       -5.579881   -1.789016   -0.435091
     16          6           0       -4.407198   -1.974870    0.304364
     17          6           0       -3.514994   -0.916192    0.498587
     18          6           0       -3.828292    0.320490   -0.063333
     19          6           0       -4.988580    0.537107   -0.805018
     20          6           0       -5.866324   -0.535830   -0.986450
     21          1           0       -6.267349   -2.616962   -0.581000
     22          1           0       -4.182161   -2.947009    0.733721
     23          1           0       -2.600009   -1.032325    1.066682
     24          1           0       -5.185712    1.517780   -1.220756
     25          1           0       -6.776297   -0.388587   -1.561179
     26          7           0       -2.891409    1.448813    0.135512
     27          8           0       -3.190386    2.528542   -0.369896
     28          8           0       -1.875846    1.232100    0.793009
 ---------------------------------------------------------------------

 SCF Done:  E(RHF) =  -868.339424113     A.U. after   16 cycles
 E2 =    -0.2598485270D+01 EUMP2 =    -0.87093790938332D+03

 The electronic state is 1-A.
 Alpha  occ. eigenvalues --  -20.61715 -20.61661 -20.60231 -20.60220 -15.86737
 Alpha  occ. eigenvalues --  -15.85278 -11.31913 -11.30488 -11.28510 -11.28420
 Alpha  occ. eigenvalues --  -11.28140 -11.27444 -11.27393 -11.27107 -11.27005
 Alpha  occ. eigenvalues --  -11.26633 -11.26075 -11.25874  -1.60749  -1.59308
 Alpha  occ. eigenvalues --   -1.40315  -1.38866  -1.20061  -1.18639  -1.09484
 Alpha  occ. eigenvalues --   -1.08032  -1.05441  -1.04028  -0.96357  -0.94897
 Alpha  occ. eigenvalues --   -0.86846  -0.85414  -0.83206  -0.81746  -0.78279
 Alpha  occ. eigenvalues --   -0.76840  -0.72983  -0.72052  -0.71498  -0.71169
 Alpha  occ. eigenvalues --   -0.70631  -0.69663  -0.65720  -0.65441  -0.64279
 Alpha  occ. eigenvalues --   -0.64014  -0.62802  -0.61385  -0.55933  -0.54422
 Alpha  occ. eigenvalues --   -0.53770  -0.53534  -0.52357  -0.52106  -0.49737
 Alpha  occ. eigenvalues --   -0.49683  -0.48263  -0.48241  -0.45757  -0.44307
 Alpha  occ. eigenvalues --   -0.38015  -0.37033  -0.36560  -0.35644
 Alpha virt. eigenvalues --    0.04260   0.05704   0.10626   0.12023   0.15797
 Alpha virt. eigenvalues --    0.17247   0.20481   0.22149   0.26308   0.27175
 Alpha virt. eigenvalues --    0.28053   0.29032   0.30588   0.31330   0.32992

 Mulliken charges:
               1
     1  C   -0.169562
     2  C   -0.220773
     3  C   -0.171922
     4  C    0.157336
     5  C   -0.172131
     6  C   -0.218260
     7  H    0.236861
     8  H    0.216290
     9  H    0.271991
    10  H    0.274391
    11  H    0.231293
    12  N    0.488253
    13  O   -0.461433
    14  O   -0.463423
    15  C   -0.169920
    16  C   -0.217976
    17  C   -0.169171
    18  C    0.159033
    19  C   -0.170194
    20  C   -0.218170
    21  H    0.228094
    22  H    0.224072
    23  H    0.268492
    24  H    0.277259
    25  H    0.226058
    26  N    0.492391
    27  O   -0.455483
    28  O   -0.473396
 Sum of Mulliken charges =  -0.00000

 Dipole moment (field-independent basis, Debye):
    X=             -8.2999    Y=             -3.5355    Z=              1.8610  Tot=              9.2114
 Quadrupole moment (field-independent basis, Debye-Ang):
   XX=           -116.5719   YY=           -100.9393   ZZ=           -104.8517
   XY=             14.9261   XZ=             16.3128   YZ=             -2.2733

 Normal termination of Gaussian 16 at Thu May  6 00:11:03 2021.
