 Gaussian 16, Revision A.03,
 Gaussian 16:  EM64L-G16RevA.03 25-Dec-2016

 -------------
 #p 6-31g* mp2
 -------------

 ------------------------------------------------------
 Input file generated by CHIRIPA (05-May-2021 14:51:09)
 ------------------------------------------------------
 Symbolic Z-matrix:
 Charge =  0 Multiplicity = 1

                         Standard orientation:
 ---------------------------------------------------------------------
 Center     Atomic      Atomic             Coordinates (Angstroms)
 Number     Number       Type             X           Y           Z
 ---------------------------------------------------------------------
      1          6           0        1.705089   -0.398216    0.854985
      2          6           0        1.624392    0.121161    2.290854
      3          6           0        0.298913   -0.223611    2.970584
      4          1           0        0.872957    0.020922    0.272897
      5          1           0        1.566336   -1.488230    0.858396
      6          1           0        1.764635    1.209698    2.284875
      7          1           0        2.456923   -0.299110    2.869542
      8          1           0        0.154848   -1.308319    3.006021
      9          1           0       -0.541372    0.209062    2.418031
     10          1           0        0.262655    0.157124    3.996053
     11          6           0        3.024287   -0.061396    0.162166
     12          6           0        3.104984   -0.580773   -1.273703
     13          6           0        4.430462   -0.236001   -1.953433
     14          1           0        3.163040    1.028618    0.158755
     15          1           0        3.856418   -0.480534    0.744254
     16          1           0        2.272453   -0.160502   -1.852391
     17          1           0        2.964740   -1.669310   -1.267724
     18          1           0        5.270748   -0.668674   -1.400880
     19          1           0        4.574527    0.848707   -1.988870
     20          1           0        4.466720   -0.616737   -2.978902
     21          6           0       -2.109812    0.856130   -0.863808
     22          6           0       -2.087210    2.094752    0.032456
     23          6           0       -1.574933    3.339698   -0.692441
     24          1           0       -1.096792    0.669068   -1.245568
     25          1           0       -2.741753    1.057512   -1.739874
     26          1           0       -1.456614    1.890610    0.907266
     27          1           0       -3.100365    2.278775    0.412281
     28          1           0       -2.208114    3.571082   -1.555079
     29          1           0       -0.555023    3.180712   -1.057283
     30          1           0       -1.567118    4.213361   -0.033267
     31          6           0       -2.619563   -0.396518   -0.153344
     32          6           0       -2.642166   -1.635140   -1.049607
     33          6           0       -3.154444   -2.880086   -0.324710
     34          1           0       -1.987623   -0.597900    0.722723
     35          1           0       -3.632584   -0.209455    0.228417
     36          1           0       -1.629011   -1.819164   -1.429432
     37          1           0       -3.272762   -1.430999   -1.924416
     38          1           0       -4.174353   -2.721100    0.040131
     39          1           0       -2.521262   -3.111471    0.537928
     40          1           0       -3.162258   -3.753750   -0.983884
 ---------------------------------------------------------------------

 SCF Done:  E(RHF) =  -470.732484902     A.U. after   11 cycles
 E2 =    -0.1585155904D+01 EUMP2 =    -0.47231764080560D+03

 The electronic state is 1-A.
 Alpha  occ. eigenvalues --  -11.21675 -11.21668 -11.21656 -11.21561 -11.21478
 Alpha  occ. eigenvalues --  -11.21418 -11.21412 -11.21305 -11.21130 -11.21119
 Alpha  occ. eigenvalues --  -11.21115 -11.21037  -1.08537  -1.08414  -1.03603
 Alpha  occ. eigenvalues --   -1.03537  -0.96051  -0.95988  -0.87071  -0.87002
 Alpha  occ. eigenvalues --   -0.79674  -0.79607  -0.78343  -0.78242  -0.65454
 Alpha  occ. eigenvalues --   -0.64813  -0.61099  -0.60831  -0.59415  -0.59353
 Alpha  occ. eigenvalues --   -0.57719  -0.57554  -0.55365  -0.55285  -0.52734
 Alpha  occ. eigenvalues --   -0.52699  -0.52497  -0.52404  -0.50057  -0.49915
 Alpha  occ. eigenvalues --   -0.48042  -0.47929  -0.46791  -0.46636  -0.46153
 Alpha  occ. eigenvalues --   -0.45825  -0.45590  -0.45262  -0.43851  -0.43784
 Alpha virt. eigenvalues --    0.19342   0.22925   0.23553   0.24115   0.25373
 Alpha virt. eigenvalues --    0.26268   0.27030   0.27697   0.29231   0.30253
 Alpha virt. eigenvalues --    0.30574   0.31504   0.31716   0.31797   0.32279

 Mulliken charges:
               1
     1  C   -0.306200
     2  C   -0.299176
     3  C   -0.485754
     4  H    0.156784
     5  H    0.149457
     6  H    0.151957
     7  H    0.152491
     8  H    0.154887
     9  H    0.164617
    10  H    0.161110
    11  C   -0.298046
    12  C   -0.300095
    13  C   -0.475737
    14  H    0.149637
    15  H    0.150148
    16  H    0.151443
    17  H    0.152126
    18  H    0.155408
    19  H    0.155361
    20  H    0.160542
    21  C   -0.301150
    22  C   -0.306567
    23  C   -0.475218
    24  H    0.150747
    25  H    0.150371
    26  H    0.156898
    27  H    0.152722
    28  H    0.155696
    29  H    0.154337
    30  H    0.160478
    31  C   -0.306307
    32  C   -0.299412
    33  C   -0.475755
    34  H    0.158246
    35  H    0.149375
    36  H    0.152563
    37  H    0.151554
    38  H    0.155059
    39  H    0.155381
    40  H    0.160021
 Sum of Mulliken charges =  -0.00000

 Dipole moment (field-independent basis, Debye):
    X=              0.0130    Y=              0.0015    Z=              0.0184  Tot=              0.0226
 Quadrupole moment (field-independent basis, Debye-Ang):
   XX=            -84.5950   YY=            -84.9656   ZZ=            -85.1259
   XY=             -1.1138   XZ=              1.0716   YZ=              0.1285

 Normal termination of Gaussian 16 at Wed May  5 19:46:12 2021.
