 Gaussian 16, Revision A.03,
 Gaussian 16:  EM64L-G16RevA.03 25-Dec-2016

 -------------
 #p 6-31g* mp2
 -------------

 ------------------------------------------------------
 Input file generated by CHIRIPA (05-May-2021 14:53:16)
 ------------------------------------------------------
 Symbolic Z-matrix:
 Charge =  0 Multiplicity = 1

                         Standard orientation:
 ---------------------------------------------------------------------
 Center     Atomic      Atomic             Coordinates (Angstroms)
 Number     Number       Type             X           Y           Z
 ---------------------------------------------------------------------
      1          6           0        5.087858    0.187627   -0.215114
      2          6           0        5.460159   -1.287114   -0.371686
      3          6           0        6.970970   -1.521047   -0.348904
      4          1           0        5.562115    0.766357   -1.019538
      5          1           0        5.504135    0.565450    0.729004
      6          1           0        5.042128   -1.662409   -1.314565
      7          1           0        4.984804   -1.862428    0.433093
      8          1           0        7.400426   -1.173345    0.596227
      9          1           0        7.458076   -0.972190   -1.161360
     10          1           0        7.214700   -2.581985   -0.462333
     11          6           0        3.580926    0.437532   -0.235941
     12          6           0        3.208626    1.912274   -0.079369
     13          6           0        1.697814    2.146206   -0.102152
     14          1           0        3.164649    0.059709   -1.180059
     15          1           0        3.106669   -0.141197    0.568482
     16          1           0        3.683980    2.487587   -0.884148
     17          1           0        3.626656    2.287568    0.863510
     18          1           0        1.210709    1.597349    0.710305
     19          1           0        1.268359    1.798504   -1.047282
     20          1           0        1.454084    3.207144    0.011278
     21          6           0       -5.506156   -0.192709   -1.191010
     22          6           0       -4.941444   -1.417733   -0.820959
     23          6           0       -3.767064   -1.458263   -0.063504
     24          6           0       -3.181298   -0.249181    0.308369
     25          6           0       -3.719733    0.987208   -0.044791
     26          6           0       -4.894576    1.003742   -0.802429
     27          1           0       -6.418622   -0.170545   -1.779491
     28          1           0       -5.414225   -2.348489   -1.121323
     29          1           0       -3.308526   -2.392635    0.236680
     30          1           0       -3.225473    1.898436    0.269516
     31          1           0       -5.330900    1.956579   -1.088379
     32          7           0       -1.937790   -0.279386    1.110351
     33          8           0       -1.441120    0.799826    1.425401
     34          8           0       -1.483344   -1.381701    1.408708
 ---------------------------------------------------------------------

 SCF Done:  E(RHF) =  -669.536187684     A.U. after   15 cycles
 E2 =    -0.2090815469D+01 EUMP2 =    -0.67162700315343D+03

 The electronic state is 1-A.
 Alpha  occ. eigenvalues --  -20.60924 -20.60899 -15.85938 -11.31260 -11.27825
 Alpha  occ. eigenvalues --  -11.27817 -11.27565 -11.26833 -11.26822 -11.20951
 Alpha  occ. eigenvalues --  -11.20639 -11.20592 -11.20541 -11.20424 -11.19716
 Alpha  occ. eigenvalues --   -1.59971  -1.39526  -1.19429  -1.08835  -1.07589
 Alpha  occ. eigenvalues --   -1.04825  -1.02660  -0.95678  -0.95093  -0.86226
 Alpha  occ. eigenvalues --   -0.86106  -0.82510  -0.78741  -0.77563  -0.77379
 Alpha  occ. eigenvalues --   -0.72165  -0.71280  -0.70538  -0.65085  -0.64829
 Alpha  occ. eigenvalues --   -0.64222  -0.62172  -0.60055  -0.58506  -0.56709
 Alpha  occ. eigenvalues --   -0.55333  -0.54370  -0.53158  -0.52917  -0.51805
 Alpha  occ. eigenvalues --   -0.51513  -0.49146  -0.48919  -0.48803  -0.47048
 Alpha  occ. eigenvalues --   -0.45787  -0.45042  -0.44884  -0.44699  -0.42927
 Alpha  occ. eigenvalues --   -0.37408  -0.36426
 Alpha virt. eigenvalues --    0.04948   0.11229   0.16432   0.21360   0.23680
 Alpha virt. eigenvalues --    0.25214   0.27277   0.27500   0.28165   0.28365
 Alpha virt. eigenvalues --    0.28975   0.30927   0.32315   0.32396   0.32653

 Mulliken charges:
               1
     1  C   -0.297667
     2  C   -0.299300
     3  C   -0.475252
     4  H    0.146811
     5  H    0.148824
     6  H    0.150358
     7  H    0.153886
     8  H    0.154734
     9  H    0.153551
    10  H    0.158548
    11  C   -0.298906
    12  C   -0.299073
    13  C   -0.483085
    14  H    0.146426
    15  H    0.157170
    16  H    0.145908
    17  H    0.150394
    18  H    0.182959
    19  H    0.146416
    20  H    0.153267
    21  C   -0.170611
    22  C   -0.218631
    23  C   -0.170740
    24  C    0.158205
    25  C   -0.170614
    26  C   -0.218628
    27  H    0.225858
    28  H    0.223669
    29  H    0.275745
    30  H    0.276322
    31  H    0.223777
    32  N    0.489009
    33  O   -0.459581
    34  O   -0.459750
 Sum of Mulliken charges =  -0.00000

 Dipole moment (field-independent basis, Debye):
    X=             -4.6624    Y=              0.0308    Z=             -2.6867  Tot=              5.3812
 Quadrupole moment (field-independent basis, Debye-Ang):
   XX=            -69.6364   YY=            -90.2595   ZZ=            -96.3612
   XY=              0.9951   XZ=              8.2619   YZ=              0.8329

 Normal termination of Gaussian 16 at Thu May  6 18:54:16 2021.
