 Gaussian 16, Revision A.03,
 Gaussian 16:  EM64L-G16RevA.03 25-Dec-2016

 -------------
 #p 6-31g* mp2
 -------------

 ------------------------------------------------------
 Input file generated by CHIRIPA (05-May-2021 14:53:15)
 ------------------------------------------------------
 Symbolic Z-matrix:
 Charge =  0 Multiplicity = 1

                         Standard orientation:
 ---------------------------------------------------------------------
 Center     Atomic      Atomic             Coordinates (Angstroms)
 Number     Number       Type             X           Y           Z
 ---------------------------------------------------------------------
      1          6           0       -3.507739    0.388153    0.244028
      2          6           0       -4.489089   -0.384892   -0.637640
      3          6           0       -5.508780   -1.184884    0.173554
      4          1           0       -2.982484   -0.317052    0.902616
      5          1           0       -4.070776    1.067408    0.899007
      6          1           0       -3.924285   -1.061484   -1.291732
      7          1           0       -5.011931    0.322213   -1.294340
      8          1           0       -6.097494   -0.520751    0.814603
      9          1           0       -5.003668   -1.912310    0.817226
     10          1           0       -6.200423   -1.729770   -0.476515
     11          6           0       -2.482128    1.192826   -0.552433
     12          6           0       -1.500778    1.965870    0.329236
     13          6           0       -0.481087    2.765863   -0.481958
     14          1           0       -1.919091    0.513571   -1.207412
     15          1           0       -3.007383    1.898031   -1.211021
     16          1           0       -0.977936    1.258765    0.985935
     17          1           0       -2.065582    2.642463    0.983327
     18          1           0       -0.986199    3.493289   -1.125631
     19          1           0        0.107627    2.101729   -1.123008
     20          1           0        0.210556    3.310748    0.168111
     21          6           0        0.259494   -2.010937    0.431624
     22          6           0        0.585052   -1.021075    1.364741
     23          6           0        1.735221   -0.243054    1.202437
     24          6           0        2.540908   -0.482864    0.090389
     25          6           0        2.243403   -1.461584   -0.856652
     26          6           0        1.088248   -2.227650   -0.674145
     27          1           0       -0.635921   -2.610679    0.565552
     28          1           0       -0.056716   -0.850564    2.224452
     29          1           0        2.010954    0.529886    1.909513
     30          1           0        2.902661   -1.608273   -1.703576
     31          1           0        0.837899   -2.995695   -1.400421
     32          7           0        3.761178    0.334464   -0.092129
     33          8           0        4.454516    0.103531   -1.080354
     34          8           0        4.001184    1.190544    0.756496
 ---------------------------------------------------------------------

 SCF Done:  E(RHF) =  -669.534873893     A.U. after   15 cycles
 E2 =    -0.2094131813D+01 EUMP2 =    -0.67162900570604D+03

 The electronic state is 1-A.
 Alpha  occ. eigenvalues --  -20.60835 -20.60830 -15.85891 -11.31310 -11.27870
 Alpha  occ. eigenvalues --  -11.27863 -11.27625 -11.26903 -11.26892 -11.22205
 Alpha  occ. eigenvalues --  -11.22001 -11.21815 -11.21734 -11.21687 -11.21137
 Alpha  occ. eigenvalues --   -1.59909  -1.39461  -1.19488  -1.08927  -1.08839
 Alpha  occ. eigenvalues --   -1.04905  -1.03927  -0.96380  -0.95692  -0.87389
 Alpha  occ. eigenvalues --   -0.86288  -0.82533  -0.80019  -0.78718  -0.77560
 Alpha  occ. eigenvalues --   -0.72108  -0.71233  -0.70579  -0.65586  -0.65138
 Alpha  occ. eigenvalues --   -0.64870  -0.62252  -0.61352  -0.59758  -0.57992
 Alpha  occ. eigenvalues --   -0.55697  -0.55375  -0.53212  -0.53030  -0.52990
 Alpha  occ. eigenvalues --   -0.52785  -0.50326  -0.48872  -0.48859  -0.48323
 Alpha  occ. eigenvalues --   -0.47084  -0.46257  -0.46167  -0.44855  -0.44194
 Alpha  occ. eigenvalues --   -0.37441  -0.36399
 Alpha virt. eigenvalues --    0.04945   0.11052   0.16328   0.19896   0.22874
 Alpha virt. eigenvalues --    0.23741   0.25385   0.26456   0.27134   0.28015
 Alpha virt. eigenvalues --    0.29459   0.30277   0.31150   0.31531   0.32056

 Mulliken charges:
               1
     1  C   -0.296778
     2  C   -0.299790
     3  C   -0.475148
     4  H    0.138557
     5  H    0.151687
     6  H    0.148991
     7  H    0.155317
     8  H    0.157380
     9  H    0.150551
    10  H    0.161951
    11  C   -0.298336
    12  C   -0.302606
    13  C   -0.477006
    14  H    0.150080
    15  H    0.151604
    16  H    0.149657
    17  H    0.150700
    18  H    0.155976
    19  H    0.156735
    20  H    0.163615
    21  C   -0.171320
    22  C   -0.219046
    23  C   -0.167986
    24  C    0.158875
    25  C   -0.171473
    26  C   -0.219121
    27  H    0.226505
    28  H    0.225319
    29  H    0.276596
    30  H    0.276178
    31  H    0.224129
    32  N    0.488117
    33  O   -0.460081
    34  O   -0.459829
 Sum of Mulliken charges =  -0.00000

 Dipole moment (field-independent basis, Debye):
    X=             -4.2313    Y=             -2.8475    Z=              0.5930  Tot=              5.1346
 Quadrupole moment (field-independent basis, Debye-Ang):
   XX=           -117.1953   YY=            -90.9358   ZZ=            -91.5348
   XY=             -6.9704   XZ=              0.7816   YZ=              2.0935

 Normal termination of Gaussian 16 at Thu May  6 10:34:24 2021.
