 Gaussian 16, Revision A.03,
 Gaussian 16:  EM64L-G16RevA.03 25-Dec-2016

 -------------
 #p 6-31g* mp2
 -------------

 ------------------------------------------------------
 Input file generated by CHIRIPA (05-May-2021 14:55:24)
 ------------------------------------------------------
 Symbolic Z-matrix:
 Charge =  0 Multiplicity = 1

                         Standard orientation:
 ---------------------------------------------------------------------
 Center     Atomic      Atomic             Coordinates (Angstroms)
 Number     Number       Type             X           Y           Z
 ---------------------------------------------------------------------
      1          6           0       -0.653425   -0.416850    1.582011
      2          6           0       -1.760113    0.289877    2.063985
      3          6           0       -2.923592    0.396789    1.296238
      4          6           0       -2.945917   -0.218120    0.045366
      5          6           0       -1.859693   -0.929126   -0.462451
      6          6           0       -0.706653   -1.023027    0.322552
      7          1           0        0.246339   -0.494848    2.185118
      8          1           0       -1.721616    0.761656    3.041731
      9          1           0       -3.794821    0.937846    1.644999
     10          1           0       -1.927995   -1.388738   -1.440975
     11          1           0        0.151299   -1.572517   -0.054308
     12          7           0       -4.172114   -0.111824   -0.776547
     13          8           0       -4.166516   -0.662576   -1.875309
     14          8           0       -5.115587    0.520230   -0.306438
     15          6           0        3.611341    1.007419   -0.506100
     16          6           0        2.589477    2.013675    0.024209
     17          6           0        2.801073    3.421180   -0.534316
     18          1           0        4.622891    1.354824   -0.255061
     19          1           0        3.553471    0.980143   -1.603051
     20          1           0        2.648299    2.038030    1.119911
     21          1           0        1.580233    1.663737   -0.227954
     22          1           0        2.721717    3.418299   -1.626239
     23          1           0        3.795851    3.794719   -0.270716
     24          1           0        2.059733    4.124368   -0.142139
     25          6           0        3.412850   -0.404184    0.043180
     26          6           0        4.434714   -1.410440   -0.487128
     27          6           0        4.223118   -2.817945    0.071397
     28          1           0        3.470720   -0.376908    1.140131
     29          1           0        2.401299   -0.751589   -0.207859
     30          1           0        5.443957   -1.060502   -0.234965
     31          1           0        4.375891   -1.434795   -1.582830
     32          1           0        3.228339   -3.191483   -0.192203
     33          1           0        4.302474   -2.815064    1.163320
     34          1           0        4.964458   -3.521133   -0.320780
 ---------------------------------------------------------------------

 SCF Done:  E(RHF) =  -669.535593114     A.U. after   15 cycles
 E2 =    -0.2092202073D+01 EUMP2 =    -0.67162779518752D+03

 The electronic state is 1-A.
 Alpha  occ. eigenvalues --  -20.60762 -20.60757 -15.85816 -11.31182 -11.27761
 Alpha  occ. eigenvalues --  -11.27756 -11.27486 -11.26758 -11.26749 -11.22459
 Alpha  occ. eigenvalues --  -11.22399 -11.22229 -11.22106 -11.21943 -11.21548
 Alpha  occ. eigenvalues --   -1.59838  -1.39392  -1.19359  -1.09254  -1.08745
 Alpha  occ. eigenvalues --   -1.04765  -1.04262  -0.96725  -0.95580  -0.87735
 Alpha  occ. eigenvalues --   -0.86163  -0.82415  -0.80339  -0.79098  -0.77464
 Alpha  occ. eigenvalues --   -0.72034  -0.71162  -0.70446  -0.65929  -0.65007
 Alpha  occ. eigenvalues --   -0.64747  -0.62127  -0.61643  -0.60094  -0.58333
 Alpha  occ. eigenvalues --   -0.56026  -0.55240  -0.53386  -0.53172  -0.53084
 Alpha  occ. eigenvalues --   -0.52847  -0.50661  -0.48805  -0.48789  -0.48640
 Alpha  occ. eigenvalues --   -0.47373  -0.46600  -0.46521  -0.44797  -0.44544
 Alpha  occ. eigenvalues --   -0.37304  -0.36361
 Alpha virt. eigenvalues --    0.05070   0.11158   0.16544   0.19533   0.22760
 Alpha virt. eigenvalues --    0.23260   0.24733   0.25685   0.27108   0.28259
 Alpha virt. eigenvalues --    0.29576   0.30108   0.31039   0.31448   0.31847

 Mulliken charges:
               1
     1  C   -0.170048
     2  C   -0.219096
     3  C   -0.170781
     4  C    0.158508
     5  C   -0.171839
     6  C   -0.222157
     7  H    0.228075
     8  H    0.223497
     9  H    0.275625
    10  H    0.275605
    11  H    0.227324
    12  N    0.488061
    13  O   -0.460528
    14  O   -0.460432
    15  C   -0.297873
    16  C   -0.303524
    17  C   -0.476007
    18  H    0.152277
    19  H    0.152417
    20  H    0.147518
    21  H    0.156191
    22  H    0.157581
    23  H    0.155807
    24  H    0.162099
    25  C   -0.303416
    26  C   -0.300034
    27  C   -0.475987
    28  H    0.146472
    29  H    0.144066
    30  H    0.155660
    31  H    0.154798
    32  H    0.149990
    33  H    0.155150
    34  H    0.165001
 Sum of Mulliken charges =  -0.00000

 Dipole moment (field-independent basis, Debye):
    X=              4.4564    Y=             -0.3160    Z=              2.8566  Tot=              5.3028
 Quadrupole moment (field-independent basis, Debye-Ang):
   XX=           -118.8484   YY=            -94.6011   ZZ=            -91.6574
   XY=             -1.1307   XZ=             -9.9548   YZ=              2.0745

 Normal termination of Gaussian 16 at Thu May  6 14:22:06 2021.
