 Gaussian 16, Revision A.03,
 Gaussian 16:  EM64L-G16RevA.03 25-Dec-2016

 -------------
 #p 6-31g* mp2
 -------------

 ------------------------------------------------------
 Input file generated by CHIRIPA (05-May-2021 14:51:12)
 ------------------------------------------------------
 Symbolic Z-matrix:
 Charge =  0 Multiplicity = 1

                         Standard orientation:
 ---------------------------------------------------------------------
 Center     Atomic      Atomic             Coordinates (Angstroms)
 Number     Number       Type             X           Y           Z
 ---------------------------------------------------------------------
      1          6           0       -3.468568   -0.853071    0.468811
      2          6           0       -2.040194   -0.307483    0.477008
      3          6           0       -1.064573   -1.216208    1.225458
      4          1           0       -3.809678   -0.985440    1.504700
      5          1           0       -3.469747   -1.851228    0.009381
      6          1           0       -2.041925    0.689927    0.935032
      7          1           0       -1.702514   -0.176217   -0.559021
      8          1           0       -1.033244   -2.209348    0.765793
      9          1           0       -1.374583   -1.338282    2.268335
     10          1           0       -0.049429   -0.807183    1.218949
     11          6           0       -4.455578    0.044320   -0.275655
     12          6           0       -5.883951   -0.501268   -0.283853
     13          6           0       -6.859573    0.407457   -1.032303
     14          1           0       -4.454398    1.042477    0.183774
     15          1           0       -4.114467    0.176689   -1.311545
     16          1           0       -6.221632   -0.632534    0.752176
     17          1           0       -5.882221   -1.498678   -0.741877
     18          1           0       -6.549563    0.529531   -2.075179
     19          1           0       -6.890902    1.400597   -0.572638
     20          1           0       -7.874716   -0.001568   -1.025794
     21          6           0        3.433189    0.902340   -0.332682
     22          6           0        2.464220    1.326783    0.771371
     23          6           0        1.412050    2.323179    0.283592
     24          1           0        3.930656    1.794099   -0.737944
     25          1           0        2.863062    0.458974   -1.160798
     26          1           0        3.036129    1.767957    1.597751
     27          1           0        1.969144    0.433890    1.174182
     28          1           0        0.816405    1.889043   -0.525935
     29          1           0        1.889453    3.230689   -0.099961
     30          1           0        0.729886    2.613099    1.088861
     31          6           0        4.490957   -0.093589    0.139527
     32          6           0        5.459926   -0.518032   -0.964527
     33          6           0        6.512096   -1.514428   -0.476747
     34          1           0        5.061083    0.349777    0.967643
     35          1           0        3.993489   -0.985348    0.544788
     36          1           0        5.955002    0.374860   -1.367339
     37          1           0        4.888017   -0.959206   -1.790906
     38          1           0        6.034693   -2.421938   -0.093194
     39          1           0        7.107741   -1.080292    0.332780
     40          1           0        7.194259   -1.804348   -1.282017
 ---------------------------------------------------------------------

 SCF Done:  E(RHF) =  -470.733298119     A.U. after   11 cycles
 E2 =    -0.1582857945D+01 EUMP2 =    -0.47231615606457D+03

 The electronic state is 1-A.
 Alpha  occ. eigenvalues --  -11.21605 -11.21601 -11.21600 -11.21599 -11.21406
 Alpha  occ. eigenvalues --  -11.21404 -11.21346 -11.21344 -11.21070 -11.21068
 Alpha  occ. eigenvalues --  -11.21066 -11.21063  -1.08443  -1.08420  -1.03564
 Alpha  occ. eigenvalues --   -1.03498  -0.96013  -0.95946  -0.87013  -0.86981
 Alpha  occ. eigenvalues --   -0.79653  -0.79536  -0.78256  -0.78230  -0.65081
 Alpha  occ. eigenvalues --   -0.65059  -0.61005  -0.60927  -0.59441  -0.59231
 Alpha  occ. eigenvalues --   -0.57663  -0.57505  -0.55267  -0.55248  -0.52709
 Alpha  occ. eigenvalues --   -0.52652  -0.52411  -0.52393  -0.49925  -0.49921
 Alpha  occ. eigenvalues --   -0.47989  -0.47856  -0.46625  -0.46613  -0.45798
 Alpha  occ. eigenvalues --   -0.45785  -0.45706  -0.45686  -0.43810  -0.43719
 Alpha virt. eigenvalues --    0.20673   0.23071   0.23551   0.25357   0.26164
 Alpha virt. eigenvalues --    0.26390   0.26784   0.27386   0.28108   0.29025
 Alpha virt. eigenvalues --    0.30246   0.30579   0.31311   0.31841   0.32277

 Mulliken charges:
               1
     1  C   -0.298683
     2  C   -0.298866
     3  C   -0.484055
     4  H    0.149667
     5  H    0.149390
     6  H    0.153156
     7  H    0.151377
     8  H    0.154867
     9  H    0.155354
    10  H    0.167471
    11  C   -0.298227
    12  C   -0.299639
    13  C   -0.475704
    14  H    0.149682
    15  H    0.149591
    16  H    0.151935
    17  H    0.151874
    18  H    0.155178
    19  H    0.155235
    20  H    0.160234
    21  C   -0.297962
    22  C   -0.306832
    23  C   -0.476419
    24  H    0.149767
    25  H    0.149468
    26  H    0.152354
    27  H    0.157259
    28  H    0.156979
    29  H    0.155065
    30  H    0.160364
    31  C   -0.298415
    32  C   -0.299654
    33  C   -0.475735
    34  H    0.149581
    35  H    0.149798
    36  H    0.151918
    37  H    0.151925
    38  H    0.155291
    39  H    0.155185
    40  H    0.160226
 Sum of Mulliken charges =  -0.00000

 Dipole moment (field-independent basis, Debye):
    X=              0.0031    Y=              0.0128    Z=              0.0008  Tot=              0.0132
 Quadrupole moment (field-independent basis, Debye-Ang):
   XX=            -85.7384   YY=            -84.7614   ZZ=            -84.2604
   XY=              1.4111   XZ=             -0.6094   YZ=              1.0732

 Normal termination of Gaussian 16 at Thu May  6 02:20:11 2021.
