 Gaussian 16, Revision A.03,
 Gaussian 16:  EM64L-G16RevA.03 25-Dec-2016

 -------------
 #p 6-31g* mp2
 -------------

 ------------------------------------------------------
 Input file generated by CHIRIPA (05-May-2021 14:55:25)
 ------------------------------------------------------
 Symbolic Z-matrix:
 Charge =  0 Multiplicity = 1

                         Standard orientation:
 ---------------------------------------------------------------------
 Center     Atomic      Atomic             Coordinates (Angstroms)
 Number     Number       Type             X           Y           Z
 ---------------------------------------------------------------------
      1          6           0        2.853690    2.009187   -0.986276
      2          6           0        3.178703    0.729366   -1.447738
      3          6           0        2.705961   -0.406247   -0.783324
      4          6           0        1.906940   -0.224464    0.344422
      5          6           0        1.565726    1.037415    0.828701
      6          6           0        2.049656    2.158863    0.148470
      7          1           0        3.225273    2.885857   -1.508552
      8          1           0        3.802936    0.610106   -2.328734
      9          1           0        2.942226   -1.408722   -1.118942
     10          1           0        0.941454    1.124473    1.709680
     11          1           0        1.795638    3.151564    0.509114
     12          7           0        1.400546   -1.419188    1.056180
     13          8           0        0.698302   -1.232167    2.047397
     14          8           0        1.715469   -2.520012    0.609361
     15          6           0       -2.557309    0.771918   -0.492444
     16          6           0       -2.887915    1.713594    0.665974
     17          6           0       -2.903326    3.183880    0.246671
     18          1           0       -1.579225    1.045500   -0.911312
     19          1           0       -3.293023    0.917445   -1.295526
     20          1           0       -2.152608    1.565348    1.467199
     21          1           0       -3.865238    1.437617    1.082257
     22          1           0       -3.649434    3.353355   -0.536401
     23          1           0       -1.927074    3.481812   -0.149270
     24          1           0       -3.141781    3.839394    1.090056
     25          6           0       -2.538114   -0.701368   -0.088973
     26          6           0       -2.207508   -1.643044   -1.247391
     27          6           0       -2.192098   -3.113330   -0.828087
     28          1           0       -1.802400   -0.846895    0.714109
     29          1           0       -3.516198   -0.974949    0.329896
     30          1           0       -1.230185   -1.367067   -1.663673
     31          1           0       -2.942815   -1.494798   -2.048617
     32          1           0       -3.168349   -3.411262   -0.432146
     33          1           0       -1.445988   -3.282805   -0.045016
     34          1           0       -1.953642   -3.768845   -1.671472
 ---------------------------------------------------------------------

 SCF Done:  E(RHF) =  -669.536952044     A.U. after   15 cycles
 E2 =    -0.2093612297D+01 EUMP2 =    -0.67163056434041D+03

 The electronic state is 1-A.
 Alpha  occ. eigenvalues --  -20.61108 -20.61090 -15.86097 -11.31387 -11.27946
 Alpha  occ. eigenvalues --  -11.27933 -11.27658 -11.26935 -11.26920 -11.21513
 Alpha  occ. eigenvalues --  -11.21197 -11.21091 -11.20997 -11.20676 -11.20128
 Alpha  occ. eigenvalues --   -1.60142  -1.39699  -1.19545  -1.08954  -1.08030
 Alpha  occ. eigenvalues --   -1.04931  -1.03143  -0.95802  -0.95568  -0.86585
 Alpha  occ. eigenvalues --   -0.86331  -0.82636  -0.79236  -0.77800  -0.77676
 Alpha  occ. eigenvalues --   -0.72320  -0.71464  -0.70646  -0.65199  -0.64934
 Alpha  occ. eigenvalues --   -0.64659  -0.62276  -0.60543  -0.58990  -0.57165
 Alpha  occ. eigenvalues --   -0.55434  -0.54865  -0.53257  -0.53019  -0.52292
 Alpha  occ. eigenvalues --   -0.51982  -0.49524  -0.49095  -0.49076  -0.47531
 Alpha  occ. eigenvalues --   -0.46287  -0.45568  -0.45334  -0.44674  -0.43368
 Alpha  occ. eigenvalues --   -0.37508  -0.36518
 Alpha virt. eigenvalues --    0.04767   0.11072   0.16229   0.20556   0.22917
 Alpha virt. eigenvalues --    0.24403   0.26073   0.27095   0.27473   0.28341
 Alpha virt. eigenvalues --    0.28964   0.30925   0.31510   0.31998   0.32175

 Mulliken charges:
               1
     1  C   -0.170199
     2  C   -0.218407
     3  C   -0.170830
     4  C    0.158776
     5  C   -0.171454
     6  C   -0.219456
     7  H    0.226639
     8  H    0.224358
     9  H    0.276331
    10  H    0.277179
    11  H    0.224954
    12  N    0.487947
    13  O   -0.458637
    14  O   -0.457764
    15  C   -0.298717
    16  C   -0.299598
    17  C   -0.475103
    18  H    0.146087
    19  H    0.147709
    20  H    0.150028
    21  H    0.154453
    22  H    0.156509
    23  H    0.148165
    24  H    0.159113
    25  C   -0.310334
    26  C   -0.299103
    27  C   -0.480053
    28  H    0.166860
    29  H    0.148959
    30  H    0.145679
    31  H    0.147952
    32  H    0.152154
    33  H    0.173184
    34  H    0.156617
 Sum of Mulliken charges =  -0.00000

 Dipole moment (field-independent basis, Debye):
    X=              1.9847    Y=              4.0763    Z=             -2.3814  Tot=              5.1212
 Quadrupole moment (field-independent basis, Debye-Ang):
   XX=            -86.4665   YY=            -96.5461   ZZ=            -94.8635
   XY=              6.4288   XZ=             -6.2003   YZ=              4.1361

 Normal termination of Gaussian 16 at Thu May  6 14:22:00 2021.
