 Gaussian 16, Revision A.03,
 Gaussian 16:  EM64L-G16RevA.03 25-Dec-2016

 -------------
 #p 6-31g* mp2
 -------------

 ------------------------------------------------------
 Input file generated by CHIRIPA (05-May-2021 14:53:18)
 ------------------------------------------------------
 Symbolic Z-matrix:
 Charge =  0 Multiplicity = 1

                         Standard orientation:
 ---------------------------------------------------------------------
 Center     Atomic      Atomic             Coordinates (Angstroms)
 Number     Number       Type             X           Y           Z
 ---------------------------------------------------------------------
      1          6           0       -4.152676   -0.341706    0.171573
      2          6           0       -4.896299    0.848987   -0.434448
      3          6           0       -6.235345    1.121050    0.251650
      4          1           0       -4.788456   -1.235205    0.105333
      5          1           0       -3.986257   -0.155126    1.241567
      6          1           0       -5.060044    0.660827   -1.503279
      7          1           0       -4.258599    1.739715   -0.366931
      8          1           0       -6.086958    1.334368    1.315172
      9          1           0       -6.892957    0.249350    0.172367
     10          1           0       -6.750036    1.976260   -0.197313
     11          6           0       -2.812231   -0.626212   -0.503698
     12          6           0       -2.068608   -1.816904    0.102323
     13          6           0       -0.729562   -2.088968   -0.583776
     14          1           0       -2.978650   -0.812791   -1.573693
     15          1           0       -2.176451    0.267288   -0.437458
     16          1           0       -2.706308   -2.707632    0.034806
     17          1           0       -1.904863   -1.628744    1.171154
     18          1           0       -0.071949   -1.217267   -0.504492
     19          1           0       -0.877948   -2.302285   -1.647297
     20          1           0       -0.214870   -2.944178   -0.134812
     21          6           0        2.134139    2.830719    0.048900
     22          6           0        3.263114    2.358274   -0.628398
     23          6           0        3.597675    1.001372   -0.590541
     24          6           0        2.777370    0.140983    0.137551
     25          6           0        1.646026    0.581231    0.822776
     26          6           0        1.330615    1.942255    0.771051
     27          1           0        1.881681    3.886394    0.014106
     28          1           0        3.888966    3.045972   -1.190026
     29          1           0        4.465939    0.608744   -1.105691
     30          1           0        1.041377   -0.128477    1.374257
     31          1           0        0.453235    2.306345    1.298013
     32          7           0        3.121419   -1.297692    0.184969
     33          8           0        2.382491   -2.035285    0.833491
     34          8           0        4.123497   -1.660490   -0.427285
 ---------------------------------------------------------------------

 SCF Done:  E(RHF) =  -669.534442446     A.U. after   15 cycles
 E2 =    -0.2093464577D+01 EUMP2 =    -0.67162790702368D+03

 The electronic state is 1-A.
 Alpha  occ. eigenvalues --  -20.60840 -20.60806 -15.85860 -11.31254 -11.27823
 Alpha  occ. eigenvalues --  -11.27816 -11.27572 -11.26848 -11.26834 -11.21788
 Alpha  occ. eigenvalues --  -11.21502 -11.21437 -11.21381 -11.21249 -11.20400
 Alpha  occ. eigenvalues --   -1.59891  -1.39447  -1.19437  -1.08820  -1.08466
 Alpha  occ. eigenvalues --   -1.04846  -1.03470  -0.95910  -0.95634  -0.86911
 Alpha  occ. eigenvalues --   -0.86232  -0.82487  -0.79556  -0.78283  -0.77521
 Alpha  occ. eigenvalues --   -0.72098  -0.71216  -0.70550  -0.65152  -0.65084
 Alpha  occ. eigenvalues --   -0.64829  -0.62235  -0.60853  -0.59258  -0.57488
 Alpha  occ. eigenvalues --   -0.55416  -0.55153  -0.53192  -0.52926  -0.52510
 Alpha  occ. eigenvalues --   -0.52271  -0.49888  -0.48850  -0.48825  -0.47838
 Alpha  occ. eigenvalues --   -0.46641  -0.45826  -0.45768  -0.44781  -0.43629
 Alpha  occ. eigenvalues --   -0.37396  -0.36408
 Alpha virt. eigenvalues --    0.04977   0.11102   0.16426   0.20616   0.22891
 Alpha virt. eigenvalues --    0.24133   0.26284   0.27095   0.27867   0.28001
 Alpha virt. eigenvalues --    0.28896   0.30732   0.31473   0.31671   0.32346

 Mulliken charges:
               1
     1  C   -0.297838
     2  C   -0.298799
     3  C   -0.475565
     4  H    0.151583
     5  H    0.146887
     6  H    0.152981
     7  H    0.147926
     8  H    0.154246
     9  H    0.156555
    10  H    0.159884
    11  C   -0.297001
    12  C   -0.302256
    13  C   -0.477975
    14  H    0.151060
    15  H    0.142296
    16  H    0.153469
    17  H    0.146645
    18  H    0.147817
    19  H    0.151663
    20  H    0.180258
    21  C   -0.170514
    22  C   -0.218325
    23  C   -0.170538
    24  C    0.160477
    25  C   -0.174497
    26  C   -0.220025
    27  H    0.226005
    28  H    0.223831
    29  H    0.275972
    30  H    0.279388
    31  H    0.223872
    32  N    0.488983
    33  O   -0.458419
    34  O   -0.460044
 Sum of Mulliken charges =  -0.00000

 Dipole moment (field-independent basis, Debye):
    X=             -1.0652    Y=              4.9497    Z=             -0.1683  Tot=              5.0659
 Quadrupole moment (field-independent basis, Debye-Ang):
   XX=            -99.3983   YY=            -93.0003   ZZ=            -93.5306
   XY=             15.5741   XZ=             -2.5796   YZ=              0.3534

 Normal termination of Gaussian 16 at Thu May  6 07:35:52 2021.
