 Gaussian 16, Revision A.03,
 Gaussian 16:  EM64L-G16RevA.03 25-Dec-2016

 -------------
 #p 6-31g* mp2
 -------------

 ------------------------------------------------------
 Input file generated by CHIRIPA (05-May-2021 14:53:16)
 ------------------------------------------------------
 Symbolic Z-matrix:
 Charge =  0 Multiplicity = 1

                         Standard orientation:
 ---------------------------------------------------------------------
 Center     Atomic      Atomic             Coordinates (Angstroms)
 Number     Number       Type             X           Y           Z
 ---------------------------------------------------------------------
      1          6           0        3.719800    0.870838   -0.429889
      2          6           0        2.641178    1.468590    0.474132
      3          6           0        2.101073    2.799376   -0.050358
      4          1           0        4.544940    1.589237   -0.529853
      5          1           0        3.305907    0.727996   -1.437700
      6          1           0        3.056567    1.608975    1.480293
      7          1           0        1.818596    0.748607    0.572111
      8          1           0        1.661190    2.671558   -1.044725
      9          1           0        2.906194    3.536815   -0.131382
     10          1           0        1.331233    3.208880    0.611090
     11          6           0        4.269575   -0.459686    0.081169
     12          6           0        5.348197   -1.057437   -0.822851
     13          6           0        5.888302   -2.388224   -0.298362
     14          1           0        4.683468   -0.316844    1.088981
     15          1           0        3.444436   -1.178084    0.181134
     16          1           0        6.170779   -0.337454   -0.920830
     17          1           0        4.932808   -1.197823   -1.829012
     18          1           0        5.083181   -3.125662   -0.217337
     19          1           0        6.328185   -2.260406    0.696005
     20          1           0        6.658142   -2.797728   -0.959810
     21          6           0       -1.018500    0.361803    1.429717
     22          6           0       -1.854868   -0.679863    1.844375
     23          6           0       -3.022257   -0.978208    1.135332
     24          6           0       -3.324097   -0.211111    0.011168
     25          6           0       -2.511051    0.833022   -0.427048
     26          6           0       -1.348680    1.113595    0.297325
     27          1           0       -0.113593    0.586661    1.986473
     28          1           0       -1.600956   -1.265386    2.723429
     29          1           0       -3.687613   -1.779075    1.434215
     30          1           0       -2.790599    1.399093   -1.307296
     31          1           0       -0.701017    1.923148   -0.027025
     32          7           0       -4.557304   -0.517548   -0.747579
     33          8           0       -4.800907    0.173130   -1.734623
     34          8           0       -5.256937   -1.442611   -0.340873
 ---------------------------------------------------------------------

 SCF Done:  E(RHF) =  -669.534765159     A.U. after   15 cycles
 E2 =    -0.2092707046D+01 EUMP2 =    -0.67162747220446D+03

 The electronic state is 1-A.
 Alpha  occ. eigenvalues --  -20.60735 -20.60730 -15.85786 -11.31146 -11.27710
 Alpha  occ. eigenvalues --  -11.27691 -11.27400 -11.26720 -11.26641 -11.22787
 Alpha  occ. eigenvalues --  -11.22398 -11.22258 -11.22166 -11.22084 -11.21540
 Alpha  occ. eigenvalues --   -1.59810  -1.39364  -1.19311  -1.09290  -1.08704
 Alpha  occ. eigenvalues --   -1.04719  -1.04410  -0.96866  -0.95544  -0.87885
 Alpha  occ. eigenvalues --   -0.86104  -0.82383  -0.80515  -0.79051  -0.77428
 Alpha  occ. eigenvalues --   -0.72006  -0.71133  -0.70442  -0.65962  -0.64957
 Alpha  occ. eigenvalues --   -0.64741  -0.62210  -0.61654  -0.60232  -0.58443
 Alpha  occ. eigenvalues --   -0.56127  -0.55240  -0.53610  -0.53302  -0.53038
 Alpha  occ. eigenvalues --   -0.52723  -0.50765  -0.48830  -0.48761  -0.48730
 Alpha  occ. eigenvalues --   -0.47518  -0.46592  -0.46476  -0.44771  -0.44644
 Alpha  occ. eigenvalues --   -0.37269  -0.36310
 Alpha virt. eigenvalues --    0.05073   0.11249   0.16509   0.19920   0.22474
 Alpha virt. eigenvalues --    0.23935   0.25814   0.25871   0.26326   0.28187
 Alpha virt. eigenvalues --    0.29272   0.30453   0.30774   0.31153   0.32102

 Mulliken charges:
               1
     1  C   -0.297877
     2  C   -0.308270
     3  C   -0.484261
     4  H    0.152569
     5  H    0.152682
     6  H    0.153345
     7  H    0.150557
     8  H    0.156749
     9  H    0.165028
    10  H    0.154912
    11  C   -0.299404
    12  C   -0.300399
    13  C   -0.476251
    14  H    0.149493
    15  H    0.149971
    16  H    0.153083
    17  H    0.153824
    18  H    0.155841
    19  H    0.155283
    20  H    0.162451
    21  C   -0.175847
    22  C   -0.219452
    23  C   -0.171394
    24  C    0.158845
    25  C   -0.172745
    26  C   -0.225095
    27  H    0.229670
    28  H    0.223326
    29  H    0.275344
    30  H    0.275683
    31  H    0.235439
    32  N    0.487993
    33  O   -0.460500
    34  O   -0.460592
 Sum of Mulliken charges =  -0.00000

 Dipole moment (field-independent basis, Debye):
    X=              4.5839    Y=              1.0771    Z=              2.6089  Tot=              5.3831
 Quadrupole moment (field-independent basis, Debye-Ang):
   XX=           -123.0854   YY=            -93.3582   ZZ=            -92.8848
   XY=             -2.7385   XZ=             -9.5999   YZ=             -2.8877

 Normal termination of Gaussian 16 at Wed May  5 18:44:37 2021.
