 Gaussian 16, Revision A.03,
 Gaussian 16:  EM64L-G16RevA.03 25-Dec-2016

 -------------
 #p 6-31g* mp2
 -------------

 ------------------------------------------------------
 Input file generated by CHIRIPA (05-May-2021 14:55:21)
 ------------------------------------------------------
 Symbolic Z-matrix:
 Charge =  0 Multiplicity = 1

                         Standard orientation:
 ---------------------------------------------------------------------
 Center     Atomic      Atomic             Coordinates (Angstroms)
 Number     Number       Type             X           Y           Z
 ---------------------------------------------------------------------
      1          6           0       -1.919576    1.805766   -0.879652
      2          6           0       -1.388432    0.714067   -0.184956
      3          6           0       -2.214759   -0.335985    0.226289
      4          6           0       -3.573713   -0.261402   -0.075325
      5          6           0       -4.132798    0.812773   -0.765877
      6          6           0       -3.287652    1.851554   -1.167387
      7          1           0       -1.270355    2.617093   -1.195336
      8          1           0       -0.326345    0.675829    0.039885
      9          1           0       -1.829943   -1.193063    0.765503
     10          1           0       -5.195530    0.822664   -0.975453
     11          1           0       -3.702910    2.698131   -1.706750
     12          7           0       -4.458470   -1.367078    0.354889
     13          8           0       -5.652341   -1.277539    0.076876
     14          8           0       -3.941318   -2.302310    0.961957
     15          6           0        4.193015    0.816638    0.371237
     16          6           0        2.771225    0.935670    0.921084
     17          6           0        2.396431    2.372703    1.284761
     18          1           0        4.901136    1.204404    1.116318
     19          1           0        4.290469    1.457672   -0.515878
     20          1           0        2.676080    0.293537    1.806086
     21          1           0        2.066423    0.547398    0.174684
     22          1           0        2.463300    3.022393    0.406108
     23          1           0        3.076422    2.767091    2.046779
     24          1           0        1.376066    2.434788    1.675735
     25          6           0        4.582394   -0.613955    0.003112
     26          6           0        6.004183   -0.732988   -0.546736
     27          6           0        6.378978   -2.170021   -0.910412
     28          1           0        4.484940   -1.254990    0.890226
     29          1           0        3.874274   -1.001723   -0.741970
     30          1           0        6.708987   -0.344716    0.199664
     31          1           0        6.099329   -0.090855   -1.431738
     32          1           0        5.698987   -2.564409   -1.672430
     33          1           0        6.312109   -2.819712   -0.031760
     34          1           0        7.399343   -2.232106   -1.301386
 ---------------------------------------------------------------------

 SCF Done:  E(RHF) =  -669.535609399     A.U. after   15 cycles
 E2 =    -0.2091155974D+01 EUMP2 =    -0.67162676537268D+03

 The electronic state is 1-A.
 Alpha  occ. eigenvalues --  -20.60726 -20.60721 -15.85779 -11.31137 -11.27709
 Alpha  occ. eigenvalues --  -11.27694 -11.27442 -11.26722 -11.26670 -11.22691
 Alpha  occ. eigenvalues --  -11.22175 -11.22117 -11.22091 -11.21983 -11.21449
 Alpha  occ. eigenvalues --   -1.59802  -1.39355  -1.19307  -1.09176  -1.08703
 Alpha  occ. eigenvalues --   -1.04710  -1.04281  -0.96705  -0.95540  -0.87719
 Alpha  occ. eigenvalues --   -0.86109  -0.82373  -0.80377  -0.78952  -0.77420
 Alpha  occ. eigenvalues --   -0.71997  -0.71125  -0.70416  -0.65836  -0.64957
 Alpha  occ. eigenvalues --   -0.64722  -0.62135  -0.61614  -0.60090  -0.58309
 Alpha  occ. eigenvalues --   -0.55978  -0.55206  -0.53421  -0.53136  -0.53028
 Alpha  occ. eigenvalues --   -0.52789  -0.50641  -0.48772  -0.48753  -0.48656
 Alpha  occ. eigenvalues --   -0.47403  -0.46490  -0.46386  -0.44763  -0.44516
 Alpha  occ. eigenvalues --   -0.37290  -0.36311
 Alpha virt. eigenvalues --    0.05112   0.11299   0.16599   0.19537   0.22549
 Alpha virt. eigenvalues --    0.23776   0.25424   0.26264   0.26916   0.28235
 Alpha virt. eigenvalues --    0.29003   0.30097   0.30727   0.31087   0.32013

 Mulliken charges:
               1
     1  C   -0.173554
     2  C   -0.229036
     3  C   -0.173669
     4  C    0.158944
     5  C   -0.171286
     6  C   -0.218515
     7  H    0.225977
     8  H    0.238695
     9  H    0.276077
    10  H    0.275393
    11  H    0.223154
    12  N    0.488057
    13  O   -0.460689
    14  O   -0.460476
    15  C   -0.297470
    16  C   -0.305951
    17  C   -0.479514
    18  H    0.153048
    19  H    0.150106
    20  H    0.156656
    21  H    0.144327
    22  H    0.154182
    23  H    0.162020
    24  H    0.159030
    25  C   -0.299294
    26  C   -0.300228
    27  C   -0.476216
    28  H    0.151408
    29  H    0.149433
    30  H    0.153075
    31  H    0.152205
    32  H    0.155869
    33  H    0.156418
    34  H    0.161824
 Sum of Mulliken charges =  -0.00000

 Dipole moment (field-independent basis, Debye):
    X=              3.3608    Y=              3.8972    Z=             -1.4714  Tot=              5.3524
 Quadrupole moment (field-independent basis, Debye-Ang):
   XX=           -113.3236   YY=            -97.0893   ZZ=            -93.4960
   XY=            -16.6191   XZ=              7.7241   YZ=             -1.4171

 Normal termination of Gaussian 16 at Thu May  6 01:26:46 2021.
