 Gaussian 16, Revision A.03,
 Gaussian 16:  EM64L-G16RevA.03 25-Dec-2016

 -------------
 #p 6-31g* mp2
 -------------

 ------------------------------------------------------
 Input file generated by CHIRIPA (05-May-2021 14:55:19)
 ------------------------------------------------------
 Symbolic Z-matrix:
 Charge =  0 Multiplicity = 1

                         Standard orientation:
 ---------------------------------------------------------------------
 Center     Atomic      Atomic             Coordinates (Angstroms)
 Number     Number       Type             X           Y           Z
 ---------------------------------------------------------------------
      1          6           0       -5.329204    1.672765    0.182541
      2          6           0       -5.533531    0.298183    0.023489
      3          6           0       -4.446028   -0.571739   -0.099481
      4          6           0       -3.161998   -0.030526   -0.058927
      5          6           0       -2.925934    1.334324    0.098390
      6          6           0       -4.028351    2.185544    0.219419
      7          1           0       -6.179796    2.341277    0.277314
      8          1           0       -6.542677   -0.102852   -0.005503
      9          1           0       -4.575544   -1.640023   -0.223628
     10          1           0       -1.908232    1.704548    0.123576
     11          1           0       -3.866664    3.252629    0.342834
     12          7           0       -2.002813   -0.941574   -0.188083
     13          8           0       -0.881489   -0.439819   -0.149219
     14          8           0       -2.237517   -2.140158   -0.325733
     15          6           0        4.569080    0.472071   -0.292022
     16          6           0        5.846258    1.001867    0.360754
     17          6           0        6.388641    2.252872   -0.331056
     18          1           0        4.769970    0.250289   -1.349095
     19          1           0        3.804104    1.260746   -0.278019
     20          1           0        6.608152    0.211969    0.346767
     21          1           0        5.642355    1.222232    1.416443
     22          1           0        5.648523    3.059179   -0.304679
     23          1           0        6.619807    2.043176   -1.380432
     24          1           0        7.301808    2.614634    0.151762
     25          6           0        4.014717   -0.778312    0.388383
     26          6           0        2.737540   -1.308109   -0.264394
     27          6           0        2.195157   -2.559114    0.427416
     28          1           0        4.779693   -1.566988    0.374380
     29          1           0        3.813828   -0.556531    1.445455
     30          1           0        2.941442   -1.528474   -1.320082
     31          1           0        1.975646   -0.518211   -0.250406
     32          1           0        1.963991   -2.349418    1.476793
     33          1           0        2.935274   -3.365422    0.401040
     34          1           0        1.281990   -2.920876   -0.055402
 ---------------------------------------------------------------------

 SCF Done:  E(RHF) =  -669.536331263     A.U. after   15 cycles
 E2 =    -0.2091321862D+01 EUMP2 =    -0.67162765312488D+03

 The electronic state is 1-A.
 Alpha  occ. eigenvalues --  -20.61014 -20.61009 -15.86037 -11.31339 -11.27899
 Alpha  occ. eigenvalues --  -11.27893 -11.27630 -11.26900 -11.26890 -11.20928
 Alpha  occ. eigenvalues --  -11.20555 -11.20496 -11.20192 -11.19871 -11.19249
 Alpha  occ. eigenvalues --   -1.60062  -1.39621  -1.19503  -1.08911  -1.07361
 Alpha  occ. eigenvalues --   -1.04896  -1.02351  -0.95758  -0.94829  -0.86298
 Alpha  occ. eigenvalues --   -0.85863  -0.82594  -0.78500  -0.77650  -0.77075
 Alpha  occ. eigenvalues --   -0.72260  -0.71373  -0.70612  -0.65161  -0.64900
 Alpha  occ. eigenvalues --   -0.64004  -0.62244  -0.59752  -0.58278  -0.56386
 Alpha  occ. eigenvalues --   -0.55397  -0.54154  -0.53229  -0.52987  -0.51504
 Alpha  occ. eigenvalues --   -0.51269  -0.49010  -0.48972  -0.48829  -0.46785
 Alpha  occ. eigenvalues --   -0.45563  -0.45037  -0.44645  -0.44466  -0.42608
 Alpha  occ. eigenvalues --   -0.37481  -0.36496
 Alpha virt. eigenvalues --    0.04887   0.11159   0.16392   0.21279   0.23819
 Alpha virt. eigenvalues --    0.25537   0.27213   0.27607   0.28113   0.28627
 Alpha virt. eigenvalues --    0.29132   0.30856   0.32266   0.32514   0.32770

 Mulliken charges:
               1
     1  C   -0.170524
     2  C   -0.218596
     3  C   -0.170381
     4  C    0.157517
     5  C   -0.170618
     6  C   -0.218522
     7  H    0.226155
     8  H    0.223979
     9  H    0.276008
    10  H    0.275414
    11  H    0.223950
    12  N    0.494038
    13  O   -0.464397
    14  O   -0.459237
    15  C   -0.296790
    16  C   -0.298604
    17  C   -0.474874
    18  H    0.148046
    19  H    0.147682
    20  H    0.150896
    21  H    0.150244
    22  H    0.153220
    23  H    0.154381
    24  H    0.157826
    25  C   -0.297555
    26  C   -0.303613
    27  C   -0.473948
    28  H    0.145155
    29  H    0.146382
    30  H    0.145427
    31  H    0.171074
    32  H    0.149875
    33  H    0.143637
    34  H    0.176751
 Sum of Mulliken charges =  -0.00000

 Dipole moment (field-independent basis, Debye):
    X=             -4.5406    Y=              3.2092    Z=              0.4139  Tot=              5.5756
 Quadrupole moment (field-independent basis, Debye-Ang):
   XX=            -68.8644   YY=            -92.9102   ZZ=            -95.6223
   XY=             -8.1333   XZ=             -1.2132   YZ=              1.0341

 Normal termination of Gaussian 16 at Thu May  6 02:52:14 2021.
