 Gaussian 16, Revision A.03,
 Gaussian 16:  EM64L-G16RevA.03 25-Dec-2016

 -------------
 #p 6-31g* mp2
 -------------

 ------------------------------------------------------
 Input file generated by CHIRIPA (05-May-2021 14:57:26)
 ------------------------------------------------------
 Symbolic Z-matrix:
 Charge =  0 Multiplicity = 1

                         Standard orientation:
 ---------------------------------------------------------------------
 Center     Atomic      Atomic             Coordinates (Angstroms)
 Number     Number       Type             X           Y           Z
 ---------------------------------------------------------------------
      1          6           0        2.270580    2.658255    0.469510
      2          6           0        1.257248    1.706142    0.621694
      3          6           0        1.488703    0.365357    0.300335
      4          6           0        2.750947    0.010031   -0.172712
      5          6           0        3.780907    0.935271   -0.335209
      6          6           0        3.526961    2.270464   -0.007615
      7          1           0        2.082045    3.697637    0.721571
      8          1           0        0.280557    2.004435    0.992020
      9          1           0        0.722173   -0.392361    0.408558
     10          1           0        4.744306    0.607667   -0.706634
     11          1           0        4.315810    3.007725   -0.126809
     12          7           0        3.007884   -1.406438   -0.516221
     13          8           0        4.128546   -1.693941   -0.931064
     14          8           0        2.083743   -2.202343   -0.364115
     15          6           0       -1.384824   -1.607975    1.774921
     16          6           0       -1.892430   -0.357814    2.143640
     17          6           0       -2.627306    0.406868    1.232725
     18          6           0       -2.836579   -0.111569   -0.044271
     19          6           0       -2.343847   -1.353602   -0.441585
     20          6           0       -1.611751   -2.101010    0.485758
     21          1           0       -0.815034   -2.195290    2.488923
     22          1           0       -1.717750    0.027600    3.144134
     23          1           0       -3.031756    1.377818    1.491748
     24          1           0       -2.534370   -1.711279   -1.446167
     25          1           0       -1.218741   -3.071574    0.196637
     26          7           0       -3.613087    0.688823   -1.017313
     27          8           0       -3.783617    0.209688   -2.136235
     28          8           0       -4.036482    1.780147   -0.642634
 ---------------------------------------------------------------------

 SCF Done:  E(RHF) =  -868.338925049     A.U. after   16 cycles
 E2 =    -0.2603005681D+01 EUMP2 =    -0.87094193073051D+03

 The electronic state is 1-A.
 Alpha  occ. eigenvalues --  -20.61216 -20.61190 -20.61162 -20.61108 -15.86260
 Alpha  occ. eigenvalues --  -15.86182 -11.31741 -11.31295 -11.28354 -11.28159
 Alpha  occ. eigenvalues --  -11.27889 -11.27882 -11.27704 -11.27583 -11.27380
 Alpha  occ. eigenvalues --  -11.27084 -11.26848 -11.26781  -1.60279  -1.60209
 Alpha  occ. eigenvalues --   -1.39829  -1.39773  -1.19920  -1.19463  -1.09259
 Alpha  occ. eigenvalues --   -1.08914  -1.05281  -1.04828  -0.96070  -0.95780
 Alpha  occ. eigenvalues --   -0.86629  -0.86249  -0.82867  -0.82626  -0.77929
 Alpha  occ. eigenvalues --   -0.77699  -0.72467  -0.72421  -0.71611  -0.71524
 Alpha  occ. eigenvalues --   -0.70900  -0.70595  -0.65498  -0.65190  -0.65106
 Alpha  occ. eigenvalues --   -0.64855  -0.62569  -0.62260  -0.55675  -0.55434
 Alpha  occ. eigenvalues --   -0.53640  -0.53278  -0.53191  -0.52772  -0.49239
 Alpha  occ. eigenvalues --   -0.49220  -0.49171  -0.49136  -0.45234  -0.45210
 Alpha  occ. eigenvalues --   -0.37900  -0.37459  -0.36926  -0.36366
 Alpha virt. eigenvalues --    0.04463   0.04881   0.10690   0.11209   0.15990
 Alpha virt. eigenvalues --    0.16378   0.20864   0.21743   0.26511   0.27668
 Alpha virt. eigenvalues --    0.28098   0.28477   0.30810   0.31143   0.32291

 Mulliken charges:
               1
     1  C   -0.169478
     2  C   -0.225939
     3  C   -0.179445
     4  C    0.154347
     5  C   -0.169628
     6  C   -0.219555
     7  H    0.226602
     8  H    0.222611
     9  H    0.290782
    10  H    0.275227
    11  H    0.223848
    12  N    0.488234
    13  O   -0.458203
    14  O   -0.470128
    15  C   -0.185532
    16  C   -0.220799
    17  C   -0.181157
    18  C    0.159678
    19  C   -0.171539
    20  C   -0.215930
    21  H    0.234371
    22  H    0.225154
    23  H    0.274720
    24  H    0.280809
    25  H    0.240782
    26  N    0.488192
    27  O   -0.456177
    28  O   -0.461848
 Sum of Mulliken charges =  -0.00000

 Dipole moment (field-independent basis, Debye):
    X=              1.6691    Y=              1.9092    Z=              4.5542  Tot=              5.2126
 Quadrupole moment (field-independent basis, Debye-Ang):
   XX=           -121.6248   YY=           -101.4372   ZZ=           -103.8628
   XY=             22.9948   XZ=             -8.0952   YZ=              1.1771

 Normal termination of Gaussian 16 at Thu May  6 21:23:42 2021.
