 Gaussian 16, Revision A.03,
 Gaussian 16:  EM64L-G16RevA.03 25-Dec-2016

 -------------
 #p 6-31g* mp2
 -------------

 ------------------------------------------------------
 Input file generated by CHIRIPA (05-May-2021 14:55:20)
 ------------------------------------------------------
 Symbolic Z-matrix:
 Charge =  0 Multiplicity = 1

                         Standard orientation:
 ---------------------------------------------------------------------
 Center     Atomic      Atomic             Coordinates (Angstroms)
 Number     Number       Type             X           Y           Z
 ---------------------------------------------------------------------
      1          6           0       -4.841388   -1.554436   -0.061818
      2          6           0       -3.680149   -1.726187    0.698806
      3          6           0       -2.738424   -0.697759    0.798983
      4          6           0       -2.991066    0.494622    0.122455
      5          6           0       -4.138443    0.696168   -0.643179
      6          6           0       -5.066432   -0.345937   -0.729206
      7          1           0       -5.567608   -2.358656   -0.134141
      8          1           0       -3.502748   -2.663643    1.218180
      9          1           0       -1.830966   -0.803875    1.380944
     10          1           0       -4.287582    1.642051   -1.149619
     11          1           0       -5.967378   -0.209739   -1.320637
     12          7           0       -2.001374    1.590613    0.221018
     13          8           0       -2.247341    2.631495   -0.384542
     14          8           0       -0.998427    1.388016    0.901965
     15          6           0        4.583827    0.044328    0.156741
     16          6           0        5.980601   -0.280158   -0.374029
     17          6           0        7.063122    0.621017    0.220802
     18          1           0        4.349901    1.094983   -0.063139
     19          1           0        4.583172   -0.053610    1.251183
     20          1           0        5.978262   -0.182984   -1.467267
     21          1           0        6.211153   -1.330217   -0.153029
     22          1           0        7.094546    0.517763    1.310275
     23          1           0        6.860332    1.671514   -0.011429
     24          1           0        8.053674    0.371761   -0.172312
     25          6           0        3.490871   -0.848142   -0.428641
     26          6           0        2.094097   -0.523654    0.102130
     27          6           0        1.011575   -1.424830   -0.492701
     28          1           0        3.491525   -0.750204   -1.523082
     29          1           0        3.724797   -1.898796   -0.208761
     30          1           0        1.863546    0.526403   -0.118870
     31          1           0        2.096437   -0.620830    1.195367
     32          1           0        1.214366   -2.475328   -0.260471
     33          1           0        0.980152   -1.321576   -1.582175
     34          1           0        0.021023   -1.175574   -0.099587
 ---------------------------------------------------------------------

 SCF Done:  E(RHF) =  -669.535371929     A.U. after   15 cycles
 E2 =    -0.2092574781D+01 EUMP2 =    -0.67162794670982D+03

 The electronic state is 1-A.
 Alpha  occ. eigenvalues --  -20.60923 -20.60907 -15.85939 -11.31273 -11.27830
 Alpha  occ. eigenvalues --  -11.27824 -11.27566 -11.26843 -11.26833 -11.21135
 Alpha  occ. eigenvalues --  -11.20808 -11.20758 -11.20707 -11.20649 -11.20556
 Alpha  occ. eigenvalues --   -1.59973  -1.39530  -1.19442  -1.08841  -1.07824
 Alpha  occ. eigenvalues --   -1.04841  -1.02948  -0.95698  -0.95438  -0.86502
 Alpha  occ. eigenvalues --   -0.86223  -0.82516  -0.79002  -0.77628  -0.77554
 Alpha  occ. eigenvalues --   -0.72164  -0.71290  -0.70559  -0.65097  -0.64854
 Alpha  occ. eigenvalues --   -0.64457  -0.62227  -0.60349  -0.58802  -0.57035
 Alpha  occ. eigenvalues --   -0.55340  -0.54755  -0.53205  -0.52969  -0.52094
 Alpha  occ. eigenvalues --   -0.51857  -0.49403  -0.48930  -0.48919  -0.47312
 Alpha  occ. eigenvalues --   -0.46029  -0.45175  -0.45114  -0.44837  -0.43215
 Alpha  occ. eigenvalues --   -0.37408  -0.36414
 Alpha virt. eigenvalues --    0.04921   0.11102   0.16426   0.21165   0.23423
 Alpha virt. eigenvalues --    0.24616   0.27028   0.27275   0.27779   0.28237
 Alpha virt. eigenvalues --    0.29041   0.30727   0.31676   0.31926   0.32393

 Mulliken charges:
               1
     1  C   -0.170618
     2  C   -0.219204
     3  C   -0.171473
     4  C    0.160286
     5  C   -0.170930
     6  C   -0.218160
     7  H    0.226006
     8  H    0.224267
     9  H    0.276605
    10  H    0.275731
    11  H    0.223781
    12  N    0.488880
    13  O   -0.459204
    14  O   -0.460110
    15  C   -0.298085
    16  C   -0.299125
    17  C   -0.475438
    18  H    0.152989
    19  H    0.149005
    20  H    0.151110
    21  H    0.149918
    22  H    0.154665
    23  H    0.156060
    24  H    0.158447
    25  C   -0.299008
    26  C   -0.296928
    27  C   -0.481053
    28  H    0.147729
    29  H    0.145124
    30  H    0.168531
    31  H    0.149894
    32  H    0.147796
    33  H    0.153670
    34  H    0.158841
 Sum of Mulliken charges =  -0.00000

 Dipole moment (field-independent basis, Debye):
    X=             -3.6716    Y=             -3.6835    Z=             -0.3155  Tot=              5.2104
 Quadrupole moment (field-independent basis, Debye-Ang):
   XX=            -73.8348   YY=            -97.5203   ZZ=            -93.2750
   XY=              7.9875   XZ=              2.5249   YZ=             -3.4255

 Normal termination of Gaussian 16 at Thu May  6 09:17:59 2021.
