 Gaussian 16, Revision A.03,
 Gaussian 16:  EM64L-G16RevA.03 25-Dec-2016

 -------------
 #p 6-31g* mp2
 -------------

 ------------------------------------------------------
 Input file generated by CHIRIPA (05-May-2021 14:57:27)
 ------------------------------------------------------
 Symbolic Z-matrix:
 Charge =  0 Multiplicity = 1

                         Standard orientation:
 ---------------------------------------------------------------------
 Center     Atomic      Atomic             Coordinates (Angstroms)
 Number     Number       Type             X           Y           Z
 ---------------------------------------------------------------------
      1          6           0        1.600514    2.309452    0.100182
      2          6           0        1.647299    1.463921   -1.013106
      3          6           0        2.561373    0.407324   -1.064289
      4          6           0        3.417800    0.224415    0.020315
      5          6           0        3.395467    1.049738    1.143539
      6          6           0        2.473209    2.100031    1.173060
      7          1           0        0.887260    3.127793    0.131528
      8          1           0        0.970760    1.624179   -1.847766
      9          1           0        2.619016   -0.262346   -1.913781
     10          1           0        4.082603    0.864897    1.960299
     11          1           0        2.439121    2.755100    2.038951
     12          7           0        4.389822   -0.890820   -0.022404
     13          8           0        5.133589   -1.030784    0.946026
     14          8           0        4.389520   -1.603861   -1.023508
     15          6           0       -5.418153    0.880689    0.164080
     16          6           0       -4.378444    1.371561   -0.632520
     17          6           0       -3.176951    0.665804   -0.745959
     18          6           0       -3.048725   -0.532825   -0.045863
     19          6           0       -4.066251   -1.047942    0.755752
     20          6           0       -5.259019   -0.325370    0.854456
     21          1           0       -6.348114    1.435469    0.246478
     22          1           0       -4.499226    2.307925   -1.169809
     23          1           0       -2.355841    1.022838   -1.355651
     24          1           0       -3.916297   -1.984276    1.279403
     25          1           0       -6.064772   -0.708997    1.473840
     26          7           0       -1.781376   -1.288880   -0.158155
     27          8           0       -1.693359   -2.342409    0.468714
     28          8           0       -0.900042   -0.813629   -0.870915
 ---------------------------------------------------------------------

 SCF Done:  E(RHF) =  -868.337383828     A.U. after   16 cycles
 E2 =    -0.2600402912D+01 EUMP2 =    -0.87093778674067D+03

 The electronic state is 1-A.
 Alpha  occ. eigenvalues --  -20.61270 -20.61256 -20.59869 -20.59848 -15.86308
 Alpha  occ. eigenvalues --  -15.84912 -11.31717 -11.30212 -11.28349 -11.28237
 Alpha  occ. eigenvalues --  -11.28003 -11.27329 -11.27258 -11.26831 -11.26711
 Alpha  occ. eigenvalues --  -11.26629 -11.25912 -11.25805  -1.60324  -1.58933
 Alpha  occ. eigenvalues --   -1.39885  -1.38489  -1.19883  -1.18394  -1.09263
 Alpha  occ. eigenvalues --   -1.07838  -1.05296  -1.03787  -0.96099  -0.94675
 Alpha  occ. eigenvalues --   -0.86689  -0.85225  -0.82941  -0.81503  -0.77991
 Alpha  occ. eigenvalues --   -0.76534  -0.72543  -0.71643  -0.71144  -0.70989
 Alpha  occ. eigenvalues --   -0.70243  -0.69588  -0.65539  -0.65297  -0.64076
 Alpha  occ. eigenvalues --   -0.63848  -0.62652  -0.61152  -0.55776  -0.54407
 Alpha  occ. eigenvalues --   -0.53616  -0.53390  -0.52109  -0.51927  -0.49304
 Alpha  occ. eigenvalues --   -0.49263  -0.47901  -0.47887  -0.45278  -0.43909
 Alpha  occ. eigenvalues --   -0.37851  -0.36903  -0.36418  -0.35291
 Alpha virt. eigenvalues --    0.04549   0.06012   0.10752   0.12276   0.16044
 Alpha virt. eigenvalues --    0.17499   0.20445   0.22076   0.25990   0.27222
 Alpha virt. eigenvalues --    0.28701   0.29033   0.30441   0.31332   0.32523

 Mulliken charges:
               1
     1  C   -0.174517
     2  C   -0.203127
     3  C   -0.158844
     4  C    0.157767
     5  C   -0.171919
     6  C   -0.218834
     7  H    0.216629
     8  H    0.218649
     9  H    0.277482
    10  H    0.272531
    11  H    0.218318
    12  N    0.488573
    13  O   -0.464078
    14  O   -0.459295
    15  C   -0.170746
    16  C   -0.218441
    17  C   -0.171070
    18  C    0.159634
    19  C   -0.170462
    20  C   -0.218197
    21  H    0.226980
    22  H    0.222659
    23  H    0.267922
    24  H    0.277836
    25  H    0.225501
    26  N    0.490582
    27  O   -0.455222
    28  O   -0.466311
 Sum of Mulliken charges =  -0.00000

 Dipole moment (field-independent basis, Debye):
    X=             -8.1275    Y=              6.3190    Z=              0.4848  Tot=             10.3064
 Quadrupole moment (field-independent basis, Debye-Ang):
   XX=           -100.9658   YY=           -104.5577   ZZ=            -99.6620
   XY=              8.6318   XZ=             -0.7631   YZ=             -1.4973

 Normal termination of Gaussian 16 at Fri May  7 02:02:20 2021.
