 Gaussian 16, Revision A.03,
 Gaussian 16:  EM64L-G16RevA.03 25-Dec-2016

 -------------
 #p 6-31g* mp2
 -------------

 ------------------------------------------------------
 Input file generated by CHIRIPA (05-May-2021 14:55:24)
 ------------------------------------------------------
 Symbolic Z-matrix:
 Charge =  0 Multiplicity = 1

                         Standard orientation:
 ---------------------------------------------------------------------
 Center     Atomic      Atomic             Coordinates (Angstroms)
 Number     Number       Type             X           Y           Z
 ---------------------------------------------------------------------
      1          6           0        0.751397   -1.507306    1.252840
      2          6           0        1.792271   -2.248087    0.683326
      3          6           0        2.873954   -1.602589    0.076826
      4          6           0        2.882484   -0.208727    0.057662
      5          6           0        1.860514    0.557198    0.616434
      6          6           0        0.788775   -0.109492    1.217639
      7          1           0       -0.085017   -2.016977    1.721927
      8          1           0        1.765898   -3.333758    0.709192
      9          1           0        3.693068   -2.151488   -0.371705
     10          1           0        1.914784    1.638294    0.575146
     11          1           0       -0.018186    0.468385    1.659132
     12          7           0        4.022350    0.485851   -0.581609
     13          8           0        4.006242    1.714819   -0.585403
     14          8           0        4.910300   -0.211859   -1.066771
     15          6           0       -4.029875   -0.078676   -0.269628
     16          6           0       -3.581729   -1.512841   -0.553037
     17          6           0       -4.754886   -2.486122   -0.672292
     18          1           0       -4.618055   -0.061635    0.658111
     19          1           0       -4.702718    0.253242   -1.072440
     20          1           0       -2.908835   -1.841471    0.249354
     21          1           0       -2.994386   -1.526440   -1.480107
     22          1           0       -5.423897   -2.185328   -1.485034
     23          1           0       -5.337858   -2.502148    0.254254
     24          1           0       -4.411829   -3.505486   -0.874945
     25          6           0       -2.868354    0.906073   -0.147708
     26          6           0       -3.316499    2.340238    0.135701
     27          6           0       -2.143342    3.313520    0.254956
     28          1           0       -2.195510    0.574154    0.655104
     29          1           0       -2.280174    0.889032   -1.075447
     30          1           0       -3.903842    2.353837    1.062771
     31          1           0       -3.989393    2.668867   -0.666690
     32          1           0       -1.560370    3.329545   -0.671590
     33          1           0       -1.474332    3.012725    1.067698
     34          1           0       -2.486400    4.332884    0.457608
 ---------------------------------------------------------------------

 SCF Done:  E(RHF) =  -669.535174136     A.U. after   15 cycles
 E2 =    -0.2092154512D+01 EUMP2 =    -0.67162732864739D+03

 The electronic state is 1-A.
 Alpha  occ. eigenvalues --  -20.60730 -20.60725 -15.85783 -11.31145 -11.27711
 Alpha  occ. eigenvalues --  -11.27695 -11.27458 -11.26732 -11.26702 -11.22363
 Alpha  occ. eigenvalues --  -11.22295 -11.22179 -11.22082 -11.21801 -11.21709
 Alpha  occ. eigenvalues --   -1.59806  -1.39360  -1.19315  -1.09179  -1.08712
 Alpha  occ. eigenvalues --   -1.04718  -1.04246  -0.96690  -0.95548  -0.87704
 Alpha  occ. eigenvalues --   -0.86122  -0.82383  -0.80305  -0.79010  -0.77421
 Alpha  occ. eigenvalues --   -0.72002  -0.71129  -0.70426  -0.65862  -0.64968
 Alpha  occ. eigenvalues --   -0.64705  -0.62098  -0.61620  -0.60050  -0.58302
 Alpha  occ. eigenvalues --   -0.55989  -0.55224  -0.53369  -0.53164  -0.53021
 Alpha  occ. eigenvalues --   -0.52804  -0.50636  -0.48777  -0.48757  -0.48605
 Alpha  occ. eigenvalues --   -0.47340  -0.46520  -0.46447  -0.44766  -0.44501
 Alpha  occ. eigenvalues --   -0.37283  -0.36299
 Alpha virt. eigenvalues --    0.05093   0.11251   0.16531   0.19045   0.22494
 Alpha virt. eigenvalues --    0.22966   0.25171   0.26135   0.26478   0.28025
 Alpha virt. eigenvalues --    0.29505   0.30321   0.31156   0.31442   0.32017

 Mulliken charges:
               1
     1  C   -0.171769
     2  C   -0.218533
     3  C   -0.171151
     4  C    0.158546
     5  C   -0.172621
     6  C   -0.217422
     7  H    0.225721
     8  H    0.223258
     9  H    0.275394
    10  H    0.275985
    11  H    0.226076
    12  N    0.488019
    13  O   -0.460377
    14  O   -0.460652
    15  C   -0.298930
    16  C   -0.298446
    17  C   -0.476162
    18  H    0.149695
    19  H    0.153202
    20  H    0.142771
    21  H    0.155739
    22  H    0.158129
    23  H    0.155444
    24  H    0.160627
    25  C   -0.299615
    26  C   -0.300638
    27  C   -0.476244
    28  H    0.139826
    29  H    0.154926
    30  H    0.152274
    31  H    0.155921
    32  H    0.159839
    33  H    0.146022
    34  H    0.165146
 Sum of Mulliken charges =  -0.00000

 Dipole moment (field-independent basis, Debye):
    X=             -4.1706    Y=             -2.3852    Z=              2.1160  Tot=              5.2498
 Quadrupole moment (field-independent basis, Debye-Ang):
   XX=           -117.7280   YY=            -90.2932   ZZ=            -94.0342
   XY=             -9.1749   XZ=              6.0857   YZ=              0.1267

 Normal termination of Gaussian 16 at Thu May  6 14:20:42 2021.
