 Gaussian 16, Revision A.03,
 Gaussian 16:  EM64L-G16RevA.03 25-Dec-2016

 -------------
 #p 6-31g* mp2
 -------------

 ------------------------------------------------------
 Input file generated by CHIRIPA (05-May-2021 14:53:12)
 ------------------------------------------------------
 Symbolic Z-matrix:
 Charge =  0 Multiplicity = 1

                         Standard orientation:
 ---------------------------------------------------------------------
 Center     Atomic      Atomic             Coordinates (Angstroms)
 Number     Number       Type             X           Y           Z
 ---------------------------------------------------------------------
      1          6           0       -2.992420    0.947047   -0.459625
      2          6           0       -1.535630    1.242591   -0.817955
      3          6           0       -1.295490    2.715847   -1.149083
      4          1           0       -3.637304    1.245892   -1.297337
      5          1           0       -3.285297    1.568952    0.397610
      6          1           0       -1.245170    0.619305   -1.673387
      7          1           0       -0.894123    0.942830    0.020631
      8          1           0       -1.558227    3.350150   -0.296306
      9          1           0       -1.911269    3.024787   -1.999949
     10          1           0       -0.247617    2.904779   -1.402314
     11          6           0       -3.248289   -0.521635   -0.126111
     12          6           0       -4.705079   -0.817180    0.232219
     13          6           0       -4.945219   -2.290435    0.563347
     14          1           0       -2.955412   -1.143541   -0.983346
     15          1           0       -2.603406   -0.820481    0.711601
     16          1           0       -5.346587   -0.517419   -0.606367
     17          1           0       -4.995540   -0.193894    1.087651
     18          1           0       -4.329440   -2.599376    1.414213
     19          1           0       -4.682482   -2.924739   -0.289430
     20          1           0       -5.993093   -2.479368    0.816578
     21          6           0        3.262540   -2.034823   -1.252362
     22          6           0        3.060999   -2.261019    0.113192
     23          6           0        2.604281   -1.233008    0.943343
     24          6           0        2.358042    0.014477    0.371996
     25          6           0        2.549180    0.271012   -0.984819
     26          6           0        3.006439   -0.771757   -1.796050
     27          1           0        3.617540   -2.839137   -1.889895
     28          1           0        3.259066   -3.240920    0.538170
     29          1           0        2.439727   -1.380618    2.003792
     30          1           0        2.343041    1.258486   -1.379556
     31          1           0        3.162065   -0.593207   -2.856214
     32          7           0        1.874249    1.110598    1.240826
     33          8           0        1.664653    2.200634    0.713068
     34          8           0        1.713807    0.858945    2.433121
 ---------------------------------------------------------------------

 SCF Done:  E(RHF) =  -669.535657337     A.U. after   15 cycles
 E2 =    -0.2092843581D+01 EUMP2 =    -0.67162850091833D+03

 The electronic state is 1-A.
 Alpha  occ. eigenvalues --  -20.60919 -20.60905 -15.85930 -11.31243 -11.27813
 Alpha  occ. eigenvalues --  -11.27808 -11.27547 -11.26816 -11.26806 -11.21330
 Alpha  occ. eigenvalues --  -11.21054 -11.21038 -11.20892 -11.20890 -11.20210
 Alpha  occ. eigenvalues --   -1.59977  -1.39532  -1.19414  -1.08823  -1.08011
 Alpha  occ. eigenvalues --   -1.04810  -1.03070  -0.95681  -0.95490  -0.86521
 Alpha  occ. eigenvalues --   -0.86212  -0.82503  -0.79164  -0.77845  -0.77556
 Alpha  occ. eigenvalues --   -0.72168  -0.71315  -0.70528  -0.65076  -0.64818
 Alpha  occ. eigenvalues --   -0.64630  -0.62166  -0.60454  -0.58891  -0.57117
 Alpha  occ. eigenvalues --   -0.55318  -0.54784  -0.53137  -0.52908  -0.52184
 Alpha  occ. eigenvalues --   -0.51938  -0.49446  -0.48921  -0.48915  -0.47470
 Alpha  occ. eigenvalues --   -0.46213  -0.45418  -0.45322  -0.44808  -0.43325
 Alpha  occ. eigenvalues --   -0.37384  -0.36402
 Alpha virt. eigenvalues --    0.04944   0.11209   0.16426   0.21081   0.23245
 Alpha virt. eigenvalues --    0.24343   0.26699   0.26940   0.27635   0.27866
 Alpha virt. eigenvalues --    0.28984   0.30473   0.31510   0.31765   0.32074

 Mulliken charges:
               1
     1  C   -0.298121
     2  C   -0.300421
     3  C   -0.471972
     4  H    0.147358
     5  H    0.153021
     6  H    0.143279
     7  H    0.153114
     8  H    0.161843
     9  H    0.146547
    10  H    0.164843
    11  C   -0.298052
    12  C   -0.299377
    13  C   -0.475432
    14  H    0.145979
    15  H    0.150453
    16  H    0.150987
    17  H    0.153493
    18  H    0.155014
    19  H    0.153105
    20  H    0.159654
    21  C   -0.170373
    22  C   -0.218495
    23  C   -0.170907
    24  C    0.156765
    25  C   -0.169578
    26  C   -0.219108
    27  H    0.225832
    28  H    0.223660
    29  H    0.275560
    30  H    0.276387
    31  H    0.223730
    32  N    0.489092
    33  O   -0.458431
    34  O   -0.459447
 Sum of Mulliken charges =  -0.00000

 Dipole moment (field-independent basis, Debye):
    X=              1.8482    Y=             -3.7776    Z=             -2.9481  Tot=              5.1358
 Quadrupole moment (field-independent basis, Debye-Ang):
   XX=            -87.8919   YY=            -94.2162   ZZ=            -93.4644
   XY=             -9.8152   XZ=             -6.6276   YZ=             -3.5898

 Normal termination of Gaussian 16 at Wed May  5 17:00:41 2021.
