 Gaussian 16, Revision A.03,
 Gaussian 16:  EM64L-G16RevA.03 25-Dec-2016

 -------------
 #p 6-31g* mp2
 -------------

 ------------------------------------------------------
 Input file generated by CHIRIPA (05-May-2021 14:55:24)
 ------------------------------------------------------
 Symbolic Z-matrix:
 Charge =  0 Multiplicity = 1

                         Standard orientation:
 ---------------------------------------------------------------------
 Center     Atomic      Atomic             Coordinates (Angstroms)
 Number     Number       Type             X           Y           Z
 ---------------------------------------------------------------------
      1          6           0       -0.735065   -0.584571    0.199984
      2          6           0       -1.301544    0.349171    1.073911
      3          6           0       -2.658513    0.673434    0.984269
      4          6           0       -3.423081    0.042026    0.004448
      5          6           0       -2.887842   -0.892377   -0.880821
      6          6           0       -1.528623   -1.201278   -0.772878
      7          1           0        0.319935   -0.830500    0.276728
      8          1           0       -0.687668    0.829682    1.830423
      9          1           0       -3.122790    1.392694    1.647993
     10          1           0       -3.525195   -1.354838   -1.624682
     11          1           0       -1.091385   -1.926812   -1.452927
     12          7           0       -4.860834    0.377177   -0.100140
     13          8           0       -5.512967   -0.193056   -0.972031
     14          8           0       -5.308389    1.203756    0.691756
     15          6           0        3.775430   -0.562338    0.367480
     16          6           0        4.103052   -1.934925   -0.221293
     17          6           0        3.490270   -3.083630    0.580437
     18          1           0        4.134890   -0.520079    1.404759
     19          1           0        2.684244   -0.440130    0.409592
     20          1           0        5.193309   -2.053954   -0.263564
     21          1           0        3.742941   -1.973854   -1.257353
     22          1           0        2.399713   -2.992582    0.612034
     23          1           0        3.858323   -3.073137    1.611469
     24          1           0        3.737000   -4.055619    0.142007
     25          6           0        4.381042    0.596159   -0.422993
     26          6           0        4.053420    1.968745    0.165779
     27          6           0        4.666202    3.117450   -0.635949
     28          1           0        5.472228    0.473949   -0.465105
     29          1           0        4.021582    0.553899   -1.460273
     30          1           0        4.413530    2.007674    1.201839
     31          1           0        2.963163    2.087774    0.208052
     32          1           0        4.298149    3.106957   -1.666983
     33          1           0        5.756759    3.026402   -0.667548
     34          1           0        4.419472    4.089439   -0.197520
 ---------------------------------------------------------------------

 SCF Done:  E(RHF) =  -669.535473494     A.U. after   15 cycles
 E2 =    -0.2091351730D+01 EUMP2 =    -0.67162682522378D+03

 The electronic state is 1-A.
 Alpha  occ. eigenvalues --  -20.60751 -20.60746 -15.85805 -11.31174 -11.27742
 Alpha  occ. eigenvalues --  -11.27738 -11.27468 -11.26760 -11.26748 -11.22628
 Alpha  occ. eigenvalues --  -11.22545 -11.22411 -11.22264 -11.22112 -11.21698
 Alpha  occ. eigenvalues --   -1.59827  -1.39380  -1.19345  -1.09409  -1.08740
 Alpha  occ. eigenvalues --   -1.04749  -1.04431  -0.96882  -0.95577  -0.87891
 Alpha  occ. eigenvalues --   -0.86146  -0.82411  -0.80500  -0.79230  -0.77453
 Alpha  occ. eigenvalues --   -0.72023  -0.71150  -0.70483  -0.66047  -0.64997
 Alpha  occ. eigenvalues --   -0.64749  -0.62097  -0.61829  -0.60252  -0.58489
 Alpha  occ. eigenvalues --   -0.56198  -0.55267  -0.53536  -0.53297  -0.53077
 Alpha  occ. eigenvalues --   -0.52840  -0.50826  -0.48820  -0.48778  -0.48771
 Alpha  occ. eigenvalues --   -0.47542  -0.46749  -0.46674  -0.44785  -0.44704
 Alpha  occ. eigenvalues --   -0.37325  -0.36354
 Alpha virt. eigenvalues --    0.05072   0.11295   0.16535   0.18424   0.22732
 Alpha virt. eigenvalues --    0.23366   0.24968   0.26260   0.26731   0.27581
 Alpha virt. eigenvalues --    0.29569   0.30221   0.30922   0.31232   0.31801

 Mulliken charges:
               1
     1  C   -0.179963
     2  C   -0.222127
     3  C   -0.170704
     4  C    0.158350
     5  C   -0.170602
     6  C   -0.221172
     7  H    0.239383
     8  H    0.223947
     9  H    0.275624
    10  H    0.275526
    11  H    0.223786
    12  N    0.487964
    13  O   -0.460448
    14  O   -0.460432
    15  C   -0.303264
    16  C   -0.300830
    17  C   -0.476304
    18  H    0.153469
    19  H    0.140274
    20  H    0.157064
    21  H    0.151722
    22  H    0.147549
    23  H    0.158835
    24  H    0.164791
    25  C   -0.298233
    26  C   -0.300013
    27  C   -0.476217
    28  H    0.153331
    29  H    0.150938
    30  H    0.152991
    31  H    0.148633
    32  H    0.156751
    33  H    0.156938
    34  H    0.162444
 Sum of Mulliken charges =  -0.00000

 Dipole moment (field-independent basis, Debye):
    X=              5.3263    Y=             -1.1644    Z=              0.3513  Tot=              5.4634
 Quadrupole moment (field-independent basis, Debye-Ang):
   XX=           -128.2644   YY=            -93.8034   ZZ=            -92.0456
   XY=              4.1671   XZ=             -0.1999   YZ=              3.2572

 Normal termination of Gaussian 16 at Thu May  6 12:40:46 2021.
