 Gaussian 16, Revision A.03,
 Gaussian 16:  EM64L-G16RevA.03 25-Dec-2016

 -------------
 #p 6-31g* mp2
 -------------

 ------------------------------------------------------
 Input file generated by CHIRIPA (05-May-2021 14:55:25)
 ------------------------------------------------------
 Symbolic Z-matrix:
 Charge =  0 Multiplicity = 1

                         Standard orientation:
 ---------------------------------------------------------------------
 Center     Atomic      Atomic             Coordinates (Angstroms)
 Number     Number       Type             X           Y           Z
 ---------------------------------------------------------------------
      1          6           0        3.726501    0.879036    0.512618
      2          6           0        3.505184    0.429793   -0.793414
      3          6           0        2.498623   -0.502360   -1.062626
      4          6           0        1.728688   -0.966278    0.002864
      5          6           0        1.924808   -0.537882    1.314849
      6          6           0        2.936999    0.394619    1.560734
      7          1           0        4.510608    1.603290    0.712688
      8          1           0        4.116780    0.804267   -1.609358
      9          1           0        2.305771   -0.867088   -2.064225
     10          1           0        1.298896   -0.929420    2.107536
     11          1           0        3.106621    0.741732    2.576010
     12          7           0        0.660107   -1.953290   -0.269790
     13          8           0       -0.004494   -2.346601    0.686374
     14          8           0        0.507389   -2.314912   -1.434498
     15          6           0       -2.727651    0.348216   -0.252697
     16          6           0       -3.947988   -0.047440    0.579299
     17          6           0       -4.515815   -1.411044    0.184393
     18          1           0       -3.004359    0.358601   -1.315838
     19          1           0       -1.950549   -0.420346   -0.139468
     20          1           0       -4.722033    0.722332    0.465629
     21          1           0       -3.668392   -0.056699    1.640598
     22          1           0       -3.762368   -2.194551    0.314917
     23          1           0       -4.821996   -1.411095   -0.866728
     24          1           0       -5.387520   -1.674083    0.791684
     25          6           0       -2.148646    1.709015    0.130326
     26          6           0       -0.928308    2.104671   -0.701670
     27          6           0       -0.360481    3.468275   -0.306764
     28          1           0       -2.925747    2.477577    0.017096
     29          1           0       -1.871937    1.698631    1.193467
     30          1           0       -1.207904    2.113929   -1.762969
     31          1           0       -0.154263    1.334899   -0.588000
     32          1           0       -0.054300    3.468326    0.744357
     33          1           0       -1.113928    4.251782   -0.437288
     34          1           0        0.511223    3.731314   -0.914055
 ---------------------------------------------------------------------

 SCF Done:  E(RHF) =  -669.535771820     A.U. after   15 cycles
 E2 =    -0.2094127048D+01 EUMP2 =    -0.67162989886879D+03

 The electronic state is 1-A.
 Alpha  occ. eigenvalues --  -20.61004 -20.60992 -15.86013 -11.31327 -11.27902
 Alpha  occ. eigenvalues --  -11.27893 -11.27631 -11.26902 -11.26891 -11.21340
 Alpha  occ. eigenvalues --  -11.21040 -11.20951 -11.20809 -11.20546 -11.20051
 Alpha  occ. eigenvalues --   -1.60062  -1.39615  -1.19514  -1.08913  -1.07875
 Alpha  occ. eigenvalues --   -1.04899  -1.02982  -0.95754  -0.95432  -0.86449
 Alpha  occ. eigenvalues --   -0.86299  -0.82587  -0.79099  -0.77651  -0.77636
 Alpha  occ. eigenvalues --   -0.72241  -0.71401  -0.70607  -0.65160  -0.64897
 Alpha  occ. eigenvalues --   -0.64496  -0.62244  -0.60397  -0.58860  -0.57035
 Alpha  occ. eigenvalues --   -0.55398  -0.54725  -0.53248  -0.52987  -0.52161
 Alpha  occ. eigenvalues --   -0.51838  -0.49360  -0.49016  -0.49001  -0.47391
 Alpha  occ. eigenvalues --   -0.46137  -0.45351  -0.45174  -0.44683  -0.43229
 Alpha  occ. eigenvalues --   -0.37442  -0.36494
 Alpha virt. eigenvalues --    0.04849   0.11140   0.16324   0.21287   0.23179
 Alpha virt. eigenvalues --    0.24886   0.26784   0.27208   0.27755   0.28230
 Alpha virt. eigenvalues --    0.28527   0.31012   0.31841   0.32063   0.32320

 Mulliken charges:
               1
     1  C   -0.170117
     2  C   -0.217198
     3  C   -0.171812
     4  C    0.159094
     5  C   -0.172548
     6  C   -0.217420
     7  H    0.226492
     8  H    0.224246
     9  H    0.276367
    10  H    0.275864
    11  H    0.224157
    12  N    0.487431
    13  O   -0.459867
    14  O   -0.457113
    15  C   -0.305659
    16  C   -0.297338
    17  C   -0.479002
    18  H    0.149127
    19  H    0.163119
    20  H    0.147083
    21  H    0.149984
    22  H    0.170123
    23  H    0.153125
    24  H    0.155498
    25  C   -0.297539
    26  C   -0.302975
    27  C   -0.473323
    28  H    0.147684
    29  H    0.145798
    30  H    0.152385
    31  H    0.151741
    32  H    0.151648
    33  H    0.155271
    34  H    0.155672
 Sum of Mulliken charges =  -0.00000

 Dipole moment (field-independent basis, Debye):
    X=              3.9338    Y=              3.2565    Z=              0.9284  Tot=              5.1905
 Quadrupole moment (field-independent basis, Debye-Ang):
   XX=            -82.2543   YY=           -103.2648   ZZ=            -89.5964
   XY=              2.1262   XZ=              0.8079   YZ=             -1.4116

 Normal termination of Gaussian 16 at Thu May  6 19:23:15 2021.
