 Gaussian 16, Revision A.03,
 Gaussian 16:  EM64L-G16RevA.03 25-Dec-2016

 -------------
 #p 6-31g* mp2
 -------------

 ------------------------------------------------------
 Input file generated by CHIRIPA (05-May-2021 14:57:27)
 ------------------------------------------------------
 Symbolic Z-matrix:
 Charge =  0 Multiplicity = 1

                         Standard orientation:
 ---------------------------------------------------------------------
 Center     Atomic      Atomic             Coordinates (Angstroms)
 Number     Number       Type             X           Y           Z
 ---------------------------------------------------------------------
      1          6           0       -2.086828    1.416916    0.282595
      2          6           0       -3.190877    1.922420   -0.411712
      3          6           0       -4.348889    1.153402   -0.560596
      4          6           0       -4.368498   -0.122722    0.000130
      5          6           0       -3.284791   -0.654344    0.697445
      6          6           0       -2.137220    0.132412    0.833986
      7          1           0       -1.191312    2.021198    0.393458
      8          1           0       -3.154572    2.919644   -0.840980
      9          1           0       -5.217976    1.520061   -1.093200
     10          1           0       -3.350801   -1.651993    1.114286
     11          1           0       -1.281307   -0.262756    1.373708
     12          7           0       -5.588907   -0.946236   -0.150953
     13          8           0       -5.581007   -2.067491    0.352397
     14          8           0       -6.530255   -0.454858   -0.769862
     15          6           0        2.561176    1.908158    0.283571
     16          6           0        3.925536    2.158429    0.103556
     17          6           0        4.824602    1.101705   -0.068371
     18          6           0        4.322640   -0.198735   -0.054865
     19          6           0        2.968910   -0.480373    0.122294
     20          6           0        2.088051    0.591876    0.292350
     21          1           0        1.869831    2.735076    0.416402
     22          1           0        4.295798    3.179653    0.096298
     23          1           0        5.885800    1.266968   -0.209670
     24          1           0        2.629614   -1.509105    0.124890
     25          1           0        1.028990    0.394526    0.431949
     26          7           0        5.264804   -1.325659   -0.235886
     27          8           0        4.797415   -2.462292   -0.220073
     28          8           0        6.452820   -1.050970   -0.390158
 ---------------------------------------------------------------------

 SCF Done:  E(RHF) =  -868.335850734     A.U. after   16 cycles
 E2 =    -0.2600533899D+01 EUMP2 =    -0.87093638463266D+03

 The electronic state is 1-A.
 Alpha  occ. eigenvalues --  -20.61324 -20.61319 -20.61318 -20.61313 -15.86386
 Alpha  occ. eigenvalues --  -15.86379 -11.31947 -11.31910 -11.28558 -11.28540
 Alpha  occ. eigenvalues --  -11.28519 -11.28477 -11.28472 -11.28386 -11.27717
 Alpha  occ. eigenvalues --  -11.27684 -11.27605 -11.27541  -1.60395  -1.60390
 Alpha  occ. eigenvalues --   -1.39943  -1.39939  -1.20162  -1.20119  -1.09561
 Alpha  occ. eigenvalues --   -1.09496  -1.05598  -1.05546  -0.96351  -0.96296
 Alpha  occ. eigenvalues --   -0.87061  -0.86912  -0.83165  -0.83130  -0.78194
 Alpha  occ. eigenvalues --   -0.78094  -0.72607  -0.72593  -0.71720  -0.71715
 Alpha  occ. eigenvalues --   -0.71419  -0.71211  -0.65948  -0.65786  -0.65781
 Alpha  occ. eigenvalues --   -0.65357  -0.63037  -0.62771  -0.56231  -0.56081
 Alpha  occ. eigenvalues --   -0.53946  -0.53866  -0.53780  -0.53538  -0.49385
 Alpha  occ. eigenvalues --   -0.49362  -0.49341  -0.49337  -0.45307  -0.45304
 Alpha  occ. eigenvalues --   -0.38203  -0.38119  -0.37177  -0.37139
 Alpha virt. eigenvalues --    0.04382   0.04416   0.10331   0.10498   0.15800
 Alpha virt. eigenvalues --    0.15837   0.17216   0.22274   0.23985   0.24955
 Alpha virt. eigenvalues --    0.27755   0.28928   0.30291   0.31015   0.33042

 Mulliken charges:
               1
     1  C   -0.170480
     2  C   -0.217931
     3  C   -0.169293
     4  C    0.159424
     5  C   -0.168928
     6  C   -0.222303
     7  H    0.216913
     8  H    0.225197
     9  H    0.278527
    10  H    0.278939
    11  H    0.219865
    12  N    0.487908
    13  O   -0.457918
    14  O   -0.458141
    15  C   -0.172541
    16  C   -0.217769
    17  C   -0.169683
    18  C    0.159561
    19  C   -0.171068
    20  C   -0.221979
    21  H    0.220086
    22  H    0.225634
    23  H    0.278261
    24  H    0.277484
    25  H    0.219139
    26  N    0.487957
    27  O   -0.458589
    28  O   -0.458272
 Sum of Mulliken charges =  -0.00000

 Dipole moment (field-independent basis, Debye):
    X=              0.9206    Y=              6.7793    Z=              1.0846  Tot=              6.9270
 Quadrupole moment (field-independent basis, Debye-Ang):
   XX=           -165.4476   YY=           -102.7866   ZZ=           -105.0853
   XY=              5.6913   XZ=              1.5973   YZ=             -3.0563

 Normal termination of Gaussian 16 at Thu May  6 00:27:46 2021.
