 Gaussian 16, Revision A.03,
 Gaussian 16:  EM64L-G16RevA.03 25-Dec-2016

 -------------
 #p 6-31g* mp2
 -------------

 ------------------------------------------------------
 Input file generated by CHIRIPA (05-May-2021 14:53:18)
 ------------------------------------------------------
 Symbolic Z-matrix:
 Charge =  0 Multiplicity = 1

                         Standard orientation:
 ---------------------------------------------------------------------
 Center     Atomic      Atomic             Coordinates (Angstroms)
 Number     Number       Type             X           Y           Z
 ---------------------------------------------------------------------
      1          6           0       -3.794347    1.053334   -0.154885
      2          6           0       -2.669994    2.066936   -0.370354
      3          6           0       -3.153164    3.514552   -0.276818
      4          1           0       -4.583444    1.226837   -0.899309
      5          1           0       -4.250284    1.225778    0.829889
      6          1           0       -2.215402    1.891742   -1.353853
      7          1           0       -1.883394    1.890877    0.374548
      8          1           0       -3.588381    3.712543    0.708061
      9          1           0       -3.922275    3.713412   -1.030161
     10          1           0       -2.333314    4.222377   -0.433949
     11          6           0       -3.326960   -0.398246   -0.245391
     12          6           0       -4.451312   -1.411849   -0.029921
     13          6           0       -3.968142   -2.859464   -0.123457
     14          1           0       -2.871022   -0.570691   -1.230164
     15          1           0       -2.537862   -0.571749    0.499034
     16          1           0       -5.237912   -1.235790   -0.774824
     17          1           0       -4.905904   -1.236654    0.953577
     18          1           0       -3.199031   -3.058325    0.629885
     19          1           0       -3.532926   -3.057456   -1.108336
     20          1           0       -4.787992   -3.567289    0.033674
     21          6           0        0.529906   -1.100995    0.918514
     22          6           0        1.064086    0.066368    1.473885
     23          6           0        2.310907    0.543870    1.059184
     24          6           0        2.999461   -0.174192    0.082675
     25          6           0        2.493846   -1.340416   -0.489659
     26          6           0        1.245230   -1.799430   -0.059761
     27          1           0       -0.439352   -1.464749    1.246566
     28          1           0        0.510790    0.610834    2.233796
     29          1           0        2.747924    1.444822    1.472366
     30          1           0        3.068927   -1.861536   -1.245392
     31          1           0        0.832839   -2.706310   -0.492828
     32          7           0        4.320365    0.321531   -0.364394
     33          8           0        4.907119   -0.329344   -1.226206
     34          8           0        4.743925    1.351568    0.155469
 ---------------------------------------------------------------------

 SCF Done:  E(RHF) =  -669.535352974     A.U. after   15 cycles
 E2 =    -0.2091988634D+01 EUMP2 =    -0.67162734160713D+03

 The electronic state is 1-A.
 Alpha  occ. eigenvalues --  -20.60747 -20.60742 -15.85801 -11.31164 -11.27745
 Alpha  occ. eigenvalues --  -11.27736 -11.27463 -11.26761 -11.26730 -11.22467
 Alpha  occ. eigenvalues --  -11.22325 -11.22220 -11.22098 -11.22054 -11.21565
 Alpha  occ. eigenvalues --   -1.59823  -1.39376  -1.19340  -1.09237  -1.08731
 Alpha  occ. eigenvalues --   -1.04744  -1.04285  -0.96748  -0.95570  -0.87760
 Alpha  occ. eigenvalues --   -0.86140  -0.82407  -0.80350  -0.79052  -0.77448
 Alpha  occ. eigenvalues --   -0.72019  -0.71146  -0.70470  -0.65877  -0.64992
 Alpha  occ. eigenvalues --   -0.64741  -0.62095  -0.61683  -0.60115  -0.58353
 Alpha  occ. eigenvalues --   -0.56078  -0.55253  -0.53412  -0.53175  -0.53053
 Alpha  occ. eigenvalues --   -0.52836  -0.50695  -0.48786  -0.48774  -0.48654
 Alpha  occ. eigenvalues --   -0.47389  -0.46578  -0.46490  -0.44783  -0.44548
 Alpha  occ. eigenvalues --   -0.37284  -0.36345
 Alpha virt. eigenvalues --    0.05067   0.11218   0.16480   0.19242   0.22719
 Alpha virt. eigenvalues --    0.23143   0.25180   0.26467   0.26581   0.27705
 Alpha virt. eigenvalues --    0.29285   0.30226   0.31043   0.31437   0.31958

 Mulliken charges:
               1
     1  C   -0.298960
     2  C   -0.299517
     3  C   -0.476531
     4  H    0.152923
     5  H    0.149441
     6  H    0.155457
     7  H    0.147153
     8  H    0.154661
     9  H    0.157094
    10  H    0.162956
    11  C   -0.299880
    12  C   -0.300181
    13  C   -0.475946
    14  H    0.152610
    15  H    0.140021
    16  H    0.156154
    17  H    0.153155
    18  H    0.146969
    19  H    0.156153
    20  H    0.165050
    21  C   -0.169234
    22  C   -0.219824
    23  C   -0.170807
    24  C    0.158407
    25  C   -0.170816
    26  C   -0.220015
    27  H    0.228496
    28  H    0.222968
    29  H    0.275544
    30  H    0.275520
    31  H    0.223961
    32  N    0.488080
    33  O   -0.460520
    34  O   -0.460543
 Sum of Mulliken charges =  -0.00000

 Dipole moment (field-independent basis, Debye):
    X=             -4.8029    Y=             -1.6987    Z=              1.4699  Tot=              5.3022
 Quadrupole moment (field-independent basis, Debye-Ang):
   XX=           -122.7763   YY=            -92.4870   ZZ=            -91.9562
   XY=             -4.6001   XZ=              4.5828   YZ=              2.3799

 Normal termination of Gaussian 16 at Wed May  5 15:47:28 2021.
