 Gaussian 16, Revision A.03,
 Gaussian 16:  EM64L-G16RevA.03 25-Dec-2016

 -------------
 #p 6-31g* mp2
 -------------

 ------------------------------------------------------
 Input file generated by CHIRIPA (05-May-2021 14:53:11)
 ------------------------------------------------------
 Symbolic Z-matrix:
 Charge =  0 Multiplicity = 1

                         Standard orientation:
 ---------------------------------------------------------------------
 Center     Atomic      Atomic             Coordinates (Angstroms)
 Number     Number       Type             X           Y           Z
 ---------------------------------------------------------------------
      1          6           0       -3.704140   -0.293016   -0.237114
      2          6           0       -4.580655   -0.012818    0.984031
      3          6           0       -5.853551    0.758379    0.633621
      4          1           0       -3.437578    0.659372   -0.715494
      5          1           0       -4.286769   -0.861311   -0.975340
      6          1           0       -3.996115    0.553585    1.720317
      7          1           0       -4.845003   -0.965972    1.459671
      8          1           0       -6.460287    0.195180   -0.082814
      9          1           0       -5.606576    1.723371    0.179313
     10          1           0       -6.465294    0.947888    1.521155
     11          6           0       -2.427931   -1.063287    0.097105
     12          6           0       -1.551416   -1.343485   -1.124040
     13          6           0       -0.278520   -2.114682   -0.773630
     14          1           0       -1.845302   -0.494991    0.835331
     15          1           0       -2.694493   -2.015674    0.575485
     16          1           0       -1.287068   -0.390330   -1.599680
     17          1           0       -2.135956   -1.909887   -1.860326
     18          1           0       -0.525495   -3.079673   -0.319322
     19          1           0        0.328216   -1.551483   -0.057195
     20          1           0        0.333223   -2.304191   -1.661163
     21          6           0        3.899131   -1.221638    1.073014
     22          6           0        3.298359   -0.255759    1.887061
     23          6           0        2.463312    0.719445    1.333690
     24          6           0        2.249960    0.699129   -0.043756
     25          6           0        2.834074   -0.249986   -0.881182
     26          6           0        3.665482   -1.215680   -0.306078
     27          1           0        4.546402   -1.975506    1.511327
     28          1           0        3.478015   -0.257959    2.958399
     29          1           0        1.985464    1.478855    1.940629
     30          1           0        2.636041   -0.222209   -1.945808
     31          1           0        4.130714   -1.964571   -0.940716
     32          7           0        1.367858    1.726500   -0.641089
     33          8           0        1.195887    1.686999   -1.857438
     34          8           0        0.865142    2.551800    0.118379
 ---------------------------------------------------------------------

 SCF Done:  E(RHF) =  -669.534982843     A.U. after   15 cycles
 E2 =    -0.2093575389D+01 EUMP2 =    -0.67162855823205D+03

 The electronic state is 1-A.
 Alpha  occ. eigenvalues --  -20.60908 -20.60895 -15.85936 -11.31211 -11.27838
 Alpha  occ. eigenvalues --  -11.27786 -11.27564 -11.26826 -11.26788 -11.21156
 Alpha  occ. eigenvalues --  -11.21128 -11.20971 -11.20847 -11.20845 -11.20635
 Alpha  occ. eigenvalues --   -1.59968  -1.39523  -1.19432  -1.08828  -1.07985
 Alpha  occ. eigenvalues --   -1.04821  -1.03135  -0.95696  -0.95585  -0.86639
 Alpha  occ. eigenvalues --   -0.86210  -0.82502  -0.79191  -0.77788  -0.77557
 Alpha  occ. eigenvalues --   -0.72157  -0.71303  -0.70534  -0.65076  -0.64818
 Alpha  occ. eigenvalues --   -0.64605  -0.62169  -0.60551  -0.58983  -0.57216
 Alpha  occ. eigenvalues --   -0.55327  -0.55059  -0.53188  -0.52910  -0.52286
 Alpha  occ. eigenvalues --   -0.51965  -0.49477  -0.48920  -0.48913  -0.47504
 Alpha  occ. eigenvalues --   -0.46196  -0.45342  -0.45279  -0.44855  -0.43389
 Alpha  occ. eigenvalues --   -0.37375  -0.36369
 Alpha virt. eigenvalues --    0.04950   0.11211   0.16417   0.21245   0.23155
 Alpha virt. eigenvalues --    0.24474   0.26943   0.27050   0.27885   0.28152
 Alpha virt. eigenvalues --    0.28605   0.30972   0.31427   0.31782   0.32335

 Mulliken charges:
               1
     1  C   -0.299490
     2  C   -0.299473
     3  C   -0.475867
     4  H    0.157588
     5  H    0.147770
     6  H    0.152896
     7  H    0.149015
     8  H    0.153955
     9  H    0.158000
    10  H    0.158504
    11  C   -0.297423
    12  C   -0.306734
    13  C   -0.477968
    14  H    0.148965
    15  H    0.146029
    16  H    0.165550
    17  H    0.150484
    18  H    0.151856
    19  H    0.158196
    20  H    0.153352
    21  C   -0.170444
    22  C   -0.218149
    23  C   -0.172797
    24  C    0.157333
    25  C   -0.167491
    26  C   -0.216420
    27  H    0.226117
    28  H    0.223792
    29  H    0.275672
    30  H    0.275497
    31  H    0.223801
    32  N    0.488583
    33  O   -0.460345
    34  O   -0.460353
 Sum of Mulliken charges =  -0.00000

 Dipole moment (field-independent basis, Debye):
    X=              3.2079    Y=             -3.4944    Z=              2.0673  Tot=              5.1745
 Quadrupole moment (field-independent basis, Debye-Ang):
   XX=            -82.0859   YY=            -99.5116   ZZ=            -90.9475
   XY=             -5.9101   XZ=              4.0849   YZ=              3.7939

 Normal termination of Gaussian 16 at Thu May  6 00:55:02 2021.
