 Gaussian 16, Revision A.03,
 Gaussian 16:  EM64L-G16RevA.03 25-Dec-2016

 -------------
 #p 6-31g* mp2
 -------------

 ------------------------------------------------------
 Input file generated by CHIRIPA (05-May-2021 14:53:18)
 ------------------------------------------------------
 Symbolic Z-matrix:
 Charge =  0 Multiplicity = 1

                         Standard orientation:
 ---------------------------------------------------------------------
 Center     Atomic      Atomic             Coordinates (Angstroms)
 Number     Number       Type             X           Y           Z
 ---------------------------------------------------------------------
      1          6           0       -3.768589   -0.061088   -0.057435
      2          6           0       -5.193049    0.021493   -0.607053
      3          6           0       -5.932742   -1.314735   -0.535334
      4          1           0       -3.209310   -0.822007   -0.618822
      5          1           0       -3.804770   -0.405710    0.985312
      6          1           0       -5.154281    0.367182   -1.648020
      7          1           0       -5.748945    0.782438   -0.044419
      8          1           0       -6.000990   -1.662160    0.500638
      9          1           0       -5.402947   -2.079776   -1.112074
     10          1           0       -6.948977   -1.232921   -0.933371
     11          6           0       -3.016267    1.266891   -0.122335
     12          6           0       -1.591807    1.184309    0.427283
     13          6           0       -0.852113    2.520537    0.355565
     14          1           0       -2.980086    1.611512   -1.165082
     15          1           0       -3.575546    2.027809    0.439052
     16          1           0       -1.035911    0.423364   -0.135351
     17          1           0       -1.630575    0.838620    1.468250
     18          1           0       -1.381909    3.285578    0.932305
     19          1           0       -0.783866    2.867962   -0.680408
     20          1           0        0.164121    2.438723    0.753602
     21          6           0        0.729224   -1.434755    1.391762
     22          6           0        0.848712   -1.712931    0.026162
     23          6           0        1.909073   -1.184344   -0.715981
     24          6           0        2.836060   -0.377846   -0.057539
     25          6           0        2.744273   -0.082423    1.301722
     26          6           0        1.675717   -0.621822    2.024068
     27          1           0       -0.097673   -1.849574    1.960588
     28          1           0        0.115135   -2.343946   -0.467527
     29          1           0        2.025632   -1.383577   -1.774347
     30          1           0        3.491159    0.549964    1.766120
     31          1           0        1.585443   -0.404097    3.084489
     32          7           0        3.962955    0.187469   -0.832734
     33          8           0        4.766444    0.895157   -0.229229
     34          8           0        4.021388   -0.087831   -2.029159
 ---------------------------------------------------------------------

 SCF Done:  E(RHF) =  -669.534451587     A.U. after   15 cycles
 E2 =    -0.2093779032D+01 EUMP2 =    -0.67162823061933D+03

 The electronic state is 1-A.
 Alpha  occ. eigenvalues --  -20.60798 -20.60793 -15.85855 -11.31238 -11.27842
 Alpha  occ. eigenvalues --  -11.27823 -11.27542 -11.26829 -11.26793 -11.22076
 Alpha  occ. eigenvalues --  -11.21968 -11.21843 -11.21735 -11.21553 -11.21248
 Alpha  occ. eigenvalues --   -1.59874  -1.39427  -1.19430  -1.08904  -1.08779
 Alpha  occ. eigenvalues --   -1.04840  -1.03905  -0.96363  -0.95641  -0.87375
 Alpha  occ. eigenvalues --   -0.86230  -0.82475  -0.79991  -0.78712  -0.77518
 Alpha  occ. eigenvalues --   -0.72072  -0.71198  -0.70522  -0.65512  -0.65075
 Alpha  occ. eigenvalues --   -0.64832  -0.62182  -0.61315  -0.59763  -0.58014
 Alpha  occ. eigenvalues --   -0.55664  -0.55320  -0.53299  -0.52922  -0.52872
 Alpha  occ. eigenvalues --   -0.52783  -0.50305  -0.48833  -0.48825  -0.48302
 Alpha  occ. eigenvalues --   -0.47029  -0.46241  -0.46174  -0.44830  -0.44183
 Alpha  occ. eigenvalues --   -0.37276  -0.36394
 Alpha virt. eigenvalues --    0.05010   0.11119   0.16453   0.20704   0.22710
 Alpha virt. eigenvalues --    0.23924   0.25573   0.26341   0.27372   0.27854
 Alpha virt. eigenvalues --    0.29088   0.30629   0.31188   0.31459   0.31751

 Mulliken charges:
               1
     1  C   -0.296960
     2  C   -0.299688
     3  C   -0.475808
     4  H    0.143395
     5  H    0.145709
     6  H    0.153848
     7  H    0.153694
     8  H    0.154224
     9  H    0.153685
    10  H    0.162415
    11  C   -0.298196
    12  C   -0.302348
    13  C   -0.476920
    14  H    0.151318
    15  H    0.150220
    16  H    0.158618
    17  H    0.142483
    18  H    0.154184
    19  H    0.157573
    20  H    0.161439
    21  C   -0.162609
    22  C   -0.222382
    23  C   -0.170657
    24  C    0.158964
    25  C   -0.171433
    26  C   -0.218796
    27  H    0.226755
    28  H    0.224132
    29  H    0.275813
    30  H    0.276079
    31  H    0.223838
    32  N    0.488173
    33  O   -0.460354
    34  O   -0.460409
 Sum of Mulliken charges =  -0.00000

 Dipole moment (field-independent basis, Debye):
    X=             -3.9316    Y=             -1.9976    Z=              2.7181  Tot=              5.1803
 Quadrupole moment (field-independent basis, Debye-Ang):
   XX=           -117.7004   YY=            -93.5981   ZZ=            -90.9912
   XY=             -4.0374   XZ=              9.4970   YZ=              1.3027

 Normal termination of Gaussian 16 at Thu May  6 02:50:18 2021.
