 Gaussian 16, Revision A.03,
 Gaussian 16:  EM64L-G16RevA.03 25-Dec-2016

 -------------
 #p 6-31g* mp2
 -------------

 ------------------------------------------------------
 Input file generated by CHIRIPA (05-May-2021 14:55:21)
 ------------------------------------------------------
 Symbolic Z-matrix:
 Charge =  0 Multiplicity = 1

                         Standard orientation:
 ---------------------------------------------------------------------
 Center     Atomic      Atomic             Coordinates (Angstroms)
 Number     Number       Type             X           Y           Z
 ---------------------------------------------------------------------
      1          6           0       -2.015429   -2.210044   -1.151356
      2          6           0       -2.889773   -1.968872   -0.086518
      3          6           0       -3.122400   -0.664530    0.359714
      4          6           0       -2.460920    0.379703   -0.284732
      5          6           0       -1.584020    0.171648   -1.348240
      6          6           0       -1.366487   -1.140899   -1.777714
      7          1           0       -1.840582   -3.226475   -1.491491
      8          1           0       -3.395130   -2.797244    0.401806
      9          1           0       -3.794197   -0.449384    1.181796
     10          1           0       -1.094798    1.017858   -1.815154
     11          1           0       -0.686926   -1.325216   -2.604920
     12          7           0       -2.699202    1.764895    0.178803
     13          8           0       -2.104158    2.667601   -0.405732
     14          8           0       -3.476499    1.921673    1.117881
     15          6           0        2.698643   -0.743938    0.808547
     16          6           0        1.247828   -0.351284    1.089513
     17          6           0        0.458359   -1.462206    1.782611
     18          1           0        2.712883   -1.649047    0.186036
     19          1           0        3.189653   -1.008050    1.755411
     20          1           0        0.760095   -0.086659    0.142567
     21          1           0        1.237039    0.553106    1.711268
     22          1           0        0.919026   -1.721669    2.741290
     23          1           0        0.439371   -2.365069    1.163676
     24          1           0       -0.576078   -1.160248    1.973971
     25          6           0        3.500776    0.356337    0.115942
     26          6           0        4.951591   -0.036317   -0.165024
     27          6           0        5.741059    1.074606   -0.858122
     28          1           0        3.009767    0.620450   -0.830922
     29          1           0        3.486536    1.261446    0.738453
     30          1           0        4.962381   -0.940706   -0.786780
     31          1           0        5.439325   -0.300941    0.781921
     32          1           0        5.760048    1.977469   -0.239187
     33          1           0        5.280393    1.334067   -1.816802
     34          1           0        6.775498    0.772647   -1.049482
 ---------------------------------------------------------------------

 SCF Done:  E(RHF) =  -669.533744343     A.U. after   15 cycles
 E2 =    -0.2095200316D+01 EUMP2 =    -0.67162894465946D+03

 The electronic state is 1-A.
 Alpha  occ. eigenvalues --  -20.60821 -20.60815 -15.85877 -11.31270 -11.27843
 Alpha  occ. eigenvalues --  -11.27837 -11.27597 -11.26876 -11.26845 -11.21703
 Alpha  occ. eigenvalues --  -11.21503 -11.21467 -11.21416 -11.21141 -11.21030
 Alpha  occ. eigenvalues --   -1.59896  -1.39449  -1.19471  -1.08844  -1.08486
 Alpha  occ. eigenvalues --   -1.04885  -1.03562  -0.96027  -0.95677  -0.87043
 Alpha  occ. eigenvalues --   -0.86266  -0.82509  -0.79636  -0.78309  -0.77548
 Alpha  occ. eigenvalues --   -0.72095  -0.71224  -0.70570  -0.65158  -0.65103
 Alpha  occ. eigenvalues --   -0.64867  -0.62219  -0.61019  -0.59447  -0.57694
 Alpha  occ. eigenvalues --   -0.55420  -0.55364  -0.53284  -0.52959  -0.52501
 Alpha  occ. eigenvalues --   -0.52303  -0.49987  -0.48857  -0.48848  -0.47973
 Alpha  occ. eigenvalues --   -0.46702  -0.45849  -0.45796  -0.44841  -0.43845
 Alpha  occ. eigenvalues --   -0.37405  -0.36309
 Alpha virt. eigenvalues --    0.04946   0.11107   0.16388   0.21154   0.22869
 Alpha virt. eigenvalues --    0.24245   0.26304   0.26989   0.27502   0.27875
 Alpha virt. eigenvalues --    0.28600   0.30852   0.31322   0.31711   0.31904

 Mulliken charges:
               1
     1  C   -0.169514
     2  C   -0.214106
     3  C   -0.175065
     4  C    0.166170
     5  C   -0.176436
     6  C   -0.215616
     7  H    0.226061
     8  H    0.224237
     9  H    0.276078
    10  H    0.276334
    11  H    0.223920
    12  N    0.487922
    13  O   -0.460131
    14  O   -0.460515
    15  C   -0.297631
    16  C   -0.304953
    17  C   -0.474867
    18  H    0.144540
    19  H    0.150000
    20  H    0.154426
    21  H    0.155581
    22  H    0.153467
    23  H    0.148180
    24  H    0.161931
    25  C   -0.297370
    26  C   -0.299479
    27  C   -0.475605
    28  H    0.145446
    29  H    0.153395
    30  H    0.149496
    31  H    0.152678
    32  H    0.157077
    33  H    0.154255
    34  H    0.160097
 Sum of Mulliken charges =  -0.00000

 Dipole moment (field-independent basis, Debye):
    X=              0.7146    Y=             -4.8328    Z=             -1.6616  Tot=              5.1602
 Quadrupole moment (field-independent basis, Debye-Ang):
   XX=            -97.7983   YY=            -98.8623   ZZ=            -91.2608
   XY=             13.6359   XZ=              1.9610   YZ=              0.2899

 Normal termination of Gaussian 16 at Thu May  6 14:11:09 2021.
