 Gaussian 16, Revision A.03,
 Gaussian 16:  EM64L-G16RevA.03 25-Dec-2016

 -------------
 #p 6-31g* mp2
 -------------

 ------------------------------------------------------
 Input file generated by CHIRIPA (05-May-2021 14:57:27)
 ------------------------------------------------------
 Symbolic Z-matrix:
 Charge =  0 Multiplicity = 1

                         Standard orientation:
 ---------------------------------------------------------------------
 Center     Atomic      Atomic             Coordinates (Angstroms)
 Number     Number       Type             X           Y           Z
 ---------------------------------------------------------------------
      1          6           0       -0.975842   -0.572731   -0.600675
      2          6           0       -1.900955   -1.590654   -0.346664
      3          6           0       -3.243858   -1.285666   -0.105535
      4          6           0       -3.628810    0.053991   -0.126046
      5          6           0       -2.730903    1.090593   -0.376067
      6          6           0       -1.393033    0.762289   -0.614541
      7          1           0        0.065402   -0.818709   -0.786958
      8          1           0       -1.579799   -2.628331   -0.335276
      9          1           0       -3.981055   -2.053924    0.093809
     10          1           0       -3.080972    2.115701   -0.380894
     11          1           0       -0.676780    1.554895   -0.811527
     12          7           0       -5.047816    0.389210    0.127821
     13          8           0       -5.361695    1.577301    0.104241
     14          8           0       -5.819286   -0.542485    0.345574
     15          6           0        3.848347    2.481071    0.063635
     16          6           0        4.496440    1.613156   -0.821363
     17          6           0        4.252883    0.237345   -0.772655
     18          6           0        3.351107   -0.238483    0.177966
     19          6           0        2.689774    0.600747    1.073300
     20          6           0        2.948668    1.972992    1.006480
     21          1           0        4.043505    3.548448    0.018763
     22          1           0        5.195642    2.004927   -1.554627
     23          1           0        4.740831   -0.457062   -1.445799
     24          1           0        1.998042    0.180599    1.793300
     25          1           0        2.443906    2.644667    1.695037
     26          7           0        3.085145   -1.693105    0.239118
     27          8           0        2.286233   -2.087309    1.085863
     28          8           0        3.680633   -2.411489   -0.560854
 ---------------------------------------------------------------------

 SCF Done:  E(RHF) =  -868.338963880     A.U. after   16 cycles
 E2 =    -0.2599920864D+01 EUMP2 =    -0.87093888474401D+03

 The electronic state is 1-A.
 Alpha  occ. eigenvalues --  -20.61931 -20.61916 -20.60597 -20.60584 -15.86956
 Alpha  occ. eigenvalues --  -15.85644 -11.32230 -11.30939 -11.28771 -11.28752
 Alpha  occ. eigenvalues --  -11.28456 -11.27734 -11.27711 -11.27548 -11.27446
 Alpha  occ. eigenvalues --  -11.27161 -11.26546 -11.26366  -1.61010  -1.59670
 Alpha  occ. eigenvalues --   -1.40556  -1.39226  -1.20389  -1.19096  -1.09794
 Alpha  occ. eigenvalues --   -1.08488  -1.05749  -1.04487  -0.96638  -0.95340
 Alpha  occ. eigenvalues --   -0.87146  -0.85873  -0.83453  -0.82178  -0.78525
 Alpha  occ. eigenvalues --   -0.77246  -0.73157  -0.72389  -0.71862  -0.71444
 Alpha  occ. eigenvalues --   -0.70994  -0.70147  -0.66015  -0.65715  -0.64737
 Alpha  occ. eigenvalues --   -0.64468  -0.63073  -0.61833  -0.56223  -0.54961
 Alpha  occ. eigenvalues --   -0.54105  -0.53808  -0.52822  -0.52561  -0.49933
 Alpha  occ. eigenvalues --   -0.49915  -0.48623  -0.48613  -0.45958  -0.44647
 Alpha  occ. eigenvalues --   -0.38366  -0.37402  -0.37007  -0.36098
 Alpha virt. eigenvalues --    0.03949   0.05284   0.10248   0.11562   0.15464
 Alpha virt. eigenvalues --    0.16800   0.20566   0.21584   0.26498   0.27404
 Alpha virt. eigenvalues --    0.27630   0.27919   0.30161   0.31109   0.31743

 Mulliken charges:
               1
     1  C   -0.169533
     2  C   -0.218101
     3  C   -0.171705
     4  C    0.158099
     5  C   -0.172109
     6  C   -0.222512
     7  H    0.227154
     8  H    0.232028
     9  H    0.275836
    10  H    0.272656
    11  H    0.219023
    12  N    0.488129
    13  O   -0.462602
    14  O   -0.460079
    15  C   -0.170758
    16  C   -0.218629
    17  C   -0.171160
    18  C    0.151350
    19  C   -0.176011
    20  C   -0.221328
    21  H    0.229473
    22  H    0.227161
    23  H    0.277965
    24  H    0.279219
    25  H    0.227527
    26  N    0.485966
    27  O   -0.460959
    28  O   -0.456103
 Sum of Mulliken charges =  -0.00000

 Dipole moment (field-independent basis, Debye):
    X=              6.2493    Y=              3.8643    Z=             -1.0878  Tot=              7.4276
 Quadrupole moment (field-independent basis, Debye-Ang):
   XX=           -133.1468   YY=           -102.6860   ZZ=           -102.8694
   XY=             23.0307   XZ=             -0.9793   YZ=              1.2006

 Normal termination of Gaussian 16 at Wed May  5 22:54:36 2021.
