 Gaussian 16, Revision A.03,
 Gaussian 16:  EM64L-G16RevA.03 25-Dec-2016

 -------------
 #p 6-31g* mp2
 -------------

 ------------------------------------------------------
 Input file generated by CHIRIPA (05-May-2021 14:55:22)
 ------------------------------------------------------
 Symbolic Z-matrix:
 Charge =  0 Multiplicity = 1

                         Standard orientation:
 ---------------------------------------------------------------------
 Center     Atomic      Atomic             Coordinates (Angstroms)
 Number     Number       Type             X           Y           Z
 ---------------------------------------------------------------------
      1          6           0       -2.405781   -0.857051   -2.386351
      2          6           0       -3.526541   -1.084499   -1.580940
      3          6           0       -3.528311   -0.691356   -0.239306
      4          6           0       -2.387212   -0.070559    0.266454
      5          6           0       -1.255092    0.169925   -0.510567
      6          6           0       -1.275626   -0.231668   -1.849540
      7          1           0       -2.413069   -1.165736   -3.427531
      8          1           0       -4.405630   -1.569968   -1.995145
      9          1           0       -4.382307   -0.855198    0.406655
     10          1           0       -0.393485    0.656095   -0.069328
     11          1           0       -0.403797   -0.053746   -2.472680
     12          7           0       -2.377280    0.350116    1.685374
     13          8           0       -1.359548    0.895158    2.107023
     14          8           0       -3.387416    0.126835    2.349007
     15          6           0        2.798543    0.868074    0.162029
     16          6           0        2.545732    1.796574   -1.026230
     17          6           0        2.027499    3.171235   -0.602511
     18          1           0        1.866787    0.750515    0.732078
     19          1           0        3.522393    1.340759    0.840268
     20          1           0        1.823623    1.321671   -1.702721
     21          1           0        3.478151    1.911784   -1.593624
     22          1           0        2.748106    3.668859    0.054526
     23          1           0        1.084176    3.075392   -0.055191
     24          1           0        1.853564    3.818823   -1.467517
     25          6           0        3.316909   -0.509953   -0.245483
     26          6           0        3.569721   -1.438453    0.942776
     27          6           0        4.087955   -2.813112    0.519058
     28          1           0        2.593060   -0.982637   -0.923721
     29          1           0        4.248665   -0.392393   -0.815531
     30          1           0        2.637302   -1.553662    1.510171
     31          1           0        4.291831   -0.963549    1.619269
     32          1           0        5.031277   -2.717270   -0.028262
     33          1           0        3.367348   -3.310736   -0.137979
     34          1           0        4.261890   -3.460701    1.384063
 ---------------------------------------------------------------------

 SCF Done:  E(RHF) =  -669.535445693     A.U. after   15 cycles
 E2 =    -0.2092876686D+01 EUMP2 =    -0.67162832237880D+03

 The electronic state is 1-A.
 Alpha  occ. eigenvalues --  -20.60827 -20.60820 -15.85872 -11.31210 -11.27783
 Alpha  occ. eigenvalues --  -11.27756 -11.27522 -11.26796 -11.26781 -11.22181
 Alpha  occ. eigenvalues --  -11.21745 -11.21699 -11.21660 -11.21372 -11.21184
 Alpha  occ. eigenvalues --   -1.59896  -1.39451  -1.19385  -1.08786  -1.08772
 Alpha  occ. eigenvalues --   -1.04788  -1.03826  -0.96247  -0.95624  -0.87263
 Alpha  occ. eigenvalues --   -0.86189  -0.82459  -0.79891  -0.78556  -0.77517
 Alpha  occ. eigenvalues --   -0.72093  -0.71216  -0.70519  -0.65517  -0.65029
 Alpha  occ. eigenvalues --   -0.64768  -0.62199  -0.61119  -0.59621  -0.57850
 Alpha  occ. eigenvalues --   -0.55547  -0.55284  -0.53113  -0.52961  -0.52879
 Alpha  occ. eigenvalues --   -0.52640  -0.50199  -0.48855  -0.48846  -0.48186
 Alpha  occ. eigenvalues --   -0.46946  -0.46084  -0.46005  -0.44859  -0.44079
 Alpha  occ. eigenvalues --   -0.37367  -0.36384
 Alpha virt. eigenvalues --    0.05000   0.11235   0.16496   0.18478   0.23118
 Alpha virt. eigenvalues --    0.23888   0.24537   0.25927   0.27742   0.28348
 Alpha virt. eigenvalues --    0.29877   0.30223   0.31446   0.31567   0.32271

 Mulliken charges:
               1
     1  C   -0.170396
     2  C   -0.218972
     3  C   -0.169714
     4  C    0.157097
     5  C   -0.179905
     6  C   -0.226019
     7  H    0.225974
     8  H    0.223599
     9  H    0.275674
    10  H    0.290600
    11  H    0.226952
    12  N    0.487341
    13  O   -0.462768
    14  O   -0.459669
    15  C   -0.308619
    16  C   -0.304275
    17  C   -0.478398
    18  H    0.158557
    19  H    0.156092
    20  H    0.139305
    21  H    0.155730
    22  H    0.160439
    23  H    0.160635
    24  H    0.159992
    25  C   -0.297429
    26  C   -0.300820
    27  C   -0.475910
    28  H    0.142457
    29  H    0.150292
    30  H    0.157362
    31  H    0.154285
    32  H    0.154516
    33  H    0.153591
    34  H    0.162403
 Sum of Mulliken charges =  -0.00000

 Dipole moment (field-independent basis, Debye):
    X=              0.0557    Y=             -1.4328    Z=             -4.8487  Tot=              5.0563
 Quadrupole moment (field-independent basis, Debye-Ang):
   XX=            -89.0163   YY=            -95.3330   ZZ=            -98.0599
   XY=              6.4889   XZ=             11.9989   YZ=             -0.2671

 Normal termination of Gaussian 16 at Wed May  5 16:01:29 2021.
