 Gaussian 16, Revision A.03,
 Gaussian 16:  EM64L-G16RevA.03 25-Dec-2016

 -------------
 #p 6-31g* mp2
 -------------

 ------------------------------------------------------
 Input file generated by CHIRIPA (05-May-2021 14:53:11)
 ------------------------------------------------------
 Symbolic Z-matrix:
 Charge =  0 Multiplicity = 1

                         Standard orientation:
 ---------------------------------------------------------------------
 Center     Atomic      Atomic             Coordinates (Angstroms)
 Number     Number       Type             X           Y           Z
 ---------------------------------------------------------------------
      1          6           0        3.988566    0.577389    0.562887
      2          6           0        3.253082    1.749304   -0.088007
      3          6           0        2.302167    2.459287    0.876088
      4          1           0        3.252050   -0.140569    0.948925
      5          1           0        4.552383    0.944424    1.431675
      6          1           0        2.691927    1.380405   -0.956128
      7          1           0        3.991437    2.464463   -0.472709
      8          1           0        2.850797    2.854461    1.737159
      9          1           0        1.543904    1.764244    1.250993
     10          1           0        1.786907    3.293667    0.390108
     11          6           0        4.942901   -0.142430   -0.388340
     12          6           0        5.678385   -1.314345    0.262554
     13          6           0        6.629301   -2.024327   -0.701540
     14          1           0        4.379085   -0.509465   -1.257128
     15          1           0        5.679417    0.575529   -0.774378
     16          1           0        4.940031   -2.029504    0.647257
     17          1           0        6.239540   -0.945446    1.130676
     18          1           0        7.387564   -1.329285   -1.076446
     19          1           0        6.080671   -2.419502   -1.562611
     20          1           0        7.144560   -2.858708   -0.215561
     21          6           0       -1.049229    0.458328   -0.207728
     22          6           0       -2.022386    1.306432   -0.746436
     23          6           0       -3.377082    0.968469   -0.674838
     24          6           0       -3.724709   -0.230641   -0.054692
     25          6           0       -2.778591   -1.096596    0.491453
     26          6           0       -1.429766   -0.738370    0.408410
     27          1           0        0.000851    0.728736   -0.267793
     28          1           0       -1.729770    2.236433   -1.225518
     29          1           0       -4.151169    1.606541   -1.083579
     30          1           0       -3.100995   -2.017030    0.962913
     31          1           0       -0.676171   -1.398959    0.827649
     32          7           0       -5.155756   -0.599153    0.027164
     33          8           0       -5.436087   -1.661175    0.578673
     34          8           0       -5.969983    0.181004   -0.461737
 ---------------------------------------------------------------------

 SCF Done:  E(RHF) =  -669.535331855     A.U. after   15 cycles
 E2 =    -0.2091324699D+01 EUMP2 =    -0.67162665655437D+03

 The electronic state is 1-A.
 Alpha  occ. eigenvalues --  -20.60740 -20.60735 -15.85794 -11.31157 -11.27730
 Alpha  occ. eigenvalues --  -11.27724 -11.27424 -11.26744 -11.26727 -11.22776
 Alpha  occ. eigenvalues --  -11.22397 -11.22296 -11.22289 -11.22182 -11.21632
 Alpha  occ. eigenvalues --   -1.59816  -1.39370  -1.19329  -1.09367  -1.08721
 Alpha  occ. eigenvalues --   -1.04734  -1.04458  -0.96901  -0.95556  -0.87909
 Alpha  occ. eigenvalues --   -0.86130  -0.82393  -0.80523  -0.79134  -0.77441
 Alpha  occ. eigenvalues --   -0.72012  -0.71139  -0.70475  -0.66008  -0.64980
 Alpha  occ. eigenvalues --   -0.64739  -0.62083  -0.61878  -0.60281  -0.58487
 Alpha  occ. eigenvalues --   -0.56343  -0.55064  -0.53583  -0.53300  -0.53055
 Alpha  occ. eigenvalues --   -0.52825  -0.50829  -0.48830  -0.48767  -0.48761
 Alpha  occ. eigenvalues --   -0.47583  -0.46677  -0.46593  -0.44776  -0.44693
 Alpha  occ. eigenvalues --   -0.37296  -0.36341
 Alpha virt. eigenvalues --    0.05074   0.11309   0.16497   0.18861   0.22670
 Alpha virt. eigenvalues --    0.23806   0.25507   0.26148   0.26912   0.27619
 Alpha virt. eigenvalues --    0.29322   0.30064   0.30849   0.30852   0.31859

 Mulliken charges:
               1
     1  C   -0.297316
     2  C   -0.304332
     3  C   -0.480930
     4  H    0.144221
     5  H    0.153718
     6  H    0.146730
     7  H    0.158190
     8  H    0.163314
     9  H    0.150033
    10  H    0.160795
    11  C   -0.298905
    12  C   -0.300038
    13  C   -0.476218
    14  H    0.149170
    15  H    0.152171
    16  H    0.151120
    17  H    0.153589
    18  H    0.156459
    19  H    0.155717
    20  H    0.162328
    21  C   -0.176535
    22  C   -0.220835
    23  C   -0.170718
    24  C    0.158339
    25  C   -0.170530
    26  C   -0.221015
    27  H    0.237102
    28  H    0.223555
    29  H    0.275488
    30  H    0.275436
    31  H    0.222881
    32  N    0.488043
    33  O   -0.460545
    34  O   -0.460482
 Sum of Mulliken charges =  -0.00000

 Dipole moment (field-independent basis, Debye):
    X=              5.2989    Y=              1.3454    Z=             -0.2663  Tot=              5.4736
 Quadrupole moment (field-independent basis, Debye-Ang):
   XX=           -131.4560   YY=            -91.7362   ZZ=            -94.5058
   XY=             -6.1579   XZ=              2.2216   YZ=             -2.4539

 Normal termination of Gaussian 16 at Wed May  5 15:25:29 2021.
