 Gaussian 16, Revision A.03,
 Gaussian 16:  EM64L-G16RevA.03 25-Dec-2016

 -------------
 #p 6-31g* mp2
 -------------

 ------------------------------------------------------
 Input file generated by CHIRIPA (05-May-2021 14:55:19)
 ------------------------------------------------------
 Symbolic Z-matrix:
 Charge =  0 Multiplicity = 1

                         Standard orientation:
 ---------------------------------------------------------------------
 Center     Atomic      Atomic             Coordinates (Angstroms)
 Number     Number       Type             X           Y           Z
 ---------------------------------------------------------------------
      1          6           0        2.954877   -2.310377   -0.748097
      2          6           0        4.009512   -1.563775   -0.212512
      3          6           0        3.860958   -0.194069    0.024941
      4          6           0        2.638598    0.399425   -0.286330
      5          6           0        1.569176   -0.317423   -0.820892
      6          6           0        1.740216   -1.685919   -1.050046
      7          1           0        3.079011   -3.373928   -0.929333
      8          1           0        4.953958   -2.046086    0.022950
      9          1           0        4.660954    0.407758    0.438740
     10          1           0        0.639560    0.191309   -1.045445
     11          1           0        0.919447   -2.263242   -1.466076
     12          7           0        2.469428    1.848831   -0.039342
     13          8           0        1.382518    2.348111   -0.322157
     14          8           0        3.426945    2.458151    0.432384
     15          6           0       -2.958114   -0.707450    0.771410
     16          6           0       -1.695764   -0.074105    1.357358
     17          6           0       -0.795664   -1.090959    2.059941
     18          1           0       -3.519616   -1.202273    1.575656
     19          1           0       -2.669265   -1.494930    0.061596
     20          1           0       -1.986899    0.712884    2.064821
     21          1           0       -1.137299    0.419431    0.551656
     22          1           0       -0.476686   -1.870844    1.360919
     23          1           0       -1.331113   -1.575723    2.882680
     24          1           0        0.100857   -0.616774    2.471353
     25          6           0       -3.868072    0.296454    0.065804
     26          6           0       -5.130421   -0.336891   -0.520143
     27          6           0       -6.030522    0.679962   -1.222727
     28          1           0       -4.156920    1.083934    0.775619
     29          1           0       -3.306569    0.791277   -0.738442
     30          1           0       -5.688886   -0.830427    0.285558
     31          1           0       -4.839287   -1.123880   -1.227607
     32          1           0       -5.495073    1.164727   -2.045466
     33          1           0       -6.349500    1.459848   -0.523703
     34          1           0       -6.927043    0.205778   -1.634137
 ---------------------------------------------------------------------

 SCF Done:  E(RHF) =  -669.535138404     A.U. after   15 cycles
 E2 =    -0.2092994330D+01 EUMP2 =    -0.67162813273404D+03

 The electronic state is 1-A.
 Alpha  occ. eigenvalues --  -20.60830 -20.60824 -15.85873 -11.31227 -11.27803
 Alpha  occ. eigenvalues --  -11.27800 -11.27546 -11.26818 -11.26802 -11.21660
 Alpha  occ. eigenvalues --  -11.21592 -11.21511 -11.21392 -11.21130 -11.21069
 Alpha  occ. eigenvalues --   -1.59897  -1.39452  -1.19408  -1.08802  -1.08497
 Alpha  occ. eigenvalues --   -1.04818  -1.03572  -0.96033  -0.95635  -0.87044
 Alpha  occ. eigenvalues --   -0.86214  -0.82472  -0.79628  -0.78302  -0.77520
 Alpha  occ. eigenvalues --   -0.72093  -0.71217  -0.70530  -0.65195  -0.65059
 Alpha  occ. eigenvalues --   -0.64797  -0.62222  -0.60938  -0.59386  -0.57628
 Alpha  occ. eigenvalues --   -0.55401  -0.55283  -0.53118  -0.52919  -0.52674
 Alpha  occ. eigenvalues --   -0.52447  -0.49971  -0.48858  -0.48850  -0.47932
 Alpha  occ. eigenvalues --   -0.46665  -0.45834  -0.45781  -0.44833  -0.43831
 Alpha  occ. eigenvalues --   -0.37378  -0.36367
 Alpha virt. eigenvalues --    0.04983   0.11152   0.16434   0.20259   0.22976
 Alpha virt. eigenvalues --    0.24170   0.25795   0.26541   0.27809   0.28039
 Alpha virt. eigenvalues --    0.29044   0.30354   0.31500   0.31660   0.32238

 Mulliken charges:
               1
     1  C   -0.170736
     2  C   -0.218411
     3  C   -0.170800
     4  C    0.157004
     5  C   -0.167094
     6  C   -0.219376
     7  H    0.225924
     8  H    0.223655
     9  H    0.275746
    10  H    0.278067
    11  H    0.223425
    12  N    0.488298
    13  O   -0.461464
    14  O   -0.459856
    15  C   -0.297653
    16  C   -0.306269
    17  C   -0.475495
    18  H    0.150497
    19  H    0.141110
    20  H    0.158112
    21  H    0.155845
    22  H    0.148626
    23  H    0.154660
    24  H    0.162939
    25  C   -0.298248
    26  C   -0.299381
    27  C   -0.475773
    28  H    0.153024
    29  H    0.150241
    30  H    0.151947
    31  H    0.149025
    32  H    0.155934
    33  H    0.156718
    34  H    0.159759
 Sum of Mulliken charges =  -0.00000

 Dipole moment (field-independent basis, Debye):
    X=              0.6359    Y=             -5.0042    Z=             -0.8306  Tot=              5.1124
 Quadrupole moment (field-independent basis, Debye-Ang):
   XX=            -87.3796   YY=            -99.9200   ZZ=            -93.8757
   XY=            -13.1258   XZ=             -1.5894   YZ=              1.8617

 Normal termination of Gaussian 16 at Wed May  5 17:21:26 2021.
