 Gaussian 16, Revision A.03,
 Gaussian 16:  EM64L-G16RevA.03 25-Dec-2016

 -------------
 #p 6-31g* mp2
 -------------

 ------------------------------------------------------
 Input file generated by CHIRIPA (05-May-2021 14:51:11)
 ------------------------------------------------------
 Symbolic Z-matrix:
 Charge =  0 Multiplicity = 1

                         Standard orientation:
 ---------------------------------------------------------------------
 Center     Atomic      Atomic             Coordinates (Angstroms)
 Number     Number       Type             X           Y           Z
 ---------------------------------------------------------------------
      1          6           0       -1.525075   -1.442269    0.201925
      2          6           0       -0.815444   -2.113426   -0.974492
      3          6           0        0.440724   -2.875086   -0.550569
      4          1           0       -0.827379   -0.754115    0.698523
      5          1           0       -1.791875   -2.206790    0.944704
      6          1           0       -0.551293   -1.348052   -1.715466
      7          1           0       -1.514968   -2.799919   -1.468464
      8          1           0        0.190594   -3.659034    0.171553
      9          1           0        1.159745   -2.198918   -0.076853
     10          1           0        0.932248   -3.347041   -1.407028
     11          6           0       -2.782696   -0.676911   -0.205928
     12          6           0       -3.492327   -0.005754    0.970489
     13          6           0       -4.748495    0.755906    0.546566
     14          1           0       -2.515896    0.087610   -0.948707
     15          1           0       -3.480391   -1.365065   -0.702527
     16          1           0       -2.792802    0.680739    1.464461
     17          1           0       -3.756478   -0.771128    1.711463
     18          1           0       -5.467515    0.079738    0.072850
     19          1           0       -4.498364    1.539855   -0.175556
     20          1           0       -5.240019    1.227861    1.403025
     21          6           0        2.585534    0.700374    0.519761
     22          6           0        3.754755   -0.069823   -0.094814
     23          6           0        4.609035   -0.783136    0.953606
     24          1           0        2.975448    1.434345    1.238231
     25          1           0        1.958106    0.004247    1.093466
     26          1           0        4.379026    0.627300   -0.668331
     27          1           0        3.362025   -0.801914   -0.812046
     28          1           0        4.005496   -1.500374    1.519214
     29          1           0        5.028277   -0.063039    1.663745
     30          1           0        5.439075   -1.327404    0.492450
     31          6           0        1.722236    1.418806   -0.515758
     32          6           0        0.553015    2.189004    0.098818
     33          6           0       -0.301264    2.902316   -0.949603
     34          1           0        2.349665    2.114933   -1.089462
     35          1           0        1.332322    0.684835   -1.234228
     36          1           0        0.945746    2.921094    0.816049
     37          1           0       -0.071256    1.491880    0.672335
     38          1           0       -0.720507    2.182219   -1.659742
     39          1           0        0.302274    3.619554   -1.515211
     40          1           0       -1.131304    3.446584   -0.488446
 ---------------------------------------------------------------------

 SCF Done:  E(RHF) =  -470.732601157     A.U. after   11 cycles
 E2 =    -0.1586121161D+01 EUMP2 =    -0.47231872231761D+03

 The electronic state is 1-A.
 Alpha  occ. eigenvalues --  -11.21677 -11.21666 -11.21627 -11.21617 -11.21469
 Alpha  occ. eigenvalues --  -11.21443 -11.21410 -11.21382 -11.21163 -11.21135
 Alpha  occ. eigenvalues --  -11.21079 -11.21077  -1.08569  -1.08413  -1.03600
 Alpha  occ. eigenvalues --   -1.03564  -0.96060  -0.96003  -0.87100  -0.86995
 Alpha  occ. eigenvalues --   -0.79678  -0.79624  -0.78425  -0.78183  -0.65726
 Alpha  occ. eigenvalues --   -0.64607  -0.61101  -0.60861  -0.59404  -0.59389
 Alpha  occ. eigenvalues --   -0.57665  -0.57613  -0.55491  -0.55135  -0.52733
 Alpha  occ. eigenvalues --   -0.52713  -0.52491  -0.52411  -0.50245  -0.49715
 Alpha  occ. eigenvalues --   -0.47989  -0.47937  -0.46941  -0.46638  -0.46193
 Alpha  occ. eigenvalues --   -0.45950  -0.45625  -0.45151  -0.43840  -0.43826
 Alpha virt. eigenvalues --    0.18168   0.21074   0.23753   0.24696   0.24981
 Alpha virt. eigenvalues --    0.25791   0.27486   0.28169   0.28590   0.29793
 Alpha virt. eigenvalues --    0.31085   0.31364   0.31565   0.31807   0.32500

 Mulliken charges:
               1
     1  C   -0.305356
     2  C   -0.300843
     3  C   -0.482996
     4  H    0.155528
     5  H    0.149992
     6  H    0.152301
     7  H    0.152706
     8  H    0.155663
     9  H    0.162114
    10  H    0.160486
    11  C   -0.301035
    12  C   -0.301334
    13  C   -0.475972
    14  H    0.152663
    15  H    0.150037
    16  H    0.153171
    17  H    0.152013
    18  H    0.155191
    19  H    0.155827
    20  H    0.160276
    21  C   -0.302320
    22  C   -0.302380
    23  C   -0.476091
    24  H    0.150611
    25  H    0.151099
    26  H    0.152334
    27  H    0.154595
    28  H    0.155653
    29  H    0.155176
    30  H    0.160587
    31  C   -0.301704
    32  C   -0.306548
    33  C   -0.477277
    34  H    0.150362
    35  H    0.152834
    36  H    0.152622
    37  H    0.157839
    38  H    0.155839
    39  H    0.155830
    40  H    0.160506
 Sum of Mulliken charges =  -0.00000

 Dipole moment (field-independent basis, Debye):
    X=              0.0079    Y=              0.0050    Z=             -0.0004  Tot=              0.0094
 Quadrupole moment (field-independent basis, Debye-Ang):
   XX=            -85.3997   YY=            -84.0212   ZZ=            -85.1867
   XY=              1.9241   XZ=             -0.6290   YZ=              0.3904

 Normal termination of Gaussian 16 at Wed May  5 19:51:26 2021.
