 Gaussian 16, Revision A.03,
 Gaussian 16:  EM64L-G16RevA.03 25-Dec-2016

 -------------
 #p 6-31g* mp2
 -------------

 ------------------------------------------------------
 Input file generated by CHIRIPA (05-May-2021 14:55:25)
 ------------------------------------------------------
 Symbolic Z-matrix:
 Charge =  0 Multiplicity = 1

                         Standard orientation:
 ---------------------------------------------------------------------
 Center     Atomic      Atomic             Coordinates (Angstroms)
 Number     Number       Type             X           Y           Z
 ---------------------------------------------------------------------
      1          6           0        4.639961   -1.783454    0.098187
      2          6           0        3.509416   -1.924774   -0.713241
      3          6           0        2.636404   -0.850304   -0.907956
      4          6           0        2.925716    0.356587   -0.273131
      5          6           0        4.043962    0.528648    0.541248
      6          6           0        4.903162   -0.559352    0.721743
      7          1           0        5.312773   -2.623383    0.243923
      8          1           0        3.302506   -2.874252   -1.198757
      9          1           0        1.753987   -0.932126   -1.530903
     10          1           0        4.223830    1.487523    1.012017
     11          1           0        5.780405   -0.446710    1.352457
     12          7           0        2.008809    1.501242   -0.471740
     13          8           0        2.285972    2.554055    0.098701
     14          8           0        1.030335    1.323936   -1.194089
     15          6           0       -3.400020   -0.101757    0.837636
     16          6           0       -1.982079   -0.357854    0.325928
     17          6           0       -0.916200   -0.127205    1.397606
     18          1           0       -3.468329    0.930044    1.208669
     19          1           0       -3.595823   -0.756848    1.697818
     20          1           0       -1.789499    0.296540   -0.533896
     21          1           0       -1.917191   -1.389106   -0.044107
     22          1           0       -1.080398   -0.790191    2.253229
     23          1           0       -0.951981    0.905032    1.760657
     24          1           0        0.089912   -0.315947    1.010339
     25          6           0       -4.476674   -0.328154   -0.222217
     26          6           0       -5.894614   -0.072057    0.289490
     27          6           0       -6.960493   -0.302706   -0.782188
     28          1           0       -4.280870    0.326936   -1.082400
     29          1           0       -4.408365   -1.359955   -0.593251
     30          1           0       -5.959503    0.959195    0.659525
     31          1           0       -6.087194   -0.726451    1.149314
     32          1           0       -6.924713   -1.334944   -1.145239
     33          1           0       -6.796295    0.360280   -1.637812
     34          1           0       -7.966605   -0.113964   -0.394921
 ---------------------------------------------------------------------

 SCF Done:  E(RHF) =  -669.535814067     A.U. after   15 cycles
 E2 =    -0.2092639865D+01 EUMP2 =    -0.67162845393149D+03

 The electronic state is 1-A.
 Alpha  occ. eigenvalues --  -20.60902 -20.60895 -15.85919 -11.31269 -11.27830
 Alpha  occ. eigenvalues --  -11.27824 -11.27568 -11.26841 -11.26831 -11.21155
 Alpha  occ. eigenvalues --  -11.20846 -11.20775 -11.20709 -11.20697 -11.20354
 Alpha  occ. eigenvalues --   -1.59953  -1.39511  -1.19440  -1.08838  -1.07828
 Alpha  occ. eigenvalues --   -1.04835  -1.02926  -0.95679  -0.95404  -0.86439
 Alpha  occ. eigenvalues --   -0.86231  -0.82509  -0.79005  -0.77649  -0.77542
 Alpha  occ. eigenvalues --   -0.72155  -0.71293  -0.70541  -0.65095  -0.64835
 Alpha  occ. eigenvalues --   -0.64447  -0.62182  -0.60303  -0.58791  -0.57016
 Alpha  occ. eigenvalues --   -0.55336  -0.54685  -0.53188  -0.52924  -0.52113
 Alpha  occ. eigenvalues --   -0.51833  -0.49342  -0.48912  -0.48907  -0.47329
 Alpha  occ. eigenvalues --   -0.46020  -0.45190  -0.45119  -0.44809  -0.43203
 Alpha  occ. eigenvalues --   -0.37401  -0.36427
 Alpha virt. eigenvalues --    0.04947   0.11139   0.16416   0.21300   0.23459
 Alpha virt. eigenvalues --    0.24729   0.27163   0.27253   0.27779   0.28286
 Alpha virt. eigenvalues --    0.28655   0.30844   0.31806   0.31993   0.32227

 Mulliken charges:
               1
     1  C   -0.170580
     2  C   -0.218336
     3  C   -0.172398
     4  C    0.157471
     5  C   -0.170854
     6  C   -0.218438
     7  H    0.225977
     8  H    0.223965
     9  H    0.276589
    10  H    0.275954
    11  H    0.223837
    12  N    0.491278
    13  O   -0.458642
    14  O   -0.459504
    15  C   -0.298421
    16  C   -0.302882
    17  C   -0.473722
    18  H    0.151708
    19  H    0.145586
    20  H    0.170865
    21  H    0.142431
    22  H    0.147992
    23  H    0.161475
    24  H    0.151551
    25  C   -0.298158
    26  C   -0.299265
    27  C   -0.475433
    28  H    0.152133
    29  H    0.146641
    30  H    0.152602
    31  H    0.150244
    32  H    0.153663
    33  H    0.155742
    34  H    0.158930
 Sum of Mulliken charges =  -0.00000

 Dipole moment (field-independent basis, Debye):
    X=              3.4070    Y=             -3.8757    Z=              0.6042  Tot=              5.1955
 Quadrupole moment (field-independent basis, Debye-Ang):
   XX=            -75.7389   YY=            -95.5483   ZZ=            -94.4815
   XY=             -9.4084   XZ=              2.7774   YZ=              3.0691

 Normal termination of Gaussian 16 at Thu May  6 14:24:40 2021.
