 Gaussian 16, Revision A.03,
 Gaussian 16:  EM64L-G16RevA.03 25-Dec-2016

 -------------
 #p 6-31g* mp2
 -------------

 ------------------------------------------------------
 Input file generated by CHIRIPA (05-May-2021 14:57:22)
 ------------------------------------------------------
 Symbolic Z-matrix:
 Charge =  0 Multiplicity = 1

                         Standard orientation:
 ---------------------------------------------------------------------
 Center     Atomic      Atomic             Coordinates (Angstroms)
 Number     Number       Type             X           Y           Z
 ---------------------------------------------------------------------
      1          6           0        5.271385    1.703922    0.365756
      2          6           0        5.156487    0.601778    1.219335
      3          6           0        4.145593   -0.344249    1.025240
      4          6           0        3.262854   -0.156121   -0.037149
      5          6           0        3.351352    0.931443   -0.904711
      6          6           0        4.370040    1.864953   -0.691678
      7          1           0        6.059699    2.433957    0.523889
      8          1           0        5.855069    0.474158    2.041370
      9          1           0        4.033721   -1.206784    1.670947
     10          1           0        2.640067    1.031676   -1.715540
     11          1           0        4.456869    2.719919   -1.356163
     12          7           0        2.188540   -1.151012   -0.252653
     13          8           0        1.423429   -0.962488   -1.195893
     14          8           0        2.131946   -2.100493    0.525756
     15          6           0       -5.020053    1.869542    0.588559
     16          6           0       -4.404967    1.839120   -0.667333
     17          6           0       -3.527685    0.803745   -1.003372
     18          6           0       -3.287152   -0.189349   -0.055111
     19          6           0       -3.884574   -0.186853    1.204401
     20          6           0       -4.758354    0.858242    1.518778
     21          1           0       -5.700187    2.677621    0.841189
     22          1           0       -4.606336    2.623168   -1.391738
     23          1           0       -3.037914    0.755650   -1.968375
     24          1           0       -3.664149   -0.982553    1.905608
     25          1           0       -5.234614    0.879296    2.494881
     26          7           0       -2.360265   -1.290598   -0.399394
     27          8           0       -2.164979   -2.153592    0.453684
     28          8           0       -1.846609   -1.269912   -1.515801
 ---------------------------------------------------------------------

 SCF Done:  E(RHF) =  -868.334219733     A.U. after   16 cycles
 E2 =    -0.2601003784D+01 EUMP2 =    -0.87093522351640D+03

 The electronic state is 1-A.
 Alpha  occ. eigenvalues --  -20.59735 -20.59699 -20.59506 -20.59427 -15.84791
 Alpha  occ. eigenvalues --  -15.84538 -11.30578 -11.30406 -11.27202 -11.27192
 Alpha  occ. eigenvalues --  -11.27034 -11.27028 -11.27021 -11.26876 -11.26313
 Alpha  occ. eigenvalues --  -11.26298 -11.26169 -11.26156  -1.58797  -1.58523
 Alpha  occ. eigenvalues --   -1.38341  -1.38070  -1.18793  -1.18626  -1.08109
 Alpha  occ. eigenvalues --   -1.07927  -1.04257  -1.04104  -0.94871  -0.94671
 Alpha  occ. eigenvalues --   -0.85635  -0.85478  -0.81703  -0.81507  -0.76680
 Alpha  occ. eigenvalues --   -0.76470  -0.71044  -0.70689  -0.70195  -0.69899
 Alpha  occ. eigenvalues --   -0.69823  -0.69732  -0.64431  -0.64270  -0.64257
 Alpha  occ. eigenvalues --   -0.64112  -0.61600  -0.61446  -0.54746  -0.54593
 Alpha  occ. eigenvalues --   -0.52568  -0.52408  -0.52354  -0.52204  -0.47881
 Alpha  occ. eigenvalues --   -0.47740  -0.47483  -0.47346  -0.43750  -0.43243
 Alpha  occ. eigenvalues --   -0.36801  -0.36635  -0.35883  -0.35733
 Alpha virt. eigenvalues --    0.05828   0.06107   0.11765   0.11914   0.17255
 Alpha virt. eigenvalues --    0.17503   0.21854   0.21986   0.27734   0.27861
 Alpha virt. eigenvalues --    0.28783   0.28928   0.31373   0.31503   0.33042

 Mulliken charges:
               1
     1  C   -0.172263
     2  C   -0.218565
     3  C   -0.171728
     4  C    0.158959
     5  C   -0.172325
     6  C   -0.218605
     7  H    0.222989
     8  H    0.221442
     9  H    0.275711
    10  H    0.275368
    11  H    0.220738
    12  N    0.485537
    13  O   -0.449682
    14  O   -0.457742
    15  C   -0.172655
    16  C   -0.218841
    17  C   -0.171956
    18  C    0.159782
    19  C   -0.172021
    20  C   -0.218663
    21  H    0.222207
    22  H    0.220110
    23  H    0.275445
    24  H    0.275607
    25  H    0.220740
    26  N    0.487280
    27  O   -0.458629
    28  O   -0.448242
 Sum of Mulliken charges =  -0.00000

 Dipole moment (field-independent basis, Debye):
    X=              0.5525    Y=              7.0940    Z=              1.8199  Tot=              7.3446
 Quadrupole moment (field-independent basis, Debye-Ang):
   XX=            -61.6821   YY=           -106.5312   ZZ=            -98.2564
   XY=             -1.8159   XZ=             -0.6495   YZ=             -5.0967

 Normal termination of Gaussian 16 at Fri May  7 01:43:25 2021.
