 Gaussian 16, Revision A.03,
 Gaussian 16:  EM64L-G16RevA.03 25-Dec-2016

 -------------
 #p 6-31g* mp2
 -------------

 ------------------------------------------------------
 Input file generated by CHIRIPA (05-May-2021 14:57:22)
 ------------------------------------------------------
 Symbolic Z-matrix:
 Charge =  0 Multiplicity = 1

                         Standard orientation:
 ---------------------------------------------------------------------
 Center     Atomic      Atomic             Coordinates (Angstroms)
 Number     Number       Type             X           Y           Z
 ---------------------------------------------------------------------
      1          6           0       -1.593522   -0.031094    0.474839
      2          6           0       -2.391639    1.039731    0.890610
      3          6           0       -3.774895    1.014340    0.689350
      4          6           0       -4.329261   -0.102707    0.066313
      5          6           0       -3.560744   -1.185125   -0.359179
      6          6           0       -2.179589   -1.138153   -0.147631
      7          1           0       -0.519792   -0.002988    0.635179
      8          1           0       -1.939224    1.900787    1.374292
      9          1           0       -4.416299    1.829635    1.001300
     10          1           0       -4.040528   -2.029769   -0.838555
     11          1           0       -1.562228   -1.971206   -0.471564
     12          7           0       -5.792540   -0.141011   -0.152198
     13          8           0       -6.256627   -1.136696   -0.703443
     14          8           0       -6.447664    0.825377    0.231917
     15          6           0        3.016608    2.336840   -0.547569
     16          6           0        4.378047    2.261645   -0.235558
     17          6           0        4.982287    1.025662    0.013012
     18          6           0        4.191682   -0.120204   -0.059282
     19          6           0        2.832864   -0.077951   -0.367689
     20          6           0        2.249714    1.168861   -0.612524
     21          1           0        2.555412    3.301187   -0.739213
     22          1           0        4.976081    3.167065   -0.184413
     23          1           0        6.034165    0.938625    0.256727
     24          1           0        2.262567   -0.997885   -0.411290
     25          1           0        1.192182    1.224238   -0.854608
     26          7           0        4.820201   -1.434416    0.201891
     27          8           0        4.101849   -2.429263    0.131966
     28          8           0        6.019284   -1.444764    0.471578
 ---------------------------------------------------------------------

 SCF Done:  E(RHF) =  -868.337084275     A.U. after   16 cycles
 E2 =    -0.2600032827D+01 EUMP2 =    -0.87093711710257D+03

 The electronic state is 1-A.
 Alpha  occ. eigenvalues --  -20.61504 -20.61489 -20.61158 -20.61151 -15.86560
 Alpha  occ. eigenvalues --  -15.86213 -11.32052 -11.31709 -11.28729 -11.28591
 Alpha  occ. eigenvalues --  -11.28376 -11.28278 -11.28248 -11.28111 -11.27732
 Alpha  occ. eigenvalues --  -11.27602 -11.27380 -11.27331  -1.60572  -1.60229
 Alpha  occ. eigenvalues --   -1.40123  -1.39779  -1.20238  -1.19893  -1.09597
 Alpha  occ. eigenvalues --   -1.09288  -1.05677  -1.05303  -0.96414  -0.96098
 Alpha  occ. eigenvalues --   -0.87054  -0.86707  -0.83270  -0.82907  -0.78296
 Alpha  occ. eigenvalues --   -0.77922  -0.72773  -0.72429  -0.71897  -0.71553
 Alpha  occ. eigenvalues --   -0.71345  -0.71051  -0.65891  -0.65683  -0.65548
 Alpha  occ. eigenvalues --   -0.65307  -0.63027  -0.62636  -0.56170  -0.55846
 Alpha  occ. eigenvalues --   -0.53963  -0.53788  -0.53592  -0.53397  -0.49542
 Alpha  occ. eigenvalues --   -0.49522  -0.49199  -0.49176  -0.45501  -0.45155
 Alpha  occ. eigenvalues --   -0.38198  -0.37919  -0.37281  -0.36897
 Alpha virt. eigenvalues --    0.04236   0.04556   0.10362   0.10741   0.15538
 Alpha virt. eigenvalues --    0.15888   0.18958   0.21865   0.25270   0.26379
 Alpha virt. eigenvalues --    0.27508   0.29594   0.29768   0.30919   0.31791

 Mulliken charges:
               1
     1  C   -0.179066
     2  C   -0.219862
     3  C   -0.170410
     4  C    0.159571
     5  C   -0.170144
     6  C   -0.218684
     7  H    0.223840
     8  H    0.222890
     9  H    0.276854
    10  H    0.278232
    11  H    0.226096
    12  N    0.487891
    13  O   -0.458332
    14  O   -0.459368
    15  C   -0.170854
    16  C   -0.217984
    17  C   -0.169482
    18  C    0.159661
    19  C   -0.172965
    20  C   -0.224466
    21  H    0.228077
    22  H    0.226811
    23  H    0.278586
    24  H    0.270695
    25  H    0.222301
    26  N    0.488233
    27  O   -0.460975
    28  O   -0.457146
 Sum of Mulliken charges =  -0.00000

 Dipole moment (field-independent basis, Debye):
    X=              3.0199    Y=              4.7942    Z=             -0.1581  Tot=              5.6683
 Quadrupole moment (field-independent basis, Debye-Ang):
   XX=           -162.7472   YY=           -101.1424   ZZ=           -105.1209
   XY=             20.9930   XZ=             -6.1652   YZ=              2.4086

 Normal termination of Gaussian 16 at Thu May  6 22:37:55 2021.
