 Gaussian 16, Revision A.03,
 Gaussian 16:  EM64L-G16RevA.03 25-Dec-2016

 -------------
 #p 6-31g* mp2
 -------------

 ------------------------------------------------------
 Input file generated by CHIRIPA (05-May-2021 14:57:25)
 ------------------------------------------------------
 Symbolic Z-matrix:
 Charge =  0 Multiplicity = 1

                         Standard orientation:
 ---------------------------------------------------------------------
 Center     Atomic      Atomic             Coordinates (Angstroms)
 Number     Number       Type             X           Y           Z
 ---------------------------------------------------------------------
      1          6           0        2.629113    2.304668   -0.695056
      2          6           0        2.722171    1.996058    0.666054
      3          6           0        2.608888    0.673040    1.103475
      4          6           0        2.401944   -0.320899    0.148200
      5          6           0        2.304849   -0.045229   -1.214836
      6          6           0        2.421116    1.284838   -1.629510
      7          1           0        2.718273    3.335158   -1.026019
      8          1           0        2.883678    2.786024    1.394007
      9          1           0        2.677067    0.406060    2.151087
     10          1           0        2.143570   -0.854286   -1.916857
     11          1           0        2.348440    1.521566   -2.687207
     12          7           0        2.280437   -1.725250    0.599237
     13          8           0        2.098357   -2.582692   -0.262319
     14          8           0        2.369580   -1.941947    1.805774
     15          6           0       -2.371102    2.555301    0.458011
     16          6           0       -3.487504    1.787273    0.804858
     17          6           0       -3.526611    0.420148    0.515054
     18          6           0       -2.426888   -0.148944   -0.125284
     19          6           0       -1.300188    0.589617   -0.483565
     20          6           0       -1.282927    1.955080   -0.183962
     21          1           0       -2.349207    3.616671    0.686944
     22          1           0       -4.334033    2.250738    1.303490
     23          1           0       -4.378184   -0.197943    0.772357
     24          1           0       -0.471477    0.099427   -0.979920
     25          1           0       -0.414583    2.549077   -0.454503
     26          7           0       -2.456726   -1.595379   -0.437273
     27          8           0       -1.475075   -2.072953   -1.002007
     28          8           0       -3.461198   -2.224131   -0.111170
 ---------------------------------------------------------------------

 SCF Done:  E(RHF) =  -868.335309676     A.U. after   16 cycles
 E2 =    -0.2605044001D+01 EUMP2 =    -0.87094035367728D+03

 The electronic state is 1-A.
 Alpha  occ. eigenvalues --  -20.60796 -20.60699 -20.60440 -20.60405 -15.85814
 Alpha  occ. eigenvalues --  -15.85473 -11.31716 -11.31000 -11.28313 -11.28264
 Alpha  occ. eigenvalues --  -11.28205 -11.27592 -11.27514 -11.27500 -11.27473
 Alpha  occ. eigenvalues --  -11.27403 -11.26670 -11.26609  -1.59810  -1.59494
 Alpha  occ. eigenvalues --   -1.39346  -1.39045  -1.19979  -1.19194  -1.09266
 Alpha  occ. eigenvalues --   -1.08573  -1.05427  -1.04616  -0.95997  -0.95376
 Alpha  occ. eigenvalues --   -0.86778  -0.86024  -0.82800  -0.82199  -0.77738
 Alpha  occ. eigenvalues --   -0.77230  -0.72028  -0.71699  -0.71153  -0.71027
 Alpha  occ. eigenvalues --   -0.70808  -0.70338  -0.65575  -0.65375  -0.64847
 Alpha  occ. eigenvalues --   -0.64653  -0.62703  -0.62052  -0.55900  -0.55238
 Alpha  occ. eigenvalues --   -0.53649  -0.53462  -0.52889  -0.52752  -0.48829
 Alpha  occ. eigenvalues --   -0.48750  -0.48459  -0.48440  -0.44673  -0.44351
 Alpha  occ. eigenvalues --   -0.38009  -0.37240  -0.37034  -0.36174
 Alpha virt. eigenvalues --    0.04715   0.05303   0.10486   0.11397   0.16083
 Alpha virt. eigenvalues --    0.16761   0.20689   0.21732   0.26664   0.27239
 Alpha virt. eigenvalues --    0.27816   0.28529   0.30486   0.31197   0.31982

 Mulliken charges:
               1
     1  C   -0.182335
     2  C   -0.217466
     3  C   -0.169218
     4  C    0.165407
     5  C   -0.190212
     6  C   -0.219589
     7  H    0.226040
     8  H    0.224915
     9  H    0.279054
    10  H    0.286169
    11  H    0.227532
    12  N    0.488405
    13  O   -0.446516
    14  O   -0.460949
    15  C   -0.172761
    16  C   -0.218591
    17  C   -0.170289
    18  C    0.159919
    19  C   -0.178656
    20  C   -0.222933
    21  H    0.221907
    22  H    0.222416
    23  H    0.275993
    24  H    0.280155
    25  H    0.220682
    26  N    0.487255
    27  O   -0.455837
    28  O   -0.460498
 Sum of Mulliken charges =  -0.00000

 Dipole moment (field-independent basis, Debye):
    X=              0.7902    Y=              9.6272    Z=             -0.4693  Tot=              9.6709
 Quadrupole moment (field-independent basis, Debye-Ang):
   XX=            -99.7004   YY=           -110.2888   ZZ=           -100.8887
   XY=             -0.1579   XZ=             -8.0151   YZ=              2.1294

 Normal termination of Gaussian 16 at Fri May  7 01:59:17 2021.
