 Gaussian 16, Revision A.03,
 Gaussian 16:  EM64L-G16RevA.03 25-Dec-2016

 -------------
 #p 6-31g* mp2
 -------------

 ------------------------------------------------------
 Input file generated by CHIRIPA (05-May-2021 14:57:25)
 ------------------------------------------------------
 Symbolic Z-matrix:
 Charge =  0 Multiplicity = 1

                         Standard orientation:
 ---------------------------------------------------------------------
 Center     Atomic      Atomic             Coordinates (Angstroms)
 Number     Number       Type             X           Y           Z
 ---------------------------------------------------------------------
      1          6           0        2.483517    2.692101   -0.466988
      2          6           0        3.492446    2.210071    0.373386
      3          6           0        3.730990    0.836733    0.481038
      4          6           0        2.938123   -0.030138   -0.269419
      5          6           0        1.925429    0.419346   -1.115413
      6          6           0        1.704602    1.796779   -1.207400
      7          1           0        2.305091    3.760533   -0.544531
      8          1           0        4.098917    2.903063    0.949581
      9          1           0        4.505475    0.436407    1.123945
     10          1           0        1.337255   -0.295984   -1.677350
     11          1           0        0.920363    2.168284   -1.860851
     12          7           0        3.181281   -1.486197   -0.163745
     13          8           0        2.468931   -2.229210   -0.835403
     14          8           0        4.079615   -1.856872    0.588741
     15          6           0       -0.678301   -0.876262    1.284095
     16          6           0       -1.395456    0.195618    1.825652
     17          6           0       -2.626388    0.573663    1.281194
     18          6           0       -3.112645   -0.145411    0.190425
     19          6           0       -2.421759   -1.217891   -0.371494
     20          6           0       -1.192835   -1.578358    0.189180
     21          1           0        0.277137   -1.163108    1.713343
     22          1           0       -0.998302    0.742685    2.675966
     23          1           0       -3.202439    1.399470    1.680727
     24          1           0       -2.843376   -1.744173   -1.219246
     25          1           0       -0.638069   -2.411213   -0.233467
     26          7           0       -4.414715    0.245504   -0.394553
     27          8           0       -4.821398   -0.404093   -1.355423
     28          8           0       -5.003941    1.194097    0.118888
 ---------------------------------------------------------------------

 SCF Done:  E(RHF) =  -868.339432780     A.U. after   16 cycles
 E2 =    -0.2601216893D+01 EUMP2 =    -0.87094064967331D+03

 The electronic state is 1-A.
 Alpha  occ. eigenvalues --  -20.61835 -20.61796 -20.60855 -20.60846 -15.86842
 Alpha  occ. eigenvalues --  -15.85902 -11.31941 -11.31204 -11.28500 -11.28461
 Alpha  occ. eigenvalues --  -11.28153 -11.27780 -11.27703 -11.27430 -11.27411
 Alpha  occ. eigenvalues --  -11.27365 -11.26764 -11.26564  -1.60893  -1.59933
 Alpha  occ. eigenvalues --   -1.40450  -1.39487  -1.20101  -1.19354  -1.09538
 Alpha  occ. eigenvalues --   -1.08744  -1.05442  -1.04728  -0.96411  -0.95597
 Alpha  occ. eigenvalues --   -0.86857  -0.86105  -0.83241  -0.82421  -0.78330
 Alpha  occ. eigenvalues --   -0.77484  -0.73056  -0.72261  -0.72111  -0.71262
 Alpha  occ. eigenvalues --   -0.71182  -0.70409  -0.65740  -0.65426  -0.64980
 Alpha  occ. eigenvalues --   -0.64657  -0.62790  -0.62044  -0.55943  -0.55205
 Alpha  occ. eigenvalues --   -0.53891  -0.53528  -0.52987  -0.52768  -0.49830
 Alpha  occ. eigenvalues --   -0.49785  -0.48880  -0.48866  -0.45896  -0.44906
 Alpha  occ. eigenvalues --   -0.38156  -0.37550  -0.36710  -0.36331
 Alpha virt. eigenvalues --    0.04126   0.04998   0.10454   0.11442   0.15664
 Alpha virt. eigenvalues --    0.16503   0.20771   0.21566   0.26621   0.27178
 Alpha virt. eigenvalues --    0.28020   0.28096   0.30504   0.30946   0.31881

 Mulliken charges:
               1
     1  C   -0.170569
     2  C   -0.219724
     3  C   -0.173088
     4  C    0.150736
     5  C   -0.166406
     6  C   -0.218009
     7  H    0.228946
     8  H    0.225343
     9  H    0.276033
    10  H    0.275326
    11  H    0.228638
    12  N    0.486912
    13  O   -0.466159
    14  O   -0.456670
    15  C   -0.172016
    16  C   -0.218599
    17  C   -0.173559
    18  C    0.157479
    19  C   -0.175316
    20  C   -0.228243
    21  H    0.228728
    22  H    0.222148
    23  H    0.273900
    24  H    0.276086
    25  H    0.242220
    26  N    0.487830
    27  O   -0.460236
    28  O   -0.461729
 Sum of Mulliken charges =  -0.00000

 Dipole moment (field-independent basis, Debye):
    X=              3.8988    Y=              3.7971    Z=              1.6398  Tot=              5.6840
 Quadrupole moment (field-independent basis, Debye-Ang):
   XX=           -137.1036   YY=           -102.3341   ZZ=           -100.2410
   XY=             19.6315   XZ=             -3.9435   YZ=              1.3612

 Normal termination of Gaussian 16 at Thu May  6 08:19:25 2021.
