 Gaussian 16, Revision A.03,
 Gaussian 16:  EM64L-G16RevA.03 25-Dec-2016

 -------------
 #p 6-31g* mp2
 -------------

 ------------------------------------------------------
 Input file generated by CHIRIPA (05-May-2021 14:57:24)
 ------------------------------------------------------
 Symbolic Z-matrix:
 Charge =  0 Multiplicity = 1

                         Standard orientation:
 ---------------------------------------------------------------------
 Center     Atomic      Atomic             Coordinates (Angstroms)
 Number     Number       Type             X           Y           Z
 ---------------------------------------------------------------------
      1          6           0        5.797927    0.954566   -0.135743
      2          6           0        5.349425    0.105227   -1.152597
      3          6           0        4.157140   -0.609976   -1.006007
      4          6           0        3.435162   -0.451322    0.175884
      5          6           0        3.855714    0.387158    1.207086
      6          6           0        5.050956    1.092577    1.038782
      7          1           0        6.725271    1.506353   -0.258052
      8          1           0        5.927474   -0.003911   -2.065829
      9          1           0        3.786717   -1.274333   -1.777263
     10          1           0        3.257804    0.475340    2.106056
     11          1           0        5.396836    1.751469    1.830156
     12          7           0        2.171377   -1.203297    0.342566
     13          8           0        1.553619   -1.046120    1.393426
     14          8           0        1.822512   -1.935632   -0.580805
     15          6           0       -1.669104    1.824713   -0.623703
     16          6           0       -2.877729    2.377336   -0.187406
     17          6           0       -3.978233    1.557282    0.078961
     18          6           0       -3.834321    0.182632   -0.102464
     19          6           0       -2.643405   -0.397980   -0.535937
     20          6           0       -1.555999    0.441259   -0.796271
     21          1           0       -0.819293    2.469202   -0.828280
     22          1           0       -2.968456    3.451401   -0.052509
     23          1           0       -4.925617    1.958615    0.417804
     24          1           0       -2.583392   -1.472287   -0.661160
     25          1           0       -0.618592    0.009308   -1.134992
     26          7           0       -4.992443   -0.695677    0.176334
     27          8           0       -4.839967   -1.903685    0.008690
     28          8           0       -6.030725   -0.159457    0.557221
 ---------------------------------------------------------------------

 SCF Done:  E(RHF) =  -868.339009231     A.U. after   15 cycles
 E2 =    -0.2598993730D+01 EUMP2 =    -0.87093800296113D+03

 The electronic state is 1-A.
 Alpha  occ. eigenvalues --  -20.61743 -20.61707 -20.60003 -20.59983 -15.86744
 Alpha  occ. eigenvalues --  -15.85043 -11.31953 -11.30310 -11.28499 -11.28487
 Alpha  occ. eigenvalues --  -11.28193 -11.27462 -11.27452 -11.26924 -11.26759
 Alpha  occ. eigenvalues --  -11.26652 -11.25974 -11.25755  -1.60802  -1.59072
 Alpha  occ. eigenvalues --   -1.40351  -1.38627  -1.20109  -1.18474  -1.09532
 Alpha  occ. eigenvalues --   -1.07911  -1.05478  -1.03842  -0.96389  -0.94758
 Alpha  occ. eigenvalues --   -0.86882  -0.85269  -0.83217  -0.81574  -0.78292
 Alpha  occ. eigenvalues --   -0.76621  -0.72949  -0.72134  -0.71268  -0.71197
 Alpha  occ. eigenvalues --   -0.70391  -0.69631  -0.65753  -0.65467  -0.64132
 Alpha  occ. eigenvalues --   -0.63848  -0.62820  -0.61180  -0.55972  -0.54428
 Alpha  occ. eigenvalues --   -0.53829  -0.53557  -0.52201  -0.51935  -0.49732
 Alpha  occ. eigenvalues --   -0.49700  -0.48027  -0.48014  -0.45776  -0.44053
 Alpha  occ. eigenvalues --   -0.38082  -0.37079  -0.36493  -0.35421
 Alpha virt. eigenvalues --    0.04192   0.05887   0.10578   0.12204   0.15718
 Alpha virt. eigenvalues --    0.17392   0.20777   0.22248   0.26710   0.27579
 Alpha virt. eigenvalues --    0.28216   0.29092   0.30371   0.31670   0.31972

 Mulliken charges:
               1
     1  C   -0.170212
     2  C   -0.218622
     3  C   -0.172023
     4  C    0.155846
     5  C   -0.171739
     6  C   -0.218822
     7  H    0.228062
     8  H    0.225711
     9  H    0.276163
    10  H    0.277179
    11  H    0.225694
    12  N    0.485433
    13  O   -0.455060
    14  O   -0.464442
    15  C   -0.171779
    16  C   -0.218691
    17  C   -0.172554
    18  C    0.157762
    19  C   -0.169069
    20  C   -0.216953
    21  H    0.219520
    22  H    0.218787
    23  H    0.272464
    24  H    0.280833
    25  H    0.231748
    26  N    0.488070
    27  O   -0.459334
    28  O   -0.463969
 Sum of Mulliken charges =  -0.00000

 Dipole moment (field-independent basis, Debye):
    X=              8.9288    Y=              5.5926    Z=             -1.5159  Tot=             10.6442
 Quadrupole moment (field-independent basis, Debye-Ang):
   XX=           -104.9232   YY=           -103.2409   ZZ=           -101.2548
   XY=             -6.0132   XZ=              0.7333   YZ=              3.6200

 Normal termination of Gaussian 16 at Fri May  7 04:58:59 2021.
