 Gaussian 16, Revision A.03,
 Gaussian 16:  EM64L-G16RevA.03 25-Dec-2016

 -------------
 #p 6-31g* mp2
 -------------

 ------------------------------------------------------
 Input file generated by CHIRIPA (05-May-2021 14:57:22)
 ------------------------------------------------------
 Symbolic Z-matrix:
 Charge =  0 Multiplicity = 1

                         Standard orientation:
 ---------------------------------------------------------------------
 Center     Atomic      Atomic             Coordinates (Angstroms)
 Number     Number       Type             X           Y           Z
 ---------------------------------------------------------------------
      1          6           0       -2.789171   -2.142760    0.828132
      2          6           0       -4.015888   -1.777966    1.392589
      3          6           0       -4.671598   -0.615677    0.975844
      4          6           0       -4.069281    0.161988   -0.011952
      5          6           0       -2.847959   -0.174822   -0.593520
      6          6           0       -2.210143   -1.341437   -0.161376
      7          1           0       -2.286750   -3.047335    1.157851
      8          1           0       -4.467920   -2.398369    2.161232
      9          1           0       -5.622063   -0.309757    1.395899
     10          1           0       -2.422121    0.463813   -1.357866
     11          1           0       -1.257540   -1.622276   -0.601516
     12          7           0       -4.753980    1.394742   -0.461292
     13          8           0       -4.202426    2.062823   -1.333124
     14          8           0       -5.829237    1.669550    0.066856
     15          6           0        5.244827    1.999771    0.870583
     16          6           0        5.909167    0.808393    0.561081
     17          6           0        5.205413   -0.283252    0.043790
     18          6           0        3.831877   -0.148165   -0.152274
     19          6           0        3.141582    1.025571    0.146270
     20          6           0        3.865587    2.104373    0.662556
     21          1           0        5.799386    2.842799    1.272036
     22          1           0        6.980244    0.724301    0.721602
     23          1           0        5.694667   -1.217281   -0.204479
     24          1           0        2.073260    1.079312   -0.024657
     25          1           0        3.347025    3.028386    0.902010
     26          7           0        3.076126   -1.297042   -0.699375
     27          8           0        1.866562   -1.152631   -0.862894
     28          8           0        3.707640   -2.320191   -0.954313
 ---------------------------------------------------------------------

 SCF Done:  E(RHF) =  -868.340191887     A.U. after   16 cycles
 E2 =    -0.2598139807D+01 EUMP2 =    -0.87093833169437D+03

 The electronic state is 1-A.
 Alpha  occ. eigenvalues --  -20.61581 -20.61533 -20.60359 -20.60353 -15.86601
 Alpha  occ. eigenvalues --  -15.85401 -11.31697 -11.30598 -11.28234 -11.28227
 Alpha  occ. eigenvalues --  -11.27917 -11.27186 -11.27169 -11.27157 -11.27055
 Alpha  occ. eigenvalues --  -11.26768 -11.26158 -11.25883  -1.60621  -1.59438
 Alpha  occ. eigenvalues --   -1.40185  -1.38996  -1.19842  -1.18725  -1.09284
 Alpha  occ. eigenvalues --   -1.08144  -1.05204  -1.04078  -0.96165  -0.95018
 Alpha  occ. eigenvalues --   -0.86614  -0.85476  -0.83012  -0.81840  -0.78087
 Alpha  occ. eigenvalues --   -0.76917  -0.72840  -0.71925  -0.71623  -0.70946
 Alpha  occ. eigenvalues --   -0.70760  -0.69823  -0.65500  -0.65199  -0.64359
 Alpha  occ. eigenvalues --   -0.64022  -0.62554  -0.61404  -0.55709  -0.54569
 Alpha  occ. eigenvalues --   -0.53548  -0.53290  -0.52451  -0.52122  -0.49597
 Alpha  occ. eigenvalues --   -0.49548  -0.48390  -0.48361  -0.45648  -0.44439
 Alpha  occ. eigenvalues --   -0.37804  -0.36795  -0.36701  -0.35688
 Alpha virt. eigenvalues --    0.04429   0.05569   0.10863   0.11964   0.15976
 Alpha virt. eigenvalues --    0.17125   0.20989   0.22237   0.26942   0.27525
 Alpha virt. eigenvalues --    0.28475   0.28991   0.30642   0.31657   0.32318

 Mulliken charges:
               1
     1  C   -0.172924
     2  C   -0.218691
     3  C   -0.173281
     4  C    0.158189
     5  C   -0.175315
     6  C   -0.226776
     7  H    0.227310
     8  H    0.220917
     9  H    0.272843
    10  H    0.274431
    11  H    0.248418
    12  N    0.488031
    13  O   -0.462476
    14  O   -0.462484
    15  C   -0.169940
    16  C   -0.218546
    17  C   -0.170586
    18  C    0.157601
    19  C   -0.170315
    20  C   -0.218485
    21  H    0.227862
    22  H    0.225035
    23  H    0.276001
    24  H    0.274309
    25  H    0.226587
    26  N    0.492738
    27  O   -0.473398
    28  O   -0.457056
 Sum of Mulliken charges =  -0.00000

 Dipole moment (field-independent basis, Debye):
    X=              5.5328    Y=             -0.3324    Z=              3.5099  Tot=              6.5606
 Quadrupole moment (field-independent basis, Debye-Ang):
   XX=            -98.3870   YY=           -106.6523   ZZ=           -104.7965
   XY=             32.0981   XZ=             -2.0904   YZ=             -0.9264

 Normal termination of Gaussian 16 at Thu May  6 00:11:25 2021.
