 Gaussian 16, Revision A.03,
 Gaussian 16:  EM64L-G16RevA.03 25-Dec-2016

 -------------
 #p 6-31g* mp2
 -------------

 ------------------------------------------------------
 Input file generated by CHIRIPA (05-May-2021 14:51:11)
 ------------------------------------------------------
 Symbolic Z-matrix:
 Charge =  0 Multiplicity = 1

                         Standard orientation:
 ---------------------------------------------------------------------
 Center     Atomic      Atomic             Coordinates (Angstroms)
 Number     Number       Type             X           Y           Z
 ---------------------------------------------------------------------
      1          6           0        3.794615    0.447756   -0.724937
      2          6           0        2.532265    1.055865   -0.112840
      3          6           0        1.728310    1.883328   -1.116212
      4          1           0        4.424588    1.253391   -1.126223
      5          1           0        3.512235   -0.183139   -1.579119
      6          1           0        2.816826    1.684324    0.740787
      7          1           0        1.905313    0.248703    0.287207
      8          1           0        1.416045    1.264334   -1.963523
      9          1           0        2.332737    2.708112   -1.507366
     10          1           0        0.830193    2.308668   -0.657594
     11          6           0        4.608951   -0.382310    0.265808
     12          6           0        5.871300   -0.990419   -0.346289
     13          6           0        6.675255   -1.817882    0.657083
     14          1           0        4.891331    0.248585    1.119990
     15          1           0        3.978977   -1.187945    0.667095
     16          1           0        6.498252   -0.183257   -0.746336
     17          1           0        5.586739   -1.618878   -1.199916
     18          1           0        6.070828   -2.642666    1.048238
     19          1           0        6.987521   -1.198888    1.504395
     20          1           0        7.573373   -2.243222    0.198465
     21          6           0       -3.543165    0.313281    0.056545
     22          6           0       -2.781406    0.815433    1.283555
     23          6           0       -1.465910    1.505330    0.921190
     24          1           0       -2.904538   -0.383083   -0.503971
     25          1           0       -3.744824    1.160641   -0.613312
     26          1           0       -2.582456   -0.032393    1.951556
     27          1           0       -3.421991    1.510537    1.841318
     28          1           0       -1.649365    2.368744    0.273532
     29          1           0       -0.805060    0.817049    0.384397
     30          1           0       -0.937733    1.856448    1.813157
     31          6           0       -4.860400   -0.378728    0.402583
     32          6           0       -5.622159   -0.880880   -0.824425
     33          6           0       -6.937655   -1.570775   -0.462062
     34          1           0       -4.658741   -1.226088    1.072441
     35          1           0       -5.499027    0.317637    0.963099
     36          1           0       -4.981574   -1.575982   -1.382189
     37          1           0       -5.821109   -0.033053   -1.492427
     38          1           0       -7.598506   -0.882495    0.074732
     39          1           0       -6.754201   -2.434191    0.185596
     40          1           0       -7.465832   -1.921894   -1.354028
 ---------------------------------------------------------------------

 SCF Done:  E(RHF) =  -470.732646326     A.U. after   11 cycles
 E2 =    -0.1582891842D+01 EUMP2 =    -0.47231553816830D+03

 The electronic state is 1-A.
 Alpha  occ. eigenvalues --  -11.21608 -11.21604 -11.21578 -11.21527 -11.21413
 Alpha  occ. eigenvalues --  -11.21364 -11.21353 -11.21302 -11.21077 -11.21069
 Alpha  occ. eigenvalues --  -11.21055 -11.20881  -1.08442  -1.08380  -1.03566
 Alpha  occ. eigenvalues --   -1.03449  -0.96057  -0.95860  -0.87093  -0.86862
 Alpha  occ. eigenvalues --   -0.79629  -0.79522  -0.78255  -0.78195  -0.65085
 Alpha  occ. eigenvalues --   -0.65004  -0.61012  -0.60815  -0.59376  -0.59316
 Alpha  occ. eigenvalues --   -0.57753  -0.57400  -0.55342  -0.55137  -0.52935
 Alpha  occ. eigenvalues --   -0.52626  -0.52426  -0.52034  -0.49931  -0.49859
 Alpha  occ. eigenvalues --   -0.48000  -0.47737  -0.46671  -0.46542  -0.45788
 Alpha  occ. eigenvalues --   -0.45751  -0.45708  -0.45647  -0.43812  -0.43680
 Alpha virt. eigenvalues --    0.22086   0.22998   0.23529   0.24812   0.26308
 Alpha virt. eigenvalues --    0.26615   0.26956   0.27546   0.27683   0.29115
 Alpha virt. eigenvalues --    0.29672   0.31194   0.31494   0.31852   0.32224

 Mulliken charges:
               1
     1  C   -0.298064
     2  C   -0.300466
     3  C   -0.483186
     4  H    0.149658
     5  H    0.149161
     6  H    0.151716
     7  H    0.152017
     8  H    0.153489
     9  H    0.154107
    10  H    0.171512
    11  C   -0.298168
    12  C   -0.299591
    13  C   -0.475665
    14  H    0.149459
    15  H    0.149311
    16  H    0.151939
    17  H    0.151809
    18  H    0.155055
    19  H    0.155154
    20  H    0.160165
    21  C   -0.298275
    22  C   -0.300603
    23  C   -0.480254
    24  H    0.149508
    25  H    0.149663
    26  H    0.151843
    27  H    0.151832
    28  H    0.154614
    29  H    0.161374
    30  H    0.160806
    31  C   -0.298283
    32  C   -0.299630
    33  C   -0.475710
    34  H    0.149475
    35  H    0.149706
    36  H    0.151882
    37  H    0.151998
    38  H    0.155207
    39  H    0.155161
    40  H    0.160275
 Sum of Mulliken charges =  -0.00000

 Dipole moment (field-independent basis, Debye):
    X=             -0.0371    Y=              0.0148    Z=              0.0141  Tot=              0.0423
 Quadrupole moment (field-independent basis, Debye-Ang):
   XX=            -85.8760   YY=            -83.9233   ZZ=            -85.1684
   XY=             -0.0858   XZ=             -0.0800   YZ=              0.6312

 Normal termination of Gaussian 16 at Wed May  5 21:27:16 2021.
