 Gaussian 16, Revision A.03,
 Gaussian 16:  EM64L-G16RevA.03 25-Dec-2016

 -------------
 #p 6-31g* mp2
 -------------

 ------------------------------------------------------
 Input file generated by CHIRIPA (05-May-2021 14:57:22)
 ------------------------------------------------------
 Symbolic Z-matrix:
 Charge =  0 Multiplicity = 1

                         Standard orientation:
 ---------------------------------------------------------------------
 Center     Atomic      Atomic             Coordinates (Angstroms)
 Number     Number       Type             X           Y           Z
 ---------------------------------------------------------------------
      1          6           0        1.136449   -0.954248    0.031937
      2          6           0        1.564560    0.100358   -0.781111
      3          6           0        2.909480    0.481656   -0.799853
      4          6           0        3.803224   -0.216586    0.010684
      5          6           0        3.407433   -1.271528    0.831498
      6          6           0        2.057627   -1.635624    0.834233
      7          1           0        0.089785   -1.243767    0.040279
      8          1           0        0.851385    0.631315   -1.405219
      9          1           0        3.268039    1.294379   -1.419799
     10          1           0        4.141798   -1.781936    1.442734
     11          1           0        1.727994   -2.455034    1.466651
     12          7           0        5.229617    0.177971   -0.000684
     13          8           0        5.997220   -0.453118    0.722607
     14          8           0        5.553011    1.110843   -0.732670
     15          6           0       -2.289654    2.421308    0.378731
     16          6           0       -2.059066    1.669669   -0.778156
     17          6           0       -2.761656    0.482531   -1.005352
     18          6           0       -3.691737    0.074755   -0.050386
     19          6           0       -3.943831    0.801671    1.112083
     20          6           0       -3.229643    1.985679    1.318502
     21          1           0       -1.739360    3.342291    0.547153
     22          1           0       -1.329656    2.005557   -1.509719
     23          1           0       -2.602869   -0.118741   -1.892300
     24          1           0       -4.677234    0.441255    1.823165
     25          1           0       -3.410787    2.567380    2.217865
     26          7           0       -4.441676   -1.180357   -0.279910
     27          8           0       -5.255768   -1.518006    0.576761
     28          8           0       -4.201187   -1.802701   -1.312136
 ---------------------------------------------------------------------

 SCF Done:  E(RHF) =  -868.337381199     A.U. after   16 cycles
 E2 =    -0.2600510967D+01 EUMP2 =    -0.87093789216612D+03

 The electronic state is 1-A.
 Alpha  occ. eigenvalues --  -20.61663 -20.61649 -20.61023 -20.61013 -15.86719
 Alpha  occ. eigenvalues --  -15.86077 -11.32213 -11.31463 -11.28852 -11.28732
 Alpha  occ. eigenvalues --  -11.28488 -11.28095 -11.28019 -11.27893 -11.27744
 Alpha  occ. eigenvalues --  -11.27722 -11.27128 -11.26991  -1.60737  -1.60097
 Alpha  occ. eigenvalues --   -1.40285  -1.39650  -1.20392  -1.19645  -1.09741
 Alpha  occ. eigenvalues --   -1.09022  -1.05818  -1.05066  -0.96555  -0.95851
 Alpha  occ. eigenvalues --   -0.87196  -0.86456  -0.83393  -0.82696  -0.78442
 Alpha  occ. eigenvalues --   -0.77749  -0.72923  -0.72293  -0.72075  -0.71437
 Alpha  occ. eigenvalues --   -0.71422  -0.70715  -0.66029  -0.65871  -0.65295
 Alpha  occ. eigenvalues --   -0.65061  -0.63163  -0.62395  -0.56241  -0.55528
 Alpha  occ. eigenvalues --   -0.54129  -0.53915  -0.53370  -0.53116  -0.49696
 Alpha  occ. eigenvalues --   -0.49677  -0.49054  -0.49047  -0.45663  -0.45051
 Alpha  occ. eigenvalues --   -0.38351  -0.37660  -0.37365  -0.36664
 Alpha virt. eigenvalues --    0.04084   0.04808   0.10062   0.11061   0.15450
 Alpha virt. eigenvalues --    0.16291   0.18978   0.21843   0.24802   0.27179
 Alpha virt. eigenvalues --    0.27794   0.28648   0.29236   0.31311   0.32015

 Mulliken charges:
               1
     1  C   -0.170946
     2  C   -0.218739
     3  C   -0.172167
     4  C    0.158436
     5  C   -0.170323
     6  C   -0.219159
     7  H    0.229941
     8  H    0.213675
     9  H    0.274049
    10  H    0.276735
    11  H    0.226346
    12  N    0.488115
    13  O   -0.459283
    14  O   -0.461179
    15  C   -0.169113
    16  C   -0.221395
    17  C   -0.179287
    18  C    0.157477
    19  C   -0.169911
    20  C   -0.218107
    21  H    0.230505
    22  H    0.220858
    23  H    0.276109
    24  H    0.278793
    25  H    0.228010
    26  N    0.487603
    27  O   -0.457051
    28  O   -0.459993
 Sum of Mulliken charges =  -0.00000

 Dipole moment (field-independent basis, Debye):
    X=             -2.6021    Y=              3.0460    Z=              1.0704  Tot=              4.1466
 Quadrupole moment (field-independent basis, Debye-Ang):
   XX=           -161.6295   YY=           -101.4659   ZZ=            -99.5395
   XY=            -22.0647   XZ=             -4.9032   YZ=             -2.1356

 Normal termination of Gaussian 16 at Fri May  7 07:56:12 2021.
