 Gaussian 16, Revision A.03,
 Gaussian 16:  EM64L-G16RevA.03 25-Dec-2016

 -------------
 #p 6-31g* mp2
 -------------

 ------------------------------------------------------
 Input file generated by CHIRIPA (05-May-2021 14:55:19)
 ------------------------------------------------------
 Symbolic Z-matrix:
 Charge =  0 Multiplicity = 1

                         Standard orientation:
 ---------------------------------------------------------------------
 Center     Atomic      Atomic             Coordinates (Angstroms)
 Number     Number       Type             X           Y           Z
 ---------------------------------------------------------------------
      1          6           0        0.567850   -0.741911    0.872735
      2          6           0        1.582684   -1.695676    1.002981
      3          6           0        2.882269   -1.413006    0.572022
      4          6           0        3.132884   -0.160846    0.012936
      5          6           0        2.143160    0.810337   -0.130389
      6          6           0        0.850828    0.505852    0.307462
      7          1           0       -0.438882   -0.969969    1.210191
      8          1           0        1.365817   -2.665535    1.441599
      9          1           0        3.686786   -2.132917    0.660892
     10          1           0        2.389871    1.768386   -0.571630
     11          1           0        0.064672    1.248493    0.205057
     12          7           0        4.504857    0.149952   -0.446949
     13          8           0        4.699876    1.260498   -0.936123
     14          8           0        5.359212   -0.722877   -0.309524
     15          6           0       -3.258973    0.774944    0.228139
     16          6           0       -3.543690    2.224274   -0.167290
     17          6           0       -2.611907    3.219742    0.524532
     18          1           0       -3.355265    0.673172    1.317778
     19          1           0       -2.215512    0.533443   -0.017347
     20          1           0       -4.586702    2.462543    0.077598
     21          1           0       -3.446895    2.322564   -1.256137
     22          1           0       -1.567667    3.010147    0.271085
     23          1           0       -2.713950    3.150921    1.612398
     24          1           0       -2.832955    4.249686    0.227529
     25          6           0       -4.182348   -0.232048   -0.455289
     26          6           0       -3.897631   -1.681378   -0.059860
     27          6           0       -4.829414   -2.676845   -0.751683
     28          1           0       -5.225808    0.009452   -0.209804
     29          1           0       -4.086054   -0.130276   -1.544929
     30          1           0       -3.994425   -1.779668    1.028986
     31          1           0       -2.854619   -1.919647   -0.304749
     32          1           0       -4.727371   -2.608025   -1.839549
     33          1           0       -5.873654   -2.467251   -0.498236
     34          1           0       -4.608365   -3.706790   -0.454680
 ---------------------------------------------------------------------

 SCF Done:  E(RHF) =  -669.534879031     A.U. after   15 cycles
 E2 =    -0.2092896087D+01 EUMP2 =    -0.67162777511745D+03

 The electronic state is 1-A.
 Alpha  occ. eigenvalues --  -20.60716 -20.60711 -15.85769 -11.31124 -11.27693
 Alpha  occ. eigenvalues --  -11.27685 -11.27385 -11.26696 -11.26649 -11.22676
 Alpha  occ. eigenvalues --  -11.22628 -11.22615 -11.22373 -11.22209 -11.21863
 Alpha  occ. eigenvalues --   -1.59792  -1.39346  -1.19291  -1.09527  -1.08682
 Alpha  occ. eigenvalues --   -1.04702  -1.04552  -0.97005  -0.95522  -0.88015
 Alpha  occ. eigenvalues --   -0.86104  -0.82358  -0.80631  -0.79390  -0.77409
 Alpha  occ. eigenvalues --   -0.71988  -0.71115  -0.70391  -0.66220  -0.64938
 Alpha  occ. eigenvalues --   -0.64686  -0.62202  -0.61793  -0.60359  -0.58629
 Alpha  occ. eigenvalues --   -0.56314  -0.55171  -0.53656  -0.53443  -0.53020
 Alpha  occ. eigenvalues --   -0.52809  -0.50947  -0.48949  -0.48743  -0.48729
 Alpha  occ. eigenvalues --   -0.47635  -0.46858  -0.46786  -0.44819  -0.44754
 Alpha  occ. eigenvalues --   -0.37258  -0.36298
 Alpha virt. eigenvalues --    0.05110   0.11280   0.16560   0.19377   0.22230
 Alpha virt. eigenvalues --    0.22746   0.25159   0.25360   0.26204   0.28211
 Alpha virt. eigenvalues --    0.29686   0.30331   0.31038   0.31209   0.31963

 Mulliken charges:
               1
     1  C   -0.177407
     2  C   -0.219071
     3  C   -0.171071
     4  C    0.158654
     5  C   -0.173519
     6  C   -0.228273
     7  H    0.231627
     8  H    0.223271
     9  H    0.275308
    10  H    0.275583
    11  H    0.236298
    12  N    0.488052
    13  O   -0.460538
    14  O   -0.460673
    15  C   -0.307270
    16  C   -0.301093
    17  C   -0.480022
    18  H    0.150090
    19  H    0.145094
    20  H    0.157082
    21  H    0.155585
    22  H    0.148397
    23  H    0.158449
    24  H    0.167445
    25  C   -0.297537
    26  C   -0.303269
    27  C   -0.476031
    28  H    0.153666
    29  H    0.153532
    30  H    0.150887
    31  H    0.149070
    32  H    0.158129
    33  H    0.157786
    34  H    0.161770
 Sum of Mulliken charges =  -0.00000

 Dipole moment (field-independent basis, Debye):
    X=             -5.1462    Y=             -1.0484    Z=              1.5730  Tot=              5.4824
 Quadrupole moment (field-independent basis, Debye-Ang):
   XX=           -123.9134   YY=            -90.5763   ZZ=            -94.5972
   XY=             -5.0309   XZ=              5.0014   YZ=             -2.0433

 Normal termination of Gaussian 16 at Thu May  6 02:53:31 2021.
