 Gaussian 16, Revision A.03,
 Gaussian 16:  EM64L-G16RevA.03 25-Dec-2016

 -------------
 #p 6-31g* mp2
 -------------

 ------------------------------------------------------
 Input file generated by CHIRIPA (05-May-2021 14:53:13)
 ------------------------------------------------------
 Symbolic Z-matrix:
 Charge =  0 Multiplicity = 1

                         Standard orientation:
 ---------------------------------------------------------------------
 Center     Atomic      Atomic             Coordinates (Angstroms)
 Number     Number       Type             X           Y           Z
 ---------------------------------------------------------------------
      1          6           0        3.987718    0.489215   -0.118587
      2          6           0        4.027570    1.912145    0.439683
      3          6           0        2.716213    2.668422    0.224786
      4          1           0        3.757774    0.529635   -1.192104
      5          1           0        3.163946   -0.060865    0.357025
      6          1           0        4.851890    2.458954   -0.035830
      7          1           0        4.257635    1.868342    1.511955
      8          1           0        1.886609    2.147752    0.713931
      9          1           0        2.484241    2.741720   -0.842649
     10          1           0        2.766761    3.683277    0.631448
     11          6           0        5.291462   -0.279582    0.088609
     12          6           0        5.251610   -1.702513   -0.469662
     13          6           0        6.562967   -2.458790   -0.254765
     14          1           0        6.115234    0.270497   -0.387004
     15          1           0        5.521406   -0.320003    1.162125
     16          1           0        5.021545   -1.658710   -1.541934
     17          1           0        4.427290   -2.249322    0.005851
     18          1           0        6.794939   -2.532088    0.812670
     19          1           0        7.392571   -1.938120   -0.743909
     20          1           0        6.512419   -3.473645   -0.661427
     21          6           0       -1.287927    0.862292    0.130174
     22          6           0       -2.087762    1.111767   -0.989892
     23          6           0       -3.384024    0.593679   -1.066304
     24          6           0       -3.850588   -0.173167    0.000258
     25          6           0       -3.077962   -0.439311    1.129641
     26          6           0       -1.784704    0.088913    1.184507
     27          1           0       -0.282126    1.268693    0.181164
     28          1           0       -1.704584    1.712043   -1.810190
     29          1           0       -4.024644    0.771298   -1.921567
     30          1           0       -3.487598   -1.041292    1.931661
     31          1           0       -1.165786   -0.106459    2.055607
     32          7           0       -5.221293   -0.727009   -0.069232
     33          8           0       -5.608980   -1.399566    0.883661
     34          8           0       -5.882008   -0.478067   -1.075273
 ---------------------------------------------------------------------

 SCF Done:  E(RHF) =  -669.535567878     A.U. after   15 cycles
 E2 =    -0.2090810433D+01 EUMP2 =    -0.67162637831106D+03

 The electronic state is 1-A.
 Alpha  occ. eigenvalues --  -20.60715 -20.60710 -15.85769 -11.31120 -11.27697
 Alpha  occ. eigenvalues --  -11.27691 -11.27389 -11.26702 -11.26687 -11.22572
 Alpha  occ. eigenvalues --  -11.22365 -11.22267 -11.22170 -11.22050 -11.21531
 Alpha  occ. eigenvalues --   -1.59791  -1.39345  -1.19292  -1.09228  -1.08685
 Alpha  occ. eigenvalues --   -1.04697  -1.04340  -0.96813  -0.95523  -0.87833
 Alpha  occ. eigenvalues --   -0.86093  -0.82361  -0.80416  -0.79008  -0.77411
 Alpha  occ. eigenvalues --   -0.71987  -0.71114  -0.70409  -0.65856  -0.64943
 Alpha  occ. eigenvalues --   -0.64705  -0.62049  -0.61740  -0.60187  -0.58416
 Alpha  occ. eigenvalues --   -0.56168  -0.55181  -0.53488  -0.53204  -0.53024
 Alpha  occ. eigenvalues --   -0.52789  -0.50757  -0.48770  -0.48743  -0.48694
 Alpha  occ. eigenvalues --   -0.47438  -0.46555  -0.46456  -0.44754  -0.44574
 Alpha  occ. eigenvalues --   -0.37264  -0.36306
 Alpha virt. eigenvalues --    0.05128   0.11349   0.16621   0.19733   0.22374
 Alpha virt. eigenvalues --    0.23709   0.25269   0.26153   0.26971   0.27358
 Alpha virt. eigenvalues --    0.29066   0.30314   0.30996   0.31196   0.32399

 Mulliken charges:
               1
     1  C   -0.298513
     2  C   -0.299641
     3  C   -0.480961
     4  H    0.150338
     5  H    0.145456
     6  H    0.156281
     7  H    0.154423
     8  H    0.146997
     9  H    0.155446
    10  H    0.166486
    11  C   -0.298817
    12  C   -0.300153
    13  C   -0.476170
    14  H    0.151447
    15  H    0.150709
    16  H    0.152750
    17  H    0.151940
    18  H    0.155797
    19  H    0.156081
    20  H    0.162126
    21  C   -0.177641
    22  C   -0.221416
    23  C   -0.170661
    24  C    0.158118
    25  C   -0.170751
    26  C   -0.221586
    27  H    0.238026
    28  H    0.223969
    29  H    0.275314
    30  H    0.275309
    31  H    0.222576
    32  N    0.488019
    33  O   -0.460686
    34  O   -0.460613
 Sum of Mulliken charges =  -0.00000

 Dipole moment (field-independent basis, Debye):
    X=              5.1054    Y=              1.9748    Z=              0.2231  Tot=              5.4786
 Quadrupole moment (field-independent basis, Debye-Ang):
   XX=           -132.2756   YY=            -95.3029   ZZ=            -90.0701
   XY=             -7.8544   XZ=             -0.6742   YZ=             -2.5269

 Normal termination of Gaussian 16 at Thu May  6 02:35:51 2021.
