 Gaussian 16, Revision A.03,
 Gaussian 16:  EM64L-G16RevA.03 25-Dec-2016

 -------------
 #p 6-31g* mp2
 -------------

 ------------------------------------------------------
 Input file generated by CHIRIPA (05-May-2021 14:55:22)
 ------------------------------------------------------
 Symbolic Z-matrix:
 Charge =  0 Multiplicity = 1

                         Standard orientation:
 ---------------------------------------------------------------------
 Center     Atomic      Atomic             Coordinates (Angstroms)
 Number     Number       Type             X           Y           Z
 ---------------------------------------------------------------------
      1          6           0       -4.042225    2.097159   -0.317785
      2          6           0       -4.485989    0.889228   -0.865961
      3          6           0       -3.788715   -0.298370   -0.625199
      4          6           0       -2.646513   -0.241315    0.171927
      5          6           0       -2.179217    0.946525    0.732250
      6          6           0       -2.892283    2.121909    0.478168
      7          1           0       -4.590018    3.014970   -0.509988
      8          1           0       -5.378725    0.867011   -1.484488
      9          1           0       -4.110058   -1.247321   -1.037084
     10          1           0       -1.285869    0.937098    1.344833
     11          1           0       -2.545323    3.058556    0.905199
     12          7           0       -1.899981   -1.492106    0.433861
     13          8           0       -0.896592   -1.415184    1.139502
     14          8           0       -2.332375   -2.525716   -0.071435
     15          6           0        3.725888   -0.683790   -0.024946
     16          6           0        2.669876   -1.675314   -0.514541
     17          6           0        3.046004   -3.129254   -0.227524
     18          1           0        4.687491   -0.916408   -0.502600
     19          1           0        3.872789   -0.819049    1.055573
     20          1           0        2.524011   -1.537282   -1.593561
     21          1           0        1.710632   -1.440189   -0.035810
     22          1           0        3.171992   -3.289438    0.848148
     23          1           0        3.989991   -3.387081   -0.718454
     24          1           0        2.277275   -3.821032   -0.585796
     25          6           0        3.364161    0.773822   -0.304672
     26          6           0        4.420174    1.765346    0.184923
     27          6           0        4.044047    3.219287   -0.102094
     28          1           0        3.217260    0.909082   -1.385191
     29          1           0        2.402559    1.006441    0.172983
     30          1           0        5.379419    1.530221   -0.293808
     31          1           0        4.566040    1.627314    1.263944
     32          1           0        3.100058    3.477114    0.388836
     33          1           0        3.918059    3.379469   -1.177766
     34          1           0        4.812775    3.911066    0.256179
 ---------------------------------------------------------------------

 SCF Done:  E(RHF) =  -669.536358425     A.U. after   15 cycles
 E2 =    -0.2091150217D+01 EUMP2 =    -0.67162750864206D+03

 The electronic state is 1-A.
 Alpha  occ. eigenvalues --  -20.60987 -20.60981 -15.86007 -11.31306 -11.27870
 Alpha  occ. eigenvalues --  -11.27863 -11.27599 -11.26870 -11.26860 -11.21302
 Alpha  occ. eigenvalues --  -11.20961 -11.20924 -11.20621 -11.20398 -11.19935
 Alpha  occ. eigenvalues --   -1.60038  -1.39596  -1.19472  -1.08880  -1.07798
 Alpha  occ. eigenvalues --   -1.04866  -1.02841  -0.95726  -0.95334  -0.86358
 Alpha  occ. eigenvalues --   -0.86267  -0.82563  -0.78963  -0.77638  -0.77527
 Alpha  occ. eigenvalues --   -0.72233  -0.71344  -0.70583  -0.65130  -0.64869
 Alpha  occ. eigenvalues --   -0.64427  -0.62215  -0.60228  -0.58750  -0.56909
 Alpha  occ. eigenvalues --   -0.55371  -0.54639  -0.53196  -0.52958  -0.52023
 Alpha  occ. eigenvalues --   -0.51760  -0.49308  -0.48999  -0.48986  -0.47274
 Alpha  occ. eigenvalues --   -0.46032  -0.45331  -0.45072  -0.44591  -0.43107
 Alpha  occ. eigenvalues --   -0.37447  -0.36465
 Alpha virt. eigenvalues --    0.04868   0.11186   0.16338   0.21198   0.23353
 Alpha virt. eigenvalues --    0.25060   0.26483   0.27426   0.27761   0.28510
 Alpha virt. eigenvalues --    0.28908   0.30980   0.32028   0.32194   0.32578

 Mulliken charges:
               1
     1  C   -0.170511
     2  C   -0.218541
     3  C   -0.170694
     4  C    0.158486
     5  C   -0.170606
     6  C   -0.218382
     7  H    0.226120
     8  H    0.223883
     9  H    0.275864
    10  H    0.275284
    11  H    0.223981
    12  N    0.488914
    13  O   -0.460468
    14  O   -0.458230
    15  C   -0.297318
    16  C   -0.310500
    17  C   -0.473817
    18  H    0.146213
    19  H    0.149576
    20  H    0.145180
    21  H    0.174900
    22  H    0.155688
    23  H    0.148092
    24  H    0.165121
    25  C   -0.296686
    26  C   -0.299186
    27  C   -0.474527
    28  H    0.147496
    29  H    0.146525
    30  H    0.151992
    31  H    0.151829
    32  H    0.150660
    33  H    0.154383
    34  H    0.159279
 Sum of Mulliken charges =  -0.00000

 Dipole moment (field-independent basis, Debye):
    X=             -2.9031    Y=              4.3144    Z=             -0.8677  Tot=              5.2721
 Quadrupole moment (field-independent basis, Debye-Ang):
   XX=            -79.4942   YY=            -97.3807   ZZ=            -93.4619
   XY=             -9.2508   XZ=              4.0181   YZ=              2.7051

 Normal termination of Gaussian 16 at Wed May  5 15:58:27 2021.
