 Gaussian 16, Revision A.03,
 Gaussian 16:  EM64L-G16RevA.03 25-Dec-2016

 -------------
 #p 6-31g* mp2
 -------------

 ------------------------------------------------------
 Input file generated by CHIRIPA (05-May-2021 14:53:18)
 ------------------------------------------------------
 Symbolic Z-matrix:
 Charge =  0 Multiplicity = 1

                         Standard orientation:
 ---------------------------------------------------------------------
 Center     Atomic      Atomic             Coordinates (Angstroms)
 Number     Number       Type             X           Y           Z
 ---------------------------------------------------------------------
      1          6           0        4.933555   -0.326636    0.162832
      2          6           0        6.214254   -0.682786   -0.592782
      3          6           0        7.089492   -1.681445    0.165131
      4          1           0        5.198219    0.087456    1.145393
      5          1           0        4.361718   -1.245151    0.354478
      6          1           0        6.782834    0.236294   -0.784160
      7          1           0        5.946514   -1.095901   -1.573734
      8          1           0        6.544212   -2.613928    0.343301
      9          1           0        7.385283   -1.274165    1.137361
     10          1           0        7.999676   -1.922017   -0.393037
     11          6           0        4.048108    0.670745   -0.582113
     12          6           0        2.767409    1.026894    0.173501
     13          6           0        1.892171    2.025553   -0.584412
     14          1           0        4.619945    1.589259   -0.773759
     15          1           0        3.783444    0.256652   -1.564674
     16          1           0        3.035149    1.440009    1.154453
     17          1           0        2.198830    0.107815    0.364879
     18          1           0        1.596380    1.618273   -1.556643
     19          1           0        2.437451    2.958037   -0.762582
     20          1           0        0.981988    2.266125   -0.026244
     21          6           0       -1.398568    0.835350    1.150605
     22          6           0       -1.616191   -0.545980    1.183616
     23          6           0       -2.781609   -1.094335    0.639872
     24          6           0       -3.712439   -0.228171    0.068379
     25          6           0       -3.524382    1.152265    0.020203
     26          6           0       -2.351677    1.678577    0.570027
     27          1           0       -0.490412    1.252763    1.575359
     28          1           0       -0.877729   -1.203249    1.633857
     29          1           0       -2.975469   -2.160022    0.651940
     30          1           0       -4.278816    1.782091   -0.435393
     31          1           0       -2.185328    2.751722    0.542978
     32          7           0       -4.950072   -0.797021   -0.510477
     33          8           0       -5.754686   -0.012508   -1.008242
     34          8           0       -5.092080   -2.016629   -0.455456
 ---------------------------------------------------------------------

 SCF Done:  E(RHF) =  -669.535188143     A.U. after   15 cycles
 E2 =    -0.2091577406D+01 EUMP2 =    -0.67162676554966D+03

 The electronic state is 1-A.
 Alpha  occ. eigenvalues --  -20.60757 -20.60751 -15.85811 -11.31178 -11.27753
 Alpha  occ. eigenvalues --  -11.27748 -11.27472 -11.26763 -11.26753 -11.22561
 Alpha  occ. eigenvalues --  -11.22109 -11.22091 -11.22013 -11.21981 -11.21493
 Alpha  occ. eigenvalues --   -1.59832  -1.39386  -1.19354  -1.09126  -1.08747
 Alpha  occ. eigenvalues --   -1.04757  -1.04236  -0.96677  -0.95579  -0.87688
 Alpha  occ. eigenvalues --   -0.86154  -0.82415  -0.80314  -0.78915  -0.77460
 Alpha  occ. eigenvalues --   -0.72029  -0.71156  -0.70496  -0.65746  -0.65007
 Alpha  occ. eigenvalues --   -0.64767  -0.62105  -0.61615  -0.60112  -0.58321
 Alpha  occ. eigenvalues --   -0.55932  -0.55255  -0.53425  -0.53151  -0.52919
 Alpha  occ. eigenvalues --   -0.52848  -0.50590  -0.48789  -0.48784  -0.48624
 Alpha  occ. eigenvalues --   -0.47338  -0.46459  -0.46363  -0.44791  -0.44490
 Alpha  occ. eigenvalues --   -0.37302  -0.36360
 Alpha virt. eigenvalues --    0.05051   0.11229   0.16467   0.19949   0.22463
 Alpha virt. eigenvalues --    0.24015   0.25572   0.26294   0.26430   0.27527
 Alpha virt. eigenvalues --    0.28961   0.30334   0.30966   0.31024   0.32222

 Mulliken charges:
               1
     1  C   -0.298666
     2  C   -0.300263
     3  C   -0.476064
     4  H    0.149656
     5  H    0.148798
     6  H    0.152918
     7  H    0.153317
     8  H    0.155432
     9  H    0.155374
    10  H    0.162041
    11  C   -0.298603
    12  C   -0.302055
    13  C   -0.475584
    14  H    0.151752
    15  H    0.152564
    16  H    0.150476
    17  H    0.147715
    18  H    0.161519
    19  H    0.158264
    20  H    0.149545
    21  C   -0.169410
    22  C   -0.220576
    23  C   -0.170982
    24  C    0.158403
    25  C   -0.170881
    26  C   -0.218915
    27  H    0.228677
    28  H    0.223575
    29  H    0.275517
    30  H    0.275674
    31  H    0.223622
    32  N    0.488099
    33  O   -0.460421
    34  O   -0.460520
 Sum of Mulliken charges =  -0.00000

 Dipole moment (field-independent basis, Debye):
    X=              4.5171    Y=              1.9904    Z=              1.9621  Tot=              5.3118
 Quadrupole moment (field-independent basis, Debye-Ang):
   XX=           -126.9532   YY=            -91.4825   ZZ=            -94.8706
   XY=             -9.2362   XZ=             -7.1715   YZ=             -1.0941

 Normal termination of Gaussian 16 at Thu May  6 19:00:16 2021.
