 Gaussian 16, Revision A.03,
 Gaussian 16:  EM64L-G16RevA.03 25-Dec-2016

 -------------
 #p 6-31g* mp2
 -------------

 ------------------------------------------------------
 Input file generated by CHIRIPA (05-May-2021 14:55:24)
 ------------------------------------------------------
 Symbolic Z-matrix:
 Charge =  0 Multiplicity = 1

                         Standard orientation:
 ---------------------------------------------------------------------
 Center     Atomic      Atomic             Coordinates (Angstroms)
 Number     Number       Type             X           Y           Z
 ---------------------------------------------------------------------
      1          6           0       -5.126638   -0.033688   -0.763606
      2          6           0       -4.373283   -1.161566   -1.105468
      3          6           0       -3.091716   -1.345940   -0.578078
      4          6           0       -2.592290   -0.378200    0.292177
      5          6           0       -3.318363    0.756130    0.651901
      6          6           0       -4.597706    0.919879    0.112443
      7          1           0       -6.121327    0.101527   -1.177983
      8          1           0       -4.781510   -1.903753   -1.785581
      9          1           0       -2.486865   -2.209753   -0.825866
     10          1           0       -2.884562    1.478752    1.332380
     11          1           0       -5.180505    1.796784    0.379705
     12          7           0       -1.236729   -0.562471    0.856889
     13          8           0       -0.819411    0.304653    1.621466
     14          8           0       -0.617227   -1.570538    0.524240
     15          6           0        3.513076    1.197385   -0.157910
     16          6           0        2.133484    1.701043   -0.583398
     17          6           0        1.966664    3.207688   -0.383443
     18          1           0        3.678457    1.449025    0.898627
     19          1           0        4.283548    1.731766   -0.730804
     20          1           0        1.365790    1.164885   -0.010862
     21          1           0        1.971291    1.448005   -1.638993
     22          1           0        2.710967    3.758565   -0.967523
     23          1           0        2.102026    3.473836    0.669859
     24          1           0        0.973314    3.546334   -0.693982
     25          6           0        3.695122   -0.306940   -0.351799
     26          6           0        5.074714   -0.810597    0.073688
     27          6           0        5.241534   -2.317244   -0.126267
     28          1           0        2.924651   -0.841321    0.221093
     29          1           0        3.529742   -0.558580   -1.408337
     30          1           0        5.236907   -0.557561    1.129283
     31          1           0        5.842408   -0.274439   -0.498848
     32          1           0        5.106172   -2.583390   -1.179568
     33          1           0        4.497231   -2.868119    0.457813
     34          1           0        6.234885   -2.655888    0.184272
 ---------------------------------------------------------------------

 SCF Done:  E(RHF) =  -669.536705858     A.U. after   15 cycles
 E2 =    -0.2091469870D+01 EUMP2 =    -0.67162817572798D+03

 The electronic state is 1-A.
 Alpha  occ. eigenvalues --  -20.61050 -20.61044 -15.86056 -11.31337 -11.27893
 Alpha  occ. eigenvalues --  -11.27890 -11.27627 -11.26891 -11.26881 -11.20601
 Alpha  occ. eigenvalues --  -11.20338 -11.20232 -11.20168 -11.20148 -11.20103
 Alpha  occ. eigenvalues --   -1.60096  -1.39652  -1.19500  -1.08913  -1.07280
 Alpha  occ. eigenvalues --   -1.04889  -1.02474  -0.95761  -0.94947  -0.86291
 Alpha  occ. eigenvalues --   -0.85970  -0.82597  -0.78536  -0.77656  -0.77079
 Alpha  occ. eigenvalues --   -0.72274  -0.71405  -0.70609  -0.65155  -0.64893
 Alpha  occ. eigenvalues --   -0.63892  -0.62236  -0.59860  -0.58327  -0.56561
 Alpha  occ. eigenvalues --   -0.55398  -0.54227  -0.53223  -0.52980  -0.51687
 Alpha  occ. eigenvalues --   -0.51380  -0.49096  -0.49041  -0.48854  -0.46869
 Alpha  occ. eigenvalues --   -0.45614  -0.45003  -0.44656  -0.44408  -0.42710
 Alpha  occ. eigenvalues --   -0.37474  -0.36487
 Alpha virt. eigenvalues --    0.04827   0.11169   0.16323   0.21301   0.24043
 Alpha virt. eigenvalues --    0.25301   0.27228   0.27766   0.28163   0.28732
 Alpha virt. eigenvalues --    0.29006   0.30880   0.32324   0.32450   0.32785

 Mulliken charges:
               1
     1  C   -0.170376
     2  C   -0.218651
     3  C   -0.170622
     4  C    0.159103
     5  C   -0.170600
     6  C   -0.218639
     7  H    0.226194
     8  H    0.224004
     9  H    0.276045
    10  H    0.276080
    11  H    0.224044
    12  N    0.487984
    13  O   -0.459547
    14  O   -0.459124
    15  C   -0.296326
    16  C   -0.309601
    17  C   -0.473174
    18  H    0.150367
    19  H    0.143265
    20  H    0.173627
    21  H    0.144446
    22  H    0.150203
    23  H    0.156359
    24  H    0.153535
    25  C   -0.302870
    26  C   -0.298808
    27  C   -0.475448
    28  H    0.167157
    29  H    0.144818
    30  H    0.151388
    31  H    0.147560
    32  H    0.152591
    33  H    0.158757
    34  H    0.156256
 Sum of Mulliken charges =  -0.00000

 Dipole moment (field-independent basis, Debye):
    X=             -5.1101    Y=              0.4933    Z=             -1.8379  Tot=              5.4529
 Quadrupole moment (field-independent basis, Debye-Ang):
   XX=            -71.5230   YY=            -93.4766   ZZ=            -94.5588
   XY=             -0.2626   XZ=              3.8324   YZ=              3.4754

 Normal termination of Gaussian 16 at Thu May  6 12:40:28 2021.
