 Gaussian 16, Revision A.03,
 Gaussian 16:  EM64L-G16RevA.03 25-Dec-2016

 -------------
 #p 6-31g* mp2
 -------------

 ------------------------------------------------------
 Input file generated by CHIRIPA (05-May-2021 14:55:19)
 ------------------------------------------------------
 Symbolic Z-matrix:
 Charge =  0 Multiplicity = 1

                         Standard orientation:
 ---------------------------------------------------------------------
 Center     Atomic      Atomic             Coordinates (Angstroms)
 Number     Number       Type             X           Y           Z
 ---------------------------------------------------------------------
      1          6           0        3.393551    1.845244    1.185722
      2          6           0        2.099907    1.705103    0.672530
      3          6           0        1.717543    0.527803    0.022676
      4          6           0        2.658480   -0.493790   -0.096805
      5          6           0        3.954865   -0.384329    0.403889
      6          6           0        4.315276    0.801921    1.050003
      7          1           0        3.682054    2.763275    1.689092
      8          1           0        1.381993    2.513706    0.776476
      9          1           0        0.722661    0.392693   -0.383984
     10          1           0        4.648492   -1.207826    0.284931
     11          1           0        5.320631    0.907966    1.447573
     12          7           0        2.265308   -1.744882   -0.782797
     13          8           0        3.112868   -2.630182   -0.875108
     14          8           0        1.117024   -1.816498   -1.215177
     15          6           0       -3.472906   -0.306073    0.337980
     16          6           0       -4.861108   -0.917951    0.528983
     17          6           0       -4.818859   -2.266534    1.248242
     18          1           0       -2.845379   -1.006590   -0.229849
     19          1           0       -2.995326   -0.184100    1.320036
     20          1           0       -5.336476   -1.037453   -0.453036
     21          1           0       -5.485462   -0.215813    1.096258
     22          1           0       -4.368493   -2.160020    2.240424
     23          1           0       -4.218660   -2.986327    0.682326
     24          1           0       -5.821899   -2.685942    1.374210
     25          6           0       -3.498689    1.042317   -0.379593
     26          6           0       -2.110486    1.654195   -0.570596
     27          6           0       -2.152735    3.002778   -1.289854
     28          1           0       -3.976268    0.920344   -1.361649
     29          1           0       -4.126216    1.742834    0.188237
     30          1           0       -1.486132    0.952057   -1.137871
     31          1           0       -1.635118    1.773697    0.411423
     32          1           0       -2.752934    3.722572   -0.723940
     33          1           0       -2.603102    2.896264   -2.282037
     34          1           0       -1.149695    3.422186   -1.415824
 ---------------------------------------------------------------------

 SCF Done:  E(RHF) =  -669.535768217     A.U. after   15 cycles
 E2 =    -0.2091747480D+01 EUMP2 =    -0.67162751569698D+03

 The electronic state is 1-A.
 Alpha  occ. eigenvalues --  -20.60744 -20.60738 -15.85793 -11.31109 -11.27700
 Alpha  occ. eigenvalues --  -11.27623 -11.27444 -11.26711 -11.26683 -11.22203
 Alpha  occ. eigenvalues --  -11.21625 -11.21620 -11.21520 -11.21335 -11.20880
 Alpha  occ. eigenvalues --   -1.59816  -1.39372  -1.19291  -1.08700  -1.08610
 Alpha  occ. eigenvalues --   -1.04689  -1.03737  -0.96148  -0.95538  -0.87170
 Alpha  occ. eigenvalues --   -0.86092  -0.82373  -0.79878  -0.78385  -0.77401
 Alpha  occ. eigenvalues --   -0.72015  -0.71137  -0.70408  -0.65243  -0.64945
 Alpha  occ. eigenvalues --   -0.64688  -0.62071  -0.61120  -0.59555  -0.57761
 Alpha  occ. eigenvalues --   -0.55407  -0.55203  -0.53026  -0.52902  -0.52811
 Alpha  occ. eigenvalues --   -0.52536  -0.50078  -0.48772  -0.48769  -0.48131
 Alpha  occ. eigenvalues --   -0.46882  -0.45910  -0.45784  -0.44786  -0.43963
 Alpha  occ. eigenvalues --   -0.37284  -0.36290
 Alpha virt. eigenvalues --    0.05103   0.11355   0.16585   0.19858   0.22980
 Alpha virt. eigenvalues --    0.23894   0.25408   0.25988   0.27251   0.28323
 Alpha virt. eigenvalues --    0.29586   0.30028   0.31407   0.31687   0.32124

 Mulliken charges:
               1
     1  C   -0.170439
     2  C   -0.224904
     3  C   -0.178380
     4  C    0.157819
     5  C   -0.169977
     6  C   -0.219243
     7  H    0.225311
     8  H    0.225000
     9  H    0.288909
    10  H    0.275311
    11  H    0.223121
    12  N    0.487321
    13  O   -0.460410
    14  O   -0.461883
    15  C   -0.302256
    16  C   -0.299840
    17  C   -0.476420
    18  H    0.160326
    19  H    0.147297
    20  H    0.152972
    21  H    0.150146
    22  H    0.154364
    23  H    0.160017
    24  H    0.159823
    25  C   -0.296434
    26  C   -0.312426
    27  C   -0.475199
    28  H    0.153020
    29  H    0.149508
    30  H    0.160181
    31  H    0.145096
    32  H    0.156687
    33  H    0.160827
    34  H    0.154757
 Sum of Mulliken charges =  -0.00000

 Dipole moment (field-independent basis, Debye):
    X=              1.2277    Y=              4.3241    Z=              2.3437  Tot=              5.0693
 Quadrupole moment (field-independent basis, Debye-Ang):
   XX=            -82.9560   YY=            -99.7864   ZZ=            -95.3331
   XY=              9.1564   XZ=              7.5337   YZ=             -1.0286

 Normal termination of Gaussian 16 at Thu May  6 12:23:51 2021.
