 Gaussian 16, Revision A.03,
 Gaussian 16:  EM64L-G16RevA.03 25-Dec-2016

 -------------
 #p 6-31g* mp2
 -------------

 ------------------------------------------------------
 Input file generated by CHIRIPA (05-May-2021 14:53:15)
 ------------------------------------------------------
 Symbolic Z-matrix:
 Charge =  0 Multiplicity = 1

                         Standard orientation:
 ---------------------------------------------------------------------
 Center     Atomic      Atomic             Coordinates (Angstroms)
 Number     Number       Type             X           Y           Z
 ---------------------------------------------------------------------
      1          6           0        3.059325    1.446215    0.053076
      2          6           0        1.690642    1.997299   -0.348172
      3          6           0        1.582513    3.510090   -0.154352
      4          1           0        3.254797    1.697501    1.104547
      5          1           0        3.837032    1.949091   -0.538264
      6          1           0        0.915639    1.492545    0.242766
      7          1           0        1.498323    1.744506   -1.398756
      8          1           0        2.334448    4.030339   -0.756462
      9          1           0        1.748453    3.776946    0.894386
     10          1           0        0.596066    3.882876   -0.447288
     11          6           0        3.182872   -0.064775   -0.134995
     12          6           0        4.551554   -0.615859    0.266253
     13          6           0        4.659683   -2.128650    0.072433
     14          1           0        2.405165   -0.567651    0.456345
     15          1           0        2.987400   -0.316061   -1.186466
     16          1           0        4.743873   -0.363066    1.316836
     17          1           0        5.326557   -0.111105   -0.324686
     18          1           0        4.493743   -2.395506   -0.976306
     19          1           0        3.907748   -2.648898    0.674543
     20          1           0        5.646131   -2.501436    0.365369
     21          6           0       -4.696985    0.580820    0.127560
     22          6           0       -4.202183    0.105932   -1.091527
     23          6           0       -2.952018   -0.516515   -1.156293
     24          6           0       -2.220003   -0.647946    0.022761
     25          6           0       -2.685746   -0.185199    1.252492
     26          6           0       -3.938525    0.433997    1.293623
     27          1           0       -5.669157    1.063089    0.168692
     28          1           0       -4.789025    0.218583   -1.998705
     29          1           0       -2.544924   -0.893330   -2.086725
     30          1           0       -2.077699   -0.311968    2.139974
     31          1           0       -4.320276    0.801840    2.241780
     32          7           0       -0.895125   -1.305181   -0.033293
     33          8           0       -0.269684   -1.408752    1.019671
     34          8           0       -0.507215   -1.704308   -1.129131
 ---------------------------------------------------------------------

 SCF Done:  E(RHF) =  -669.536688809     A.U. after   15 cycles
 E2 =    -0.2092345168D+01 EUMP2 =    -0.67162903397694D+03

 The electronic state is 1-A.
 Alpha  occ. eigenvalues --  -20.61035 -20.61030 -15.86035 -11.31330 -11.27887
 Alpha  occ. eigenvalues --  -11.27879 -11.27615 -11.26884 -11.26874 -11.20847
 Alpha  occ. eigenvalues --  -11.20574 -11.20387 -11.20375 -11.19822 -11.19784
 Alpha  occ. eigenvalues --   -1.60069  -1.39630  -1.19489  -1.08901  -1.07311
 Alpha  occ. eigenvalues --   -1.04881  -1.02541  -0.95749  -0.94972  -0.86283
 Alpha  occ. eigenvalues --   -0.85995  -0.82586  -0.78641  -0.77643  -0.77039
 Alpha  occ. eigenvalues --   -0.72260  -0.71368  -0.70599  -0.65148  -0.64885
 Alpha  occ. eigenvalues --   -0.63939  -0.62229  -0.59948  -0.58386  -0.56577
 Alpha  occ. eigenvalues --   -0.55388  -0.54258  -0.53211  -0.52973  -0.51749
 Alpha  occ. eigenvalues --   -0.51392  -0.49130  -0.49016  -0.48829  -0.46948
 Alpha  occ. eigenvalues --   -0.45710  -0.45172  -0.44596  -0.44212  -0.42733
 Alpha  occ. eigenvalues --   -0.37462  -0.36478
 Alpha virt. eigenvalues --    0.04858   0.11164   0.16334   0.21300   0.23908
 Alpha virt. eigenvalues --    0.25258   0.27221   0.27651   0.28054   0.28610
 Alpha virt. eigenvalues --    0.28974   0.30971   0.32212   0.32463   0.32516

 Mulliken charges:
               1
     1  C   -0.296604
     2  C   -0.300343
     3  C   -0.474739
     4  H    0.146254
     5  H    0.144765
     6  H    0.150320
     7  H    0.152315
     8  H    0.154225
     9  H    0.153336
    10  H    0.154859
    11  C   -0.310631
    12  C   -0.298655
    13  C   -0.475260
    14  H    0.177287
    15  H    0.150918
    16  H    0.147801
    17  H    0.145753
    18  H    0.155170
    19  H    0.162241
    20  H    0.153677
    21  C   -0.170428
    22  C   -0.218599
    23  C   -0.170459
    24  C    0.158772
    25  C   -0.171129
    26  C   -0.218456
    27  H    0.226159
    28  H    0.223968
    29  H    0.275928
    30  H    0.275701
    31  H    0.223975
    32  N    0.489764
    33  O   -0.460741
    34  O   -0.457145
 Sum of Mulliken charges =  -0.00000

 Dipole moment (field-independent basis, Debye):
    X=             -4.9644    Y=              2.0866    Z=              0.1933  Tot=              5.3886
 Quadrupole moment (field-independent basis, Debye-Ang):
   XX=            -75.6010   YY=           -100.2091   ZZ=            -88.9719
   XY=             -2.1793   XZ=             -0.1980   YZ=              0.5305

 Normal termination of Gaussian 16 at Wed May  5 23:31:45 2021.
