 Gaussian 16, Revision A.03,
 Gaussian 16:  EM64L-G16RevA.03 25-Dec-2016

 -------------
 #p 6-31g* mp2
 -------------

 ------------------------------------------------------
 Input file generated by CHIRIPA (05-May-2021 14:55:23)
 ------------------------------------------------------
 Symbolic Z-matrix:
 Charge =  0 Multiplicity = 1

                         Standard orientation:
 ---------------------------------------------------------------------
 Center     Atomic      Atomic             Coordinates (Angstroms)
 Number     Number       Type             X           Y           Z
 ---------------------------------------------------------------------
      1          6           0       -3.233881   -2.386537    0.045503
      2          6           0       -4.100138   -1.708670   -0.818566
      3          6           0       -4.139178   -0.311233   -0.832497
      4          6           0       -3.294461    0.379780    0.034823
      5          6           0       -2.420450   -0.266877    0.907308
      6          6           0       -2.398274   -1.664749    0.904168
      7          1           0       -3.210104   -3.472268    0.049694
      8          1           0       -4.750208   -2.266618   -1.486509
      9          1           0       -4.800155    0.238889   -1.491203
     10          1           0       -1.784301    0.316720    1.561637
     11          1           0       -1.724516   -2.188533    1.576288
     12          7           0       -3.326864    1.859414    0.029111
     13          8           0       -2.572644    2.445058    0.802939
     14          8           0       -4.105868    2.405490   -0.749087
     15          6           0        4.889451   -0.205772   -0.393440
     16          6           0        5.942561    0.697190    0.249682
     17          6           0        7.296376    0.622628   -0.457013
     18          1           0        5.251528   -1.242981   -0.386764
     19          1           0        4.769388    0.076597   -1.448545
     20          1           0        6.059602    0.414110    1.303619
     21          1           0        5.577853    1.732341    0.241648
     22          1           0        7.201161    0.925284   -1.504837
     23          1           0        7.685647   -0.400437   -0.436832
     24          1           0        8.034284    1.275841    0.019081
     25          6           0        3.530697   -0.142178    0.301882
     26          6           0        2.477589   -1.045139   -0.341239
     27          6           0        1.123772   -0.970578    0.365456
     28          1           0        3.650762   -0.424547    1.356988
     29          1           0        3.168621    0.895030    0.295206
     30          1           0        2.842297   -2.080291   -0.333205
     31          1           0        2.360546   -0.762060   -1.395176
     32          1           0        0.734501    0.052487    0.345273
     33          1           0        1.218989   -1.273235    1.413279
     34          1           0        0.385865   -1.623790   -0.110638
 ---------------------------------------------------------------------

 SCF Done:  E(RHF) =  -669.534861988     A.U. after   15 cycles
 E2 =    -0.2092195224D+01 EUMP2 =    -0.67162705721135D+03

 The electronic state is 1-A.
 Alpha  occ. eigenvalues --  -20.60752 -20.60746 -15.85803 -11.31145 -11.27712
 Alpha  occ. eigenvalues --  -11.27686 -11.27457 -11.26735 -11.26689 -11.21880
 Alpha  occ. eigenvalues --  -11.21652 -11.21544 -11.21499 -11.21466 -11.21107
 Alpha  occ. eigenvalues --   -1.59827  -1.39381  -1.19323  -1.08726  -1.08587
 Alpha  occ. eigenvalues --   -1.04728  -1.03719  -0.96195  -0.95558  -0.87229
 Alpha  occ. eigenvalues --   -0.86120  -0.82391  -0.79806  -0.78387  -0.77427
 Alpha  occ. eigenvalues --   -0.72022  -0.71150  -0.70432  -0.65219  -0.64973
 Alpha  occ. eigenvalues --   -0.64730  -0.62074  -0.61119  -0.59569  -0.57791
 Alpha  occ. eigenvalues --   -0.55488  -0.55230  -0.53388  -0.52860  -0.52612
 Alpha  occ. eigenvalues --   -0.52510  -0.50124  -0.48779  -0.48778  -0.48110
 Alpha  occ. eigenvalues --   -0.46813  -0.45935  -0.45842  -0.44790  -0.43979
 Alpha  occ. eigenvalues --   -0.37309  -0.36232
 Alpha virt. eigenvalues --    0.05082   0.11247   0.16540   0.20978   0.22756
 Alpha virt. eigenvalues --    0.24107   0.26033   0.26414   0.27452   0.28120
 Alpha virt. eigenvalues --    0.29076   0.29914   0.31307   0.31671   0.32066

 Mulliken charges:
               1
     1  C   -0.173110
     2  C   -0.218382
     3  C   -0.171428
     4  C    0.157101
     5  C   -0.166934
     6  C   -0.217127
     7  H    0.225364
     8  H    0.223166
     9  H    0.275314
    10  H    0.276348
    11  H    0.225670
    12  N    0.488239
    13  O   -0.460996
    14  O   -0.460495
    15  C   -0.298482
    16  C   -0.299981
    17  C   -0.475831
    18  H    0.148690
    19  H    0.150458
    20  H    0.151616
    21  H    0.153794
    22  H    0.155677
    23  H    0.154564
    24  H    0.160886
    25  C   -0.299405
    26  C   -0.299857
    27  C   -0.482383
    28  H    0.148485
    29  H    0.153502
    30  H    0.150389
    31  H    0.154563
    32  H    0.160849
    33  H    0.147996
    34  H    0.161740
 Sum of Mulliken charges =  -0.00000

 Dipole moment (field-independent basis, Debye):
    X=              0.1592    Y=             -5.1723    Z=             -0.0083  Tot=              5.1747
 Quadrupole moment (field-independent basis, Debye-Ang):
   XX=            -94.4123   YY=            -98.8881   ZZ=            -92.4910
   XY=             17.3970   XZ=              3.3235   YZ=             -0.5403

 Normal termination of Gaussian 16 at Wed May  5 16:03:06 2021.
