 Gaussian 16, Revision A.03,
 Gaussian 16:  EM64L-G16RevA.03 25-Dec-2016

 -------------
 #p 6-31g* mp2
 -------------

 ------------------------------------------------------
 Input file generated by CHIRIPA (05-May-2021 14:55:19)
 ------------------------------------------------------
 Symbolic Z-matrix:
 Charge =  0 Multiplicity = 1

                         Standard orientation:
 ---------------------------------------------------------------------
 Center     Atomic      Atomic             Coordinates (Angstroms)
 Number     Number       Type             X           Y           Z
 ---------------------------------------------------------------------
      1          6           0        1.325497    1.108604    2.078383
      2          6           0        1.844769   -0.165705    2.329406
      3          6           0        2.503427   -0.875326    1.320864
      4          6           0        2.625414   -0.277803    0.067319
      5          6           0        2.118819    0.990126   -0.213764
      6          6           0        1.463935    1.681443    0.809836
      7          1           0        0.815302    1.652745    2.867691
      8          1           0        1.738731   -0.613057    3.313620
      9          1           0        2.914932   -1.863351    1.487859
     10          1           0        2.240059    1.409960   -1.204954
     11          1           0        1.061657    2.670931    0.612023
     12          7           0        3.320708   -1.019357   -1.008350
     13          8           0        3.415063   -0.470896   -2.104217
     14          8           0        3.758160   -2.135008   -0.735224
     15          6           0       -2.870351    0.674436   -0.802522
     16          6           0       -2.109623    1.808118   -0.114015
     17          6           0       -1.427804    2.750568   -1.106337
     18          1           0       -2.174347    0.104282   -1.432956
     19          1           0       -3.623080    1.104425   -1.477727
     20          1           0       -1.359487    1.376112    0.560730
     21          1           0       -2.807482    2.375522    0.515003
     22          1           0       -2.166271    3.208693   -1.772212
     23          1           0       -0.710049    2.203604   -1.726225
     24          1           0       -0.889848    3.553484   -0.592731
     25          6           0       -3.557352   -0.276137    0.176340
     26          6           0       -4.318080   -1.409819   -0.512166
     27          6           0       -4.999899   -2.352270    0.480157
     28          1           0       -2.804622   -0.706128    0.851546
     29          1           0       -4.253357    0.294016    0.806774
     30          1           0       -3.620223   -1.977223   -1.141184
     31          1           0       -5.068217   -0.977813   -1.186912
     32          1           0       -5.717654   -1.805307    1.100043
     33          1           0       -4.261432   -2.810394    1.146031
     34          1           0       -5.537855   -3.155186   -0.033449
 ---------------------------------------------------------------------

 SCF Done:  E(RHF) =  -669.534405722     A.U. after   15 cycles
 E2 =    -0.2093684067D+01 EUMP2 =    -0.67162808978863D+03

 The electronic state is 1-A.
 Alpha  occ. eigenvalues --  -20.60816 -20.60811 -15.85868 -11.31252 -11.27799
 Alpha  occ. eigenvalues --  -11.27780 -11.27530 -11.26838 -11.26770 -11.22087
 Alpha  occ. eigenvalues --  -11.21856 -11.21820 -11.21750 -11.21679 -11.21277
 Alpha  occ. eigenvalues --   -1.59891  -1.39444  -1.19421  -1.08859  -1.08761
 Alpha  occ. eigenvalues --   -1.04833  -1.03942  -0.96425  -0.95644  -0.87443
 Alpha  occ. eigenvalues --   -0.86217  -0.82469  -0.80020  -0.78599  -0.77520
 Alpha  occ. eigenvalues --   -0.72086  -0.71215  -0.70516  -0.65479  -0.65066
 Alpha  occ. eigenvalues --   -0.64828  -0.62260  -0.61292  -0.59796  -0.58024
 Alpha  occ. eigenvalues --   -0.55725  -0.55294  -0.53247  -0.53160  -0.52936
 Alpha  occ. eigenvalues --   -0.52633  -0.50345  -0.48845  -0.48840  -0.48334
 Alpha  occ. eigenvalues --   -0.47033  -0.46147  -0.46048  -0.44845  -0.44199
 Alpha  occ. eigenvalues --   -0.37354  -0.36368
 Alpha virt. eigenvalues --    0.04973   0.11159   0.16406   0.20319   0.22770
 Alpha virt. eigenvalues --    0.24026   0.26108   0.26166   0.26668   0.28017
 Alpha virt. eigenvalues --    0.29201   0.29504   0.31214   0.31520   0.32113

 Mulliken charges:
               1
     1  C   -0.173293
     2  C   -0.218459
     3  C   -0.171620
     4  C    0.158675
     5  C   -0.174514
     6  C   -0.215939
     7  H    0.226787
     8  H    0.223791
     9  H    0.275695
    10  H    0.276132
    11  H    0.230151
    12  N    0.488026
    13  O   -0.460193
    14  O   -0.460255
    15  C   -0.298120
    16  C   -0.306835
    17  C   -0.479742
    18  H    0.153427
    19  H    0.150567
    20  H    0.156220
    21  H    0.150267
    22  H    0.161215
    23  H    0.157383
    24  H    0.149700
    25  C   -0.298612
    26  C   -0.300313
    27  C   -0.475833
    28  H    0.148994
    29  H    0.148487
    30  H    0.154557
    31  H    0.152625
    32  H    0.154503
    33  H    0.154692
    34  H    0.161833
 Sum of Mulliken charges =  -0.00000

 Dipole moment (field-independent basis, Debye):
    X=             -2.4763    Y=              2.5416    Z=              3.7570  Tot=              5.1679
 Quadrupole moment (field-independent basis, Debye-Ang):
   XX=           -107.8053   YY=            -94.0738   ZZ=            -92.9192
   XY=              6.1437   XZ=             10.9758   YZ=             -3.1797

 Normal termination of Gaussian 16 at Thu May  6 14:02:57 2021.
