 Gaussian 16, Revision A.03,
 Gaussian 16:  EM64L-G16RevA.03 25-Dec-2016

 -------------
 #p 6-31g* mp2
 -------------

 ------------------------------------------------------
 Input file generated by CHIRIPA (05-May-2021 14:55:24)
 ------------------------------------------------------
 Symbolic Z-matrix:
 Charge =  0 Multiplicity = 1

                         Standard orientation:
 ---------------------------------------------------------------------
 Center     Atomic      Atomic             Coordinates (Angstroms)
 Number     Number       Type             X           Y           Z
 ---------------------------------------------------------------------
      1          6           0       -4.548813    0.101409   -1.448318
      2          6           0       -4.617228    0.550966   -0.125541
      3          6           0       -3.592574    0.255713    0.778593
      4          6           0       -2.509299   -0.494749    0.324045
      5          6           0       -2.412244   -0.956934   -0.987540
      6          6           0       -3.448479   -0.649782   -1.874345
      7          1           0       -5.349287    0.335391   -2.143940
      8          1           0       -5.470558    1.134539    0.208100
      9          1           0       -3.620045    0.591144    1.808228
     10          1           0       -1.548919   -1.536689   -1.290808
     11          1           0       -3.392675   -1.000235   -2.901045
     12          7           0       -1.418414   -0.813619    1.272038
     13          8           0       -0.474756   -1.476447    0.846825
     14          8           0       -1.527692   -0.394683    2.422337
     15          6           0        3.713421   -0.098611   -0.475675
     16          6           0        5.134395   -0.402149    0.000436
     17          6           0        5.663429   -1.735106   -0.529794
     18          1           0        3.045912   -0.911707   -0.159051
     19          1           0        3.696284   -0.090036   -1.574323
     20          1           0        5.149136   -0.408782    1.097867
     21          1           0        5.798563    0.411858   -0.317192
     22          1           0        5.677572   -1.735922   -1.624509
     23          1           0        5.024453   -2.561224   -0.201409
     24          1           0        6.680646   -1.932139   -0.177219
     25          6           0        3.170651    1.230630    0.046097
     26          6           0        1.749677    1.534169   -0.430014
     27          6           0        1.220643    2.867125    0.100216
     28          1           0        3.187788    1.222055    1.144745
     29          1           0        3.838160    2.043727   -0.270526
     30          1           0        1.085508    0.720161   -0.112385
     31          1           0        1.734936    1.540801   -1.527446
     32          1           0        1.859619    3.693244   -0.228169
     33          1           0        1.206501    2.867941    1.194930
     34          1           0        0.203427    3.064158   -0.252359
 ---------------------------------------------------------------------

 SCF Done:  E(RHF) =  -669.536538894     A.U. after   15 cycles
 E2 =    -0.2091549209D+01 EUMP2 =    -0.67162808810354D+03

 The electronic state is 1-A.
 Alpha  occ. eigenvalues --  -20.61008 -20.61003 -15.86017 -11.31295 -11.27854
 Alpha  occ. eigenvalues --  -11.27849 -11.27588 -11.26854 -11.26844 -11.20896
 Alpha  occ. eigenvalues --  -11.20797 -11.20591 -11.20513 -11.20485 -11.20458
 Alpha  occ. eigenvalues --   -1.60058  -1.39616  -1.19461  -1.08875  -1.07651
 Alpha  occ. eigenvalues --   -1.04850  -1.02831  -0.95724  -0.95292  -0.86312
 Alpha  occ. eigenvalues --   -0.86253  -0.82560  -0.78894  -0.77627  -0.77453
 Alpha  occ. eigenvalues --   -0.72246  -0.71369  -0.70571  -0.65119  -0.64855
 Alpha  occ. eigenvalues --   -0.64257  -0.62198  -0.60216  -0.58673  -0.56912
 Alpha  occ. eigenvalues --   -0.55360  -0.54566  -0.53183  -0.52943  -0.52022
 Alpha  occ. eigenvalues --   -0.51726  -0.49227  -0.49016  -0.49000  -0.47237
 Alpha  occ. eigenvalues --   -0.45992  -0.45256  -0.44991  -0.44542  -0.43066
 Alpha  occ. eigenvalues --   -0.37437  -0.36448
 Alpha virt. eigenvalues --    0.04884   0.11195   0.16347   0.21316   0.23652
 Alpha virt. eigenvalues --    0.24893   0.27167   0.27391   0.27921   0.28485
 Alpha virt. eigenvalues --    0.28760   0.30858   0.31999   0.32257   0.32441

 Mulliken charges:
               1
     1  C   -0.170450
     2  C   -0.218670
     3  C   -0.170634
     4  C    0.158255
     5  C   -0.170600
     6  C   -0.218633
     7  H    0.226045
     8  H    0.223863
     9  H    0.275840
    10  H    0.276245
    11  H    0.223960
    12  N    0.487952
    13  O   -0.459433
    14  O   -0.457891
    15  C   -0.301753
    16  C   -0.299215
    17  C   -0.475679
    18  H    0.162624
    19  H    0.143910
    20  H    0.153632
    21  H    0.148734
    22  H    0.152348
    23  H    0.157540
    24  H    0.158066
    25  C   -0.296474
    26  C   -0.307894
    27  C   -0.476265
    28  H    0.153606
    29  H    0.145010
    30  H    0.165261
    31  H    0.144803
    32  H    0.152238
    33  H    0.159675
    34  H    0.153984
 Sum of Mulliken charges =  -0.00000

 Dipole moment (field-independent basis, Debye):
    X=             -4.0458    Y=              0.9782    Z=             -3.2036  Tot=              5.2525
 Quadrupole moment (field-independent basis, Debye-Ang):
   XX=            -75.4334   YY=            -96.3550   ZZ=            -94.0432
   XY=             -1.9429   XZ=              5.5619   YZ=              3.5800

 Normal termination of Gaussian 16 at Thu May  6 00:00:09 2021.
