 Gaussian 16, Revision A.03,
 Gaussian 16:  EM64L-G16RevA.03 25-Dec-2016

 -------------
 #p 6-31g* mp2
 -------------

 ------------------------------------------------------
 Input file generated by CHIRIPA (05-May-2021 14:57:25)
 ------------------------------------------------------
 Symbolic Z-matrix:
 Charge =  0 Multiplicity = 1

                         Standard orientation:
 ---------------------------------------------------------------------
 Center     Atomic      Atomic             Coordinates (Angstroms)
 Number     Number       Type             X           Y           Z
 ---------------------------------------------------------------------
      1          6           0       -6.179796    1.145549    0.179090
      2          6           0       -5.098278    1.698908   -0.514187
      3          6           0       -3.876107    1.023194   -0.579449
      4          6           0       -3.770064   -0.209438    0.062940
      5          6           0       -4.829261   -0.786857    0.761494
      6          6           0       -6.042078   -0.093383    0.813599
      7          1           0       -7.125574    1.677358    0.224677
      8          1           0       -5.202348    2.660917   -1.007900
      9          1           0       -3.022644    1.428561   -1.109256
     10          1           0       -4.695143   -1.747539    1.243699
     11          1           0       -6.880303   -0.525543    1.352731
     12          7           0       -2.481157   -0.934186    0.000814
     13          8           0       -2.413377   -2.018699    0.575162
     14          8           0       -1.563098   -0.404009   -0.621052
     15          6           0        6.297881    0.640337    0.764682
     16          6           0        5.313463    1.633244    0.724954
     17          6           0        4.027151    1.339657    0.262617
     18          6           0        3.758648    0.036785   -0.154180
     19          6           0        4.718007   -0.974236   -0.126656
     20          6           0        5.997540   -0.657944    0.339500
     21          1           0        7.294486    0.877221    1.125320
     22          1           0        5.543869    2.642373    1.054524
     23          1           0        3.246129    2.089129    0.221220
     24          1           0        4.458374   -1.971063   -0.461837
     25          1           0        6.760069   -1.431063    0.369238
     26          7           0        2.400474   -0.286040   -0.645657
     27          8           0        2.189210   -1.441575   -1.007242
     28          8           0        1.572919    0.622577   -0.659985
 ---------------------------------------------------------------------

 SCF Done:  E(RHF) =  -868.334333686     A.U. after   16 cycles
 E2 =    -0.2600668636D+01 EUMP2 =    -0.87093500232181D+03

 The electronic state is 1-A.
 Alpha  occ. eigenvalues --  -20.59516 -20.59510 -20.59460 -20.59326 -15.84600
 Alpha  occ. eigenvalues --  -15.84450 -11.30396 -11.30267 -11.27030 -11.27002
 Alpha  occ. eigenvalues --  -11.26915 -11.26862 -11.26842 -11.26738 -11.26140
 Alpha  occ. eigenvalues --  -11.26117 -11.26026 -11.26002  -1.58571  -1.58478
 Alpha  occ. eigenvalues --   -1.38127  -1.38013  -1.18608  -1.18490  -1.07920
 Alpha  occ. eigenvalues --   -1.07805  -1.04077  -1.03957  -0.94688  -0.94548
 Alpha  occ. eigenvalues --   -0.85456  -0.85335  -0.81529  -0.81373  -0.76492
 Alpha  occ. eigenvalues --   -0.76355  -0.70880  -0.70555  -0.69939  -0.69828
 Alpha  occ. eigenvalues --   -0.69717  -0.69595  -0.64254  -0.64132  -0.64077
 Alpha  occ. eigenvalues --   -0.63967  -0.61423  -0.61296  -0.54566  -0.54455
 Alpha  occ. eigenvalues --   -0.52382  -0.52269  -0.52178  -0.52055  -0.47756
 Alpha  occ. eigenvalues --   -0.47523  -0.47412  -0.47178  -0.43495  -0.43264
 Alpha  occ. eigenvalues --   -0.36614  -0.36504  -0.35701  -0.35583
 Alpha virt. eigenvalues --    0.06031   0.06203   0.11946   0.12064   0.17451
 Alpha virt. eigenvalues --    0.17609   0.22018   0.22141   0.27896   0.28021
 Alpha virt. eigenvalues --    0.28944   0.29088   0.31533   0.31658   0.33201

 Mulliken charges:
               1
     1  C   -0.172372
     2  C   -0.218866
     3  C   -0.171929
     4  C    0.158783
     5  C   -0.172019
     6  C   -0.218709
     7  H    0.222119
     8  H    0.220723
     9  H    0.279368
    10  H    0.274079
    11  H    0.220232
    12  N    0.485655
    13  O   -0.466913
    14  O   -0.440749
    15  C   -0.172292
    16  C   -0.218469
    17  C   -0.171772
    18  C    0.159794
    19  C   -0.171359
    20  C   -0.218474
    21  H    0.222631
    22  H    0.220314
    23  H    0.273672
    24  H    0.276031
    25  H    0.221264
    26  N    0.487389
    27  O   -0.454272
    28  O   -0.453862
 Sum of Mulliken charges =  -0.00000

 Dipole moment (field-independent basis, Debye):
    X=              0.3365    Y=              3.6327    Z=              1.7846  Tot=              4.0614
 Quadrupole moment (field-independent basis, Debye-Ang):
   XX=            -38.1662   YY=            -99.3176   ZZ=           -105.2396
   XY=             -4.4660   XZ=              3.3254   YZ=             -1.4119

 Normal termination of Gaussian 16 at Wed May  5 17:56:40 2021.
