 Gaussian 16, Revision A.03,
 Gaussian 16:  EM64L-G16RevA.03 25-Dec-2016

 -------------
 #p 6-31g* mp2
 -------------

 ------------------------------------------------------
 Input file generated by CHIRIPA (05-May-2021 14:51:11)
 ------------------------------------------------------
 Symbolic Z-matrix:
 Charge =  0 Multiplicity = 1

                         Standard orientation:
 ---------------------------------------------------------------------
 Center     Atomic      Atomic             Coordinates (Angstroms)
 Number     Number       Type             X           Y           Z
 ---------------------------------------------------------------------
      1          6           0       -3.867352   -0.468519   -0.481425
      2          6           0       -3.385154   -1.771644    0.156802
      3          6           0       -4.018204   -3.010330   -0.477783
      4          1           0       -4.960910   -0.408153   -0.395226
      5          1           0       -3.639144   -0.488326   -1.556099
      6          1           0       -3.612960   -1.748799    1.230207
      7          1           0       -2.292597   -1.828824    0.069243
      8          1           0       -3.780139   -3.060671   -1.545206
      9          1           0       -5.108004   -2.980191   -0.377646
     10          1           0       -3.659527   -3.930672   -0.006421
     11          6           0       -3.243391    0.778657    0.142237
     12          6           0       -3.725589    2.081783   -0.495990
     13          6           0       -3.092539    3.320469    0.138594
     14          1           0       -3.471599    0.798464    1.216910
     15          1           0       -2.149832    0.718292    0.056037
     16          1           0       -4.818145    2.138962   -0.408431
     17          1           0       -3.497782    2.058937   -1.569395
     18          1           0       -2.002738    3.290330    0.038457
     19          1           0       -3.330603    3.370809    1.206018
     20          1           0       -3.451216    4.240810   -0.332768
     21          6           0        2.964827   -0.612307    0.329664
     22          6           0        1.697243    0.148530    0.719975
     23          6           0        0.524586   -0.779904    1.037278
     24          1           0        2.750768   -1.245985   -0.541873
     25          1           0        3.243806   -1.290317    1.148118
     26          1           0        1.421520    0.825913   -0.098405
     27          1           0        1.914394    0.780616    1.590566
     28          1           0        0.775292   -1.446918    1.868447
     29          1           0        0.279617   -1.401362    0.169879
     30          1           0       -0.371188   -0.215133    1.313830
     31          6           0        4.145916    0.302169    0.009525
     32          6           0        5.413500   -0.458669   -0.380786
     33          6           0        6.586156    0.469766   -0.698090
     34          1           0        3.866937    0.980179   -0.808930
     35          1           0        4.359974    0.935847    0.881062
     36          1           0        5.196349   -1.090754   -1.251377
     37          1           0        5.689224   -1.136052    0.437593
     38          1           0        6.831126    1.091224    0.169310
     39          1           0        6.335451    1.136779   -1.529258
     40          1           0        7.481931   -0.095005   -0.974642
 ---------------------------------------------------------------------

 SCF Done:  E(RHF) =  -470.732674766     A.U. after   11 cycles
 E2 =    -0.1583396335D+01 EUMP2 =    -0.47231607110040D+03

 The electronic state is 1-A.
 Alpha  occ. eigenvalues --  -11.21637 -11.21618 -11.21583 -11.21483 -11.21429
 Alpha  occ. eigenvalues --  -11.21370 -11.21357 -11.21298 -11.21084 -11.21066
 Alpha  occ. eigenvalues --  -11.21059 -11.21011  -1.08461  -1.08385  -1.03557
 Alpha  occ. eigenvalues --   -1.03483  -0.96015  -0.95935  -0.87029  -0.86958
 Alpha  occ. eigenvalues --   -0.79656  -0.79528  -0.78284  -0.78186  -0.65131
 Alpha  occ. eigenvalues --   -0.64995  -0.60983  -0.60861  -0.59396  -0.59306
 Alpha  occ. eigenvalues --   -0.57712  -0.57465  -0.55304  -0.55229  -0.52807
 Alpha  occ. eigenvalues --   -0.52565  -0.52501  -0.52290  -0.49986  -0.49868
 Alpha  occ. eigenvalues --   -0.48015  -0.47793  -0.46743  -0.46503  -0.45827
 Alpha  occ. eigenvalues --   -0.45755  -0.45719  -0.45593  -0.43778  -0.43668
 Alpha virt. eigenvalues --    0.21567   0.23128   0.23954   0.24141   0.26141
 Alpha virt. eigenvalues --    0.26687   0.26902   0.27301   0.27912   0.29532
 Alpha virt. eigenvalues --    0.29954   0.31429   0.31614   0.31832   0.32223

 Mulliken charges:
               1
     1  C   -0.297451
     2  C   -0.306306
     3  C   -0.475474
     4  H    0.149306
     5  H    0.148772
     6  H    0.151248
     7  H    0.160632
     8  H    0.154536
     9  H    0.154808
    10  H    0.160109
    11  C   -0.304791
    12  C   -0.299032
    13  C   -0.475827
    14  H    0.148729
    15  H    0.156652
    16  H    0.151924
    17  H    0.151657
    18  H    0.154977
    19  H    0.155096
    20  H    0.160270
    21  C   -0.298389
    22  C   -0.300597
    23  C   -0.482389
    24  H    0.149567
    25  H    0.149799
    26  H    0.151222
    27  H    0.152346
    28  H    0.155595
    29  H    0.154859
    30  H    0.167966
    31  C   -0.298278
    32  C   -0.299665
    33  C   -0.475719
    34  H    0.149435
    35  H    0.149778
    36  H    0.151914
    37  H    0.151992
    38  H    0.155238
    39  H    0.155180
    40  H    0.160310
 Sum of Mulliken charges =  -0.00000

 Dipole moment (field-independent basis, Debye):
    X=              0.0325    Y=             -0.0010    Z=              0.0197  Tot=              0.0380
 Quadrupole moment (field-independent basis, Debye-Ang):
   XX=            -85.3357   YY=            -86.1343   ZZ=            -83.5280
   XY=             -0.9488   XZ=             -0.1412   YZ=             -0.2174

 Normal termination of Gaussian 16 at Wed May  5 18:16:50 2021.
