 Gaussian 16, Revision A.03,
 Gaussian 16:  EM64L-G16RevA.03 25-Dec-2016

 -------------
 #p 6-31g* mp2
 -------------

 ------------------------------------------------------
 Input file generated by CHIRIPA (05-May-2021 14:55:21)
 ------------------------------------------------------
 Symbolic Z-matrix:
 Charge =  0 Multiplicity = 1

                         Standard orientation:
 ---------------------------------------------------------------------
 Center     Atomic      Atomic             Coordinates (Angstroms)
 Number     Number       Type             X           Y           Z
 ---------------------------------------------------------------------
      1          6           0        0.446305   -0.656838    0.004634
      2          6           0        0.936970    0.558634   -0.483627
      3          6           0        2.311348    0.814292   -0.500069
      4          6           0        3.170445   -0.172260   -0.018447
      5          6           0        2.712267   -1.393132    0.474335
      6          6           0        1.333954   -1.627130    0.481216
      7          1           0       -0.622874   -0.847026    0.013693
      8          1           0        0.249948    1.314010   -0.854375
      9          1           0        2.718279    1.746562   -0.872490
     10          1           0        3.421771   -2.126807    0.837297
     11          1           0        0.955735   -2.571994    0.860990
     12          7           0        4.627521    0.086929   -0.030793
     13          8           0        5.363577   -0.798536    0.399104
     14          8           0        5.005930    1.170637   -0.470132
     15          6           0       -3.424321    0.909044   -0.252959
     16          6           0       -3.444859    2.076825    0.733879
     17          6           0       -2.788108    3.337785    0.171337
     18          1           0       -2.384123    0.689885   -0.530276
     19          1           0       -3.937401    1.209802   -1.176911
     20          1           0       -2.933103    1.773488    1.656218
     21          1           0       -4.485115    2.293104    1.009027
     22          1           0       -3.302484    3.667529   -0.737116
     23          1           0       -1.741653    3.144961   -0.086248
     24          1           0       -2.813843    4.160032    0.893215
     25          6           0       -4.077251   -0.358702    0.294976
     26          6           0       -4.056713   -1.526483   -0.691863
     27          6           0       -4.713464   -2.787443   -0.129321
     28          1           0       -3.564170   -0.659460    1.218927
     29          1           0       -5.117449   -0.139543    0.572292
     30          1           0       -3.016457   -1.742762   -0.967011
     31          1           0       -4.568469   -1.223147   -1.614201
     32          1           0       -5.759919   -2.594619    0.128264
     33          1           0       -4.199088   -3.117186    0.779132
     34          1           0       -4.687729   -3.609690   -0.851198
 ---------------------------------------------------------------------

 SCF Done:  E(RHF) =  -669.535051071     A.U. after   15 cycles
 E2 =    -0.2092532971D+01 EUMP2 =    -0.67162758404228D+03

 The electronic state is 1-A.
 Alpha  occ. eigenvalues --  -20.60744 -20.60739 -15.85798 -11.31165 -11.27737
 Alpha  occ. eigenvalues --  -11.27734 -11.27452 -11.26750 -11.26738 -11.22744
 Alpha  occ. eigenvalues --  -11.22681 -11.22607 -11.22523 -11.22068 -11.22007
 Alpha  occ. eigenvalues --   -1.59820  -1.39373  -1.19338  -1.09596  -1.08731
 Alpha  occ. eigenvalues --   -1.04745  -1.04589  -0.97040  -0.95570  -0.88048
 Alpha  occ. eigenvalues --   -0.86145  -0.82404  -0.80650  -0.79419  -0.77447
 Alpha  occ. eigenvalues --   -0.72016  -0.71143  -0.70504  -0.66268  -0.64988
 Alpha  occ. eigenvalues --   -0.64722  -0.62169  -0.61917  -0.60391  -0.58645
 Alpha  occ. eigenvalues --   -0.56397  -0.55199  -0.53680  -0.53451  -0.53069
 Alpha  occ. eigenvalues --   -0.52840  -0.50994  -0.48963  -0.48771  -0.48769
 Alpha  occ. eigenvalues --   -0.47699  -0.46932  -0.46856  -0.44868  -0.44778
 Alpha  occ. eigenvalues --   -0.37316  -0.36347
 Alpha virt. eigenvalues --    0.05082   0.11275   0.16539   0.17938   0.21366
 Alpha virt. eigenvalues --    0.23403   0.25064   0.25561   0.26224   0.27929
 Alpha virt. eigenvalues --    0.29379   0.30650   0.30854   0.31310   0.32256

 Mulliken charges:
               1
     1  C   -0.178754
     2  C   -0.225233
     3  C   -0.170980
     4  C    0.158363
     5  C   -0.170580
     6  C   -0.219751
     7  H    0.235376
     8  H    0.228253
     9  H    0.275812
    10  H    0.275509
    11  H    0.223482
    12  N    0.487992
    13  O   -0.460478
    14  O   -0.460395
    15  C   -0.302690
    16  C   -0.300716
    17  C   -0.477231
    18  H    0.139407
    19  H    0.155126
    20  H    0.153911
    21  H    0.156770
    22  H    0.158187
    23  H    0.149300
    24  H    0.166066
    25  C   -0.300898
    26  C   -0.302361
    27  C   -0.476012
    28  H    0.148062
    29  H    0.155885
    30  H    0.145003
    31  H    0.156918
    32  H    0.158976
    33  H    0.154190
    34  H    0.163490
 Sum of Mulliken charges =  -0.00000

 Dipole moment (field-independent basis, Debye):
    X=             -5.4395    Y=             -0.8613    Z=              0.0765  Tot=              5.5077
 Quadrupole moment (field-independent basis, Debye-Ang):
   XX=           -125.7057   YY=            -90.8980   ZZ=            -94.5998
   XY=             -3.7304   XZ=              1.0275   YZ=             -1.8443

 Normal termination of Gaussian 16 at Wed May  5 23:48:51 2021.
