 Gaussian 16, Revision A.03,
 Gaussian 16:  EM64L-G16RevA.03 25-Dec-2016

 -------------
 #p 6-31g* mp2
 -------------

 ------------------------------------------------------
 Input file generated by CHIRIPA (05-May-2021 14:51:07)
 ------------------------------------------------------
 Symbolic Z-matrix:
 Charge =  0 Multiplicity = 1

                         Standard orientation:
 ---------------------------------------------------------------------
 Center     Atomic      Atomic             Coordinates (Angstroms)
 Number     Number       Type             X           Y           Z
 ---------------------------------------------------------------------
      1          6           0       -3.377457   -0.163805    0.865136
      2          6           0       -1.949346    0.290499    0.561666
      3          6           0       -1.052689    0.288763    1.800131
      4          1           0       -3.808995    0.492863    1.632929
      5          1           0       -3.349513   -1.173677    1.297308
      6          1           0       -1.980075    1.298665    0.128913
      7          1           0       -1.521225   -0.367209   -0.205633
      8          1           0       -0.992287   -0.716052    2.230595
      9          1           0       -1.453744    0.959287    2.567043
     10          1           0       -0.036425    0.616817    1.560450
     11          6           0       -4.285929   -0.167391   -0.363030
     12          6           0       -5.714039   -0.621695   -0.059560
     13          6           0       -6.610697   -0.619958   -1.298025
     14          1           0       -4.313873    0.842481   -0.795202
     15          1           0       -3.854391   -0.824059   -1.130824
     16          1           0       -6.142161    0.036014    0.707739
     17          1           0       -5.683311   -1.629860    0.373192
     18          1           0       -6.209642   -1.290482   -2.064937
     19          1           0       -6.671099    0.384857   -1.728490
     20          1           0       -7.626961   -0.948013   -1.058344
     21          6           0        4.064826   -0.442724    0.147727
     22          6           0        4.759172   -1.500643   -0.710572
     23          6           0        5.219828   -2.711514    0.101452
     24          1           0        4.751001   -0.114795    0.940552
     25          1           0        3.200679   -0.898203    0.650901
     26          1           0        5.620941   -1.042958   -1.213060
     27          1           0        4.071332   -1.825952   -1.501562
     28          1           0        4.367532   -3.194235    0.590505
     29          1           0        5.925944   -2.406790    0.880645
     30          1           0        5.713525   -3.455267   -0.531758
     31          6           0        3.598560    0.773920   -0.649833
     32          6           0        2.904214    1.831838    0.208466
     33          6           0        2.443558    3.042709   -0.603557
     34          1           0        4.462707    1.229397   -1.153008
     35          1           0        2.912386    0.445991   -1.442658
     36          1           0        3.592054    2.157148    0.999456
     37          1           0        2.042445    1.374153    0.710955
     38          1           0        1.737441    2.737986   -1.382751
     39          1           0        3.295854    3.525429   -1.092611
     40          1           0        1.949861    3.786463    0.029652
 ---------------------------------------------------------------------

 SCF Done:  E(RHF) =  -470.733374244     A.U. after   11 cycles
 E2 =    -0.1582528329D+01 EUMP2 =    -0.47231590257275D+03

 The electronic state is 1-A.
 Alpha  occ. eigenvalues --  -11.21639 -11.21618 -11.21604 -11.21600 -11.21429
 Alpha  occ. eigenvalues --  -11.21403 -11.21369 -11.21344 -11.21102 -11.21084
 Alpha  occ. eigenvalues --  -11.21073 -11.21068  -1.08457  -1.08430  -1.03564
 Alpha  occ. eigenvalues --   -1.03524  -0.96010  -0.95974  -0.87032  -0.86986
 Alpha  occ. eigenvalues --   -0.79644  -0.79572  -0.78267  -0.78244  -0.65084
 Alpha  occ. eigenvalues --   -0.65072  -0.60968  -0.60949  -0.59445  -0.59275
 Alpha  occ. eigenvalues --   -0.57658  -0.57547  -0.55293  -0.55259  -0.52749
 Alpha  occ. eigenvalues --   -0.52656  -0.52449  -0.52384  -0.49944  -0.49915
 Alpha  occ. eigenvalues --   -0.48020  -0.47844  -0.46651  -0.46613  -0.45816
 Alpha  occ. eigenvalues --   -0.45780  -0.45733  -0.45700  -0.43806  -0.43750
 Alpha virt. eigenvalues --    0.21097   0.23068   0.23692   0.24898   0.26018
 Alpha virt. eigenvalues --    0.26626   0.27073   0.27522   0.28002   0.28775
 Alpha virt. eigenvalues --    0.30378   0.31383   0.31623   0.31855   0.32059

 Mulliken charges:
               1
     1  C   -0.298458
     2  C   -0.298931
     3  C   -0.484698
     4  H    0.149834
     5  H    0.149554
     6  H    0.152319
     7  H    0.151333
     8  H    0.155266
     9  H    0.155781
    10  H    0.167719
    11  C   -0.298274
    12  C   -0.299676
    13  C   -0.475724
    14  H    0.149636
    15  H    0.149555
    16  H    0.152014
    17  H    0.151943
    18  H    0.155166
    19  H    0.155237
    20  H    0.160318
    21  C   -0.298633
    22  C   -0.299647
    23  C   -0.475714
    24  H    0.149743
    25  H    0.149698
    26  H    0.151950
    27  H    0.151868
    28  H    0.155220
    29  H    0.155224
    30  H    0.160203
    31  C   -0.297593
    32  C   -0.309390
    33  C   -0.475291
    34  H    0.149615
    35  H    0.149616
    36  H    0.152303
    37  H    0.160041
    38  H    0.155354
    39  H    0.155292
    40  H    0.160225
 Sum of Mulliken charges =  -0.00000

 Dipole moment (field-independent basis, Debye):
    X=             -0.0047    Y=              0.0065    Z=              0.0025  Tot=              0.0084
 Quadrupole moment (field-independent basis, Debye-Ang):
   XX=            -84.6126   YY=            -84.5122   ZZ=            -85.5762
   XY=              0.4766   XZ=             -0.6904   YZ=              0.6602

 Normal termination of Gaussian 16 at Wed May  5 19:39:57 2021.
