 Gaussian 16, Revision A.03,
 Gaussian 16:  EM64L-G16RevA.03 25-Dec-2016

 -------------
 #p 6-31g* mp2
 -------------

 ------------------------------------------------------
 Input file generated by CHIRIPA (05-May-2021 14:55:21)
 ------------------------------------------------------
 Symbolic Z-matrix:
 Charge =  0 Multiplicity = 1

                         Standard orientation:
 ---------------------------------------------------------------------
 Center     Atomic      Atomic             Coordinates (Angstroms)
 Number     Number       Type             X           Y           Z
 ---------------------------------------------------------------------
      1          6           0        4.125245    1.439274    0.730677
      2          6           0        4.646395    0.205354    0.327732
      3          6           0        3.794687   -0.828418   -0.072836
      4          6           0        2.420818   -0.592708   -0.058161
      5          6           0        1.871136    0.625580    0.337962
      6          6           0        2.741718    1.645086    0.734499
      7          1           0        4.794204    2.236792    1.040282
      8          1           0        5.720438    0.042682    0.323758
      9          1           0        4.171277   -1.793470   -0.389496
     10          1           0        0.796019    0.757864    0.331332
     11          1           0        2.334170    2.602339    1.046938
     12          7           0        1.509162   -1.679565   -0.480091
     13          8           0        0.302545   -1.446681   -0.458221
     14          8           0        2.018485   -2.743748   -0.824681
     15          6           0       -2.801906    0.926984   -0.446028
     16          6           0       -2.741365    2.411126   -0.083202
     17          6           0       -1.758589    3.193234   -0.955126
     18          1           0       -1.797856    0.491439   -0.350482
     19          1           0       -3.087078    0.826260   -1.502402
     20          1           0       -2.457739    2.508985    0.972543
     21          1           0       -3.745712    2.843146   -0.179438
     22          1           0       -2.041570    3.125318   -2.010545
     23          1           0       -0.746278    2.789257   -0.852019
     24          1           0       -1.731195    4.251858   -0.678673
     25          6           0       -3.780034    0.131782    0.416900
     26          6           0       -3.840573   -1.352360    0.054074
     27          6           0       -4.823351   -2.134468    0.925998
     28          1           0       -3.494861    0.232505    1.473274
     29          1           0       -4.784083    0.567329    0.321354
     30          1           0       -2.836226   -1.784379    0.150310
     31          1           0       -4.124200   -1.450218   -1.001670
     32          1           0       -5.835660   -1.730490    0.822891
     33          1           0       -4.540369   -2.066551    1.981417
     34          1           0       -4.850744   -3.193091    0.649546
 ---------------------------------------------------------------------

 SCF Done:  E(RHF) =  -669.536058787     A.U. after   15 cycles
 E2 =    -0.2092478688D+01 EUMP2 =    -0.67162853747448D+03

 The electronic state is 1-A.
 Alpha  occ. eigenvalues --  -20.60973 -20.60967 -15.86008 -11.31308 -11.27870
 Alpha  occ. eigenvalues --  -11.27864 -11.27596 -11.26872 -11.26861 -11.21470
 Alpha  occ. eigenvalues --  -11.21239 -11.20789 -11.20723 -11.20576 -11.20297
 Alpha  occ. eigenvalues --   -1.60034  -1.39591  -1.19474  -1.08880  -1.07891
 Alpha  occ. eigenvalues --   -1.04869  -1.03062  -0.95728  -0.95540  -0.86571
 Alpha  occ. eigenvalues --   -0.86270  -0.82565  -0.79132  -0.77756  -0.77469
 Alpha  occ. eigenvalues --   -0.72235  -0.71344  -0.70587  -0.65137  -0.64899
 Alpha  occ. eigenvalues --   -0.64508  -0.62224  -0.60462  -0.58949  -0.57107
 Alpha  occ. eigenvalues --   -0.55372  -0.54855  -0.53197  -0.52962  -0.52277
 Alpha  occ. eigenvalues --   -0.51960  -0.49556  -0.48985  -0.48979  -0.47428
 Alpha  occ. eigenvalues --   -0.46143  -0.45176  -0.45002  -0.44976  -0.43274
 Alpha  occ. eigenvalues --   -0.37449  -0.36465
 Alpha virt. eigenvalues --    0.04893   0.11174   0.16388   0.19498   0.23038
 Alpha virt. eigenvalues --    0.24407   0.26174   0.27272   0.27681   0.28349
 Alpha virt. eigenvalues --    0.29571   0.31133   0.31523   0.31960   0.32505

 Mulliken charges:
               1
     1  C   -0.170172
     2  C   -0.218825
     3  C   -0.169947
     4  C    0.156291
     5  C   -0.174082
     6  C   -0.221454
     7  H    0.226212
     8  H    0.223930
     9  H    0.275868
    10  H    0.284057
    11  H    0.225051
    12  N    0.494246
    13  O   -0.468886
    14  O   -0.458701
    15  C   -0.312546
    16  C   -0.300027
    17  C   -0.474686
    18  H    0.170444
    19  H    0.150394
    20  H    0.146406
    21  H    0.152696
    22  H    0.159577
    23  H    0.144513
    24  H    0.157958
    25  C   -0.296438
    26  C   -0.306027
    27  C   -0.475469
    28  H    0.145477
    29  H    0.145737
    30  H    0.173380
    31  H    0.150516
    32  H    0.150995
    33  H    0.152622
    34  H    0.160888
 Sum of Mulliken charges =  -0.00000

 Dipole moment (field-independent basis, Debye):
    X=              3.3908    Y=              3.6390    Z=              1.4084  Tot=              5.1695
 Quadrupole moment (field-independent basis, Debye-Ang):
   XX=            -76.6424   YY=            -98.6858   ZZ=            -95.5578
   XY=              4.4005   XZ=              3.9621   YZ=             -0.1866

 Normal termination of Gaussian 16 at Wed May  5 18:58:16 2021.
