 Gaussian 16, Revision A.03,
 Gaussian 16:  EM64L-G16RevA.03 25-Dec-2016

 -------------
 #p 6-31g* mp2
 -------------

 ------------------------------------------------------
 Input file generated by CHIRIPA (05-May-2021 14:53:11)
 ------------------------------------------------------
 Symbolic Z-matrix:
 Charge =  0 Multiplicity = 1

                         Standard orientation:
 ---------------------------------------------------------------------
 Center     Atomic      Atomic             Coordinates (Angstroms)
 Number     Number       Type             X           Y           Z
 ---------------------------------------------------------------------
      1          6           0        3.604169   -0.652565    0.588985
      2          6           0        2.516631   -1.334757   -0.241594
      3          6           0        1.676251   -2.315861    0.576325
      4          1           0        4.256937   -1.419645    1.027650
      5          1           0        3.135446   -0.122891    1.429901
      6          1           0        2.987150   -1.861840   -1.081482
      7          1           0        1.866490   -0.565955   -0.678488
      8          1           0        1.180427   -1.800463    1.405255
      9          1           0        2.307454   -3.103711    0.999971
     10          1           0        0.904960   -2.792140   -0.036967
     11          6           0        4.452687    0.331170   -0.214762
     12          6           0        5.540225    1.013361    0.615817
     13          6           0        6.380605    1.994465   -0.202101
     14          1           0        4.921410   -0.198505   -1.055677
     15          1           0        3.799919    1.098250   -0.653426
     16          1           0        6.190366    0.244560    1.052711
     17          1           0        5.069706    1.540444    1.455705
     18          1           0        5.749402    2.782315   -0.625747
     19          1           0        6.876429    1.479067   -1.031031
     20          1           0        7.151897    2.470744    0.411191
     21          6           0       -4.992581    1.691599    0.566562
     22          6           0       -5.076608    0.328075    0.867002
     23          6           0       -4.060021   -0.548857    0.477018
     24          6           0       -2.968806   -0.025855   -0.215086
     25          6           0       -2.856199    1.327633   -0.529220
     26          6           0       -3.884598    2.186155   -0.129363
     27          1           0       -5.786877    2.365670    0.873346
     28          1           0       -5.935907   -0.058802    1.407349
     29          1           0       -4.099582   -1.608885    0.696550
     30          1           0       -1.987235    1.683796   -1.069096
     31          1           0       -3.816671    3.244620   -0.364057
     32          7           0       -1.886338   -0.944479   -0.633171
     33          8           0       -0.935423   -0.458811   -1.241876
     34          8           0       -2.009314   -2.132770   -0.344244
 ---------------------------------------------------------------------

 SCF Done:  E(RHF) =  -669.536509457     A.U. after   15 cycles
 E2 =    -0.2092085392D+01 EUMP2 =    -0.67162859484959D+03

 The electronic state is 1-A.
 Alpha  occ. eigenvalues --  -20.61071 -20.61057 -15.86066 -11.31361 -11.27917
 Alpha  occ. eigenvalues --  -11.27910 -11.27646 -11.26914 -11.26904 -11.20951
 Alpha  occ. eigenvalues --  -11.20561 -11.20510 -11.20233 -11.19892 -11.19242
 Alpha  occ. eigenvalues --   -1.60099  -1.39659  -1.19521  -1.08932  -1.07387
 Alpha  occ. eigenvalues --   -1.04912  -1.02375  -0.95782  -0.94847  -0.86314
 Alpha  occ. eigenvalues --   -0.85882  -0.82616  -0.78519  -0.77675  -0.77105
 Alpha  occ. eigenvalues --   -0.72284  -0.71409  -0.70630  -0.65178  -0.64916
 Alpha  occ. eigenvalues --   -0.64035  -0.62259  -0.59788  -0.58294  -0.56413
 Alpha  occ. eigenvalues --   -0.55410  -0.54189  -0.53241  -0.53003  -0.51532
 Alpha  occ. eigenvalues --   -0.51291  -0.49049  -0.48988  -0.48832  -0.46801
 Alpha  occ. eigenvalues --   -0.45625  -0.45132  -0.44665  -0.44414  -0.42601
 Alpha  occ. eigenvalues --   -0.37496  -0.36511
 Alpha virt. eigenvalues --    0.04824   0.11145   0.16312   0.21271   0.23795
 Alpha virt. eigenvalues --    0.25543   0.27205   0.27593   0.28123   0.28600
 Alpha virt. eigenvalues --    0.29125   0.30864   0.32263   0.32465   0.32774

 Mulliken charges:
               1
     1  C   -0.297158
     2  C   -0.303753
     3  C   -0.478104
     4  H    0.145453
     5  H    0.144496
     6  H    0.146723
     7  H    0.169389
     8  H    0.144728
     9  H    0.143921
    10  H    0.183640
    11  C   -0.296880
    12  C   -0.298520
    13  C   -0.474912
    14  H    0.148595
    15  H    0.148151
    16  H    0.150864
    17  H    0.149517
    18  H    0.153490
    19  H    0.154771
    20  H    0.157674
    21  C   -0.170442
    22  C   -0.218596
    23  C   -0.170467
    24  C    0.158718
    25  C   -0.170723
    26  C   -0.218573
    27  H    0.226255
    28  H    0.224102
    29  H    0.276157
    30  H    0.275615
    31  H    0.224037
    32  N    0.490624
    33  O   -0.460462
    34  O   -0.458331
 Sum of Mulliken charges =  -0.00000

 Dipole moment (field-independent basis, Debye):
    X=             -4.2717    Y=              3.2078    Z=              1.3216  Tot=              5.5031
 Quadrupole moment (field-independent basis, Debye-Ang):
   XX=            -72.7039   YY=            -92.2985   ZZ=            -95.6509
   XY=             -8.5477   XZ=             -5.1157   YZ=             -1.8100

 Normal termination of Gaussian 16 at Wed May  5 20:04:07 2021.
