 Gaussian 16, Revision A.03,
 Gaussian 16:  EM64L-G16RevA.03 25-Dec-2016

 -------------
 #p 6-31g* mp2
 -------------

 ------------------------------------------------------
 Input file generated by CHIRIPA (05-May-2021 14:55:25)
 ------------------------------------------------------
 Symbolic Z-matrix:
 Charge =  0 Multiplicity = 1

                         Standard orientation:
 ---------------------------------------------------------------------
 Center     Atomic      Atomic             Coordinates (Angstroms)
 Number     Number       Type             X           Y           Z
 ---------------------------------------------------------------------
      1          6           0       -2.000137    1.519021    1.816164
      2          6           0       -1.389358    1.328169    0.572361
      3          6           0       -1.945688    0.452680   -0.364956
      4          6           0       -3.118786   -0.218675   -0.023761
      5          6           0       -3.750954   -0.049757    1.207141
      6          6           0       -3.176910    0.830662    2.129033
      7          1           0       -1.561086    2.201037    2.538303
      8          1           0       -0.475400    1.861419    0.326656
      9          1           0       -1.493698    0.286194   -1.335217
     10          1           0       -4.661400   -0.595432    1.423345
     11          1           0       -3.653435    0.976917    3.094216
     12          7           0       -3.717124   -1.148126   -1.007892
     13          8           0       -4.751158   -1.727682   -0.683046
     14          8           0       -3.140738   -1.279474   -2.085465
     15          6           0        3.746456    0.571190   -0.753098
     16          6           0        2.746390    1.677079   -0.414180
     17          6           0        2.518111    2.644139   -1.576280
     18          1           0        4.702220    1.027005   -1.045830
     19          1           0        3.384378    0.014731   -1.628682
     20          1           0        3.109560    2.230408    0.461348
     21          1           0        1.792953    1.218574   -0.122036
     22          1           0        2.132644    2.110801   -2.451246
     23          1           0        3.456733    3.128383   -1.864547
     24          1           0        1.799813    3.426577   -1.312272
     25          6           0        3.985187   -0.403534    0.398704
     26          6           0        4.985252   -1.509422    0.059786
     27          6           0        5.213532   -2.476483    1.221886
     28          1           0        4.347263    0.152926    1.274288
     29          1           0        3.029422   -0.859348    0.691436
     30          1           0        5.938689   -1.050918   -0.232358
     31          1           0        4.622081   -2.062751   -0.815742
     32          1           0        4.274909   -2.960726    1.510152
     33          1           0        5.598998   -1.943144    2.096851
     34          1           0        5.931829   -3.258920    0.957877
 ---------------------------------------------------------------------

 SCF Done:  E(RHF) =  -669.535581610     A.U. after   15 cycles
 E2 =    -0.2091169271D+01 EUMP2 =    -0.67162675088131D+03

 The electronic state is 1-A.
 Alpha  occ. eigenvalues --  -20.60763 -20.60758 -15.85817 -11.31179 -11.27753
 Alpha  occ. eigenvalues --  -11.27745 -11.27485 -11.26763 -11.26720 -11.22478
 Alpha  occ. eigenvalues --  -11.21968 -11.21921 -11.21892 -11.21818 -11.21322
 Alpha  occ. eigenvalues --   -1.59839  -1.39392  -1.19351  -1.08988  -1.08744
 Alpha  occ. eigenvalues --   -1.04755  -1.04098  -0.96523  -0.95581  -0.87537
 Alpha  occ. eigenvalues --   -0.86152  -0.82417  -0.80190  -0.78774  -0.77460
 Alpha  occ. eigenvalues --   -0.72035  -0.71162  -0.70458  -0.65649  -0.65001
 Alpha  occ. eigenvalues --   -0.64753  -0.62163  -0.61440  -0.59918  -0.58135
 Alpha  occ. eigenvalues --   -0.55794  -0.55248  -0.53240  -0.53086  -0.52940
 Alpha  occ. eigenvalues --   -0.52845  -0.50453  -0.48800  -0.48790  -0.48477
 Alpha  occ. eigenvalues --   -0.47210  -0.46310  -0.46208  -0.44799  -0.44334
 Alpha  occ. eigenvalues --   -0.37329  -0.36352
 Alpha virt. eigenvalues --    0.05063   0.11257   0.16487   0.19824   0.22661
 Alpha virt. eigenvalues --    0.23657   0.25749   0.26381   0.27125   0.28255
 Alpha virt. eigenvalues --    0.28845   0.30004   0.30971   0.31380   0.32133

 Mulliken charges:
               1
     1  C   -0.171730
     2  C   -0.224110
     3  C   -0.172886
     4  C    0.158617
     5  C   -0.170965
     6  C   -0.218488
     7  H    0.226055
     8  H    0.232464
     9  H    0.275297
    10  H    0.275587
    11  H    0.223377
    12  N    0.488124
    13  O   -0.460478
    14  O   -0.460577
    15  C   -0.298126
    16  C   -0.305641
    17  C   -0.478079
    18  H    0.152130
    19  H    0.152579
    20  H    0.152790
    21  H    0.145573
    22  H    0.158296
    23  H    0.160607
    24  H    0.156256
    25  C   -0.299164
    26  C   -0.300320
    27  C   -0.476155
    28  H    0.148916
    29  H    0.150530
    30  H    0.152485
    31  H    0.154183
    32  H    0.156245
    33  H    0.154675
    34  H    0.161933
 Sum of Mulliken charges =  -0.00000

 Dipole moment (field-independent basis, Debye):
    X=              2.2658    Y=              3.2381    Z=              3.4434  Tot=              5.2418
 Quadrupole moment (field-independent basis, Debye-Ang):
   XX=           -104.3714   YY=            -96.9406   ZZ=            -93.5791
   XY=             -9.2504   XZ=            -13.8869   YZ=             -0.8007

 Normal termination of Gaussian 16 at Thu May  6 07:59:49 2021.
