 Gaussian 16, Revision A.03,
 Gaussian 16:  EM64L-G16RevA.03 25-Dec-2016

 -------------
 #p 6-31g* mp2
 -------------

 ------------------------------------------------------
 Input file generated by CHIRIPA (05-May-2021 14:53:17)
 ------------------------------------------------------
 Symbolic Z-matrix:
 Charge =  0 Multiplicity = 1

                         Standard orientation:
 ---------------------------------------------------------------------
 Center     Atomic      Atomic             Coordinates (Angstroms)
 Number     Number       Type             X           Y           Z
 ---------------------------------------------------------------------
      1          6           0       -5.321223    0.255775   -0.232915
      2          6           0       -6.724778   -0.251104    0.100391
      3          6           0       -7.825995    0.675776   -0.415368
      4          1           0       -5.189026    1.258602    0.195812
      5          1           0       -5.228069    0.366735   -1.322137
      6          1           0       -6.814801   -0.362392    1.188567
      7          1           0       -6.853581   -1.252920   -0.329016
      8          1           0       -7.764687    0.778553   -1.503614
      9          1           0       -7.725686    1.674140    0.022592
     10          1           0       -8.821133    0.294400   -0.166144
     11          6           0       -4.209592   -0.660125    0.276135
     12          6           0       -2.806037   -0.153247   -0.057171
     13          6           0       -1.704819   -1.080127    0.458588
     14          1           0       -4.302745   -0.771085    1.365357
     15          1           0       -4.341789   -1.662952   -0.152592
     16          1           0       -2.677233    0.848569    0.372236
     17          1           0       -2.716013   -0.041958   -1.145347
     18          1           0       -1.805128   -2.078491    0.020628
     19          1           0       -1.766128   -1.182904    1.546834
     20          1           0       -0.709681   -0.698750    0.209364
     21          6           0        4.379040   -2.272472   -0.185854
     22          6           0        5.346350   -1.273949   -0.340076
     23          6           0        4.994223    0.075924   -0.248444
     24          6           0        3.659548    0.392914   -0.000547
     25          6           0        2.672789   -0.578961    0.157743
     26          6           0        3.047694   -1.922408    0.062127
     27          1           0        4.661428   -3.318590   -0.258583
     28          1           0        6.381051   -1.542874   -0.532737
     29          1           0        5.722783    0.869223   -0.363748
     30          1           0        1.649359   -0.279905    0.348990
     31          1           0        2.294340   -2.695750    0.182326
     32          7           0        3.274710    1.818563    0.098568
     33          8           0        2.092096    2.071676    0.317647
     34          8           0        4.162974    2.655879   -0.044700
 ---------------------------------------------------------------------

 SCF Done:  E(RHF) =  -669.535579236     A.U. after   15 cycles
 E2 =    -0.2090818469D+01 EUMP2 =    -0.67162639770480D+03

 The electronic state is 1-A.
 Alpha  occ. eigenvalues --  -20.60749 -20.60744 -15.85800 -11.31154 -11.27727
 Alpha  occ. eigenvalues --  -11.27709 -11.27470 -11.26745 -11.26724 -11.21680
 Alpha  occ. eigenvalues --  -11.21584 -11.21504 -11.21445 -11.21345 -11.21024
 Alpha  occ. eigenvalues --   -1.59824  -1.39378  -1.19329  -1.08727  -1.08469
 Alpha  occ. eigenvalues --   -1.04731  -1.03613  -0.96097  -0.95563  -0.87124
 Alpha  occ. eigenvalues --   -0.86130  -0.82394  -0.79671  -0.78261  -0.77444
 Alpha  occ. eigenvalues --   -0.72021  -0.71146  -0.70450  -0.65093  -0.64982
 Alpha  occ. eigenvalues --   -0.64742  -0.62121  -0.61001  -0.59460  -0.57688
 Alpha  occ. eigenvalues --   -0.55377  -0.55240  -0.53065  -0.53010  -0.52663
 Alpha  occ. eigenvalues --   -0.52470  -0.50024  -0.48778  -0.48776  -0.47988
 Alpha  occ. eigenvalues --   -0.46676  -0.45814  -0.45720  -0.44785  -0.43874
 Alpha  occ. eigenvalues --   -0.37313  -0.36332
 Alpha virt. eigenvalues --    0.05087   0.11314   0.16584   0.20327   0.22876
 Alpha virt. eigenvalues --    0.23872   0.25921   0.26643   0.27444   0.27913
 Alpha virt. eigenvalues --    0.28832   0.30429   0.31348   0.31528   0.32008

 Mulliken charges:
               1
     1  C   -0.298685
     2  C   -0.299697
     3  C   -0.475821
     4  H    0.151993
     5  H    0.150065
     6  H    0.151945
     7  H    0.151107
     8  H    0.155354
     9  H    0.156173
    10  H    0.160030
    11  C   -0.299273
    12  C   -0.298248
    13  C   -0.482427
    14  H    0.149715
    15  H    0.148074
    16  H    0.159669
    17  H    0.153511
    18  H    0.152674
    19  H    0.157406
    20  H    0.157155
    21  C   -0.170729
    22  C   -0.218979
    23  C   -0.170131
    24  C    0.159522
    25  C   -0.181716
    26  C   -0.222405
    27  H    0.225519
    28  H    0.223341
    29  H    0.275511
    30  H    0.289160
    31  H    0.224462
    32  N    0.486721
    33  O   -0.460578
    34  O   -0.460419
 Sum of Mulliken charges =  -0.00000

 Dipole moment (field-independent basis, Debye):
    X=              1.2554    Y=             -4.9710    Z=             -0.3456  Tot=              5.1387
 Quadrupole moment (field-independent basis, Debye-Ang):
   XX=            -80.8740   YY=            -99.0622   ZZ=            -94.8284
   XY=            -16.3399   XZ=             -2.5065   YZ=              0.2713

 Normal termination of Gaussian 16 at Thu May  6 05:58:23 2021.
