 Gaussian 16, Revision A.03,
 Gaussian 16:  EM64L-G16RevA.03 25-Dec-2016

 -------------
 #p 6-31g* mp2
 -------------

 ------------------------------------------------------
 Input file generated by CHIRIPA (05-May-2021 14:53:15)
 ------------------------------------------------------
 Symbolic Z-matrix:
 Charge =  0 Multiplicity = 1

                         Standard orientation:
 ---------------------------------------------------------------------
 Center     Atomic      Atomic             Coordinates (Angstroms)
 Number     Number       Type             X           Y           Z
 ---------------------------------------------------------------------
      1          6           0        3.407565    0.081616   -0.546763
      2          6           0        2.142023   -0.567697    0.014289
      3          6           0        0.875638   -0.125769   -0.719716
      4          1           0        3.309260    1.174138   -0.486129
      5          1           0        3.495952   -0.165523   -1.613771
      6          1           0        2.056783   -0.320550    1.080248
      7          1           0        2.243433   -1.658803   -0.047511
      8          1           0        0.934719   -0.386828   -1.781299
      9          1           0        0.747008    0.959029   -0.647132
     10          1           0       -0.017107   -0.601937   -0.302426
     11          6           0        4.681849   -0.350309    0.176680
     12          6           0        5.947392    0.299004   -0.384373
     13          6           0        7.213776   -0.142923    0.349632
     14          1           0        4.593463   -0.103169    1.243687
     15          1           0        4.780155   -1.442831    0.116046
     16          1           0        5.845982    1.390111   -0.322573
     17          1           0        6.032631    0.051858   -1.450332
     18          1           0        7.342406   -1.227721    0.277048
     19          1           0        7.154696    0.118135    1.411215
     20          1           0        8.106521    0.333245   -0.067658
     21          6           0       -3.748173   -2.343813   -0.008451
     22          6           0       -4.364178   -1.421348   -0.860576
     23          6           0       -4.045962   -0.062112   -0.784657
     24          6           0       -3.103058    0.341696    0.159357
     25          6           0       -2.472104   -0.553090    1.022226
     26          6           0       -2.805763   -1.907509    0.928578
     27          1           0       -4.001368   -3.397829   -0.074312
     28          1           0       -5.096432   -1.757330   -1.589250
     29          1           0       -4.507665    0.673460   -1.432099
     30          1           0       -1.746013   -0.188061    1.738441
     31          1           0       -2.325772   -2.621661    1.591634
     32          7           0       -2.758002    1.778108    0.249113
     33          8           0       -1.924047    2.108446    1.089371
     34          8           0       -3.328037    2.546432   -0.522493
 ---------------------------------------------------------------------

 SCF Done:  E(RHF) =  -669.535142028     A.U. after   15 cycles
 E2 =    -0.2092375884D+01 EUMP2 =    -0.67162751791260D+03

 The electronic state is 1-A.
 Alpha  occ. eigenvalues --  -20.60801 -20.60788 -15.85842 -11.31205 -11.27793
 Alpha  occ. eigenvalues --  -11.27781 -11.27542 -11.26810 -11.26795 -11.21482
 Alpha  occ. eigenvalues --  -11.21463 -11.21256 -11.21178 -11.20964 -11.20750
 Alpha  occ. eigenvalues --   -1.59863  -1.39417  -1.19403  -1.08786  -1.08276
 Alpha  occ. eigenvalues --   -1.04816  -1.03374  -0.95826  -0.95614  -0.86844
 Alpha  occ. eigenvalues --   -0.86194  -0.82456  -0.79450  -0.78095  -0.77499
 Alpha  occ. eigenvalues --   -0.72065  -0.71180  -0.70513  -0.65053  -0.64904
 Alpha  occ. eigenvalues --   -0.64804  -0.62165  -0.60760  -0.59233  -0.57465
 Alpha  occ. eigenvalues --   -0.55307  -0.55077  -0.53377  -0.52898  -0.52358
 Alpha  occ. eigenvalues --   -0.52145  -0.49739  -0.48824  -0.48816  -0.47760
 Alpha  occ. eigenvalues --   -0.46478  -0.45635  -0.45560  -0.44805  -0.43644
 Alpha  occ. eigenvalues --   -0.37357  -0.36347
 Alpha virt. eigenvalues --    0.05010   0.11213   0.16489   0.21253   0.23034
 Alpha virt. eigenvalues --    0.24397   0.26730   0.27152   0.27695   0.27932
 Alpha virt. eigenvalues --    0.28764   0.30905   0.31596   0.31957   0.32192

 Mulliken charges:
               1
     1  C   -0.298655
     2  C   -0.299060
     3  C   -0.484590
     4  H    0.153838
     5  H    0.148866
     6  H    0.150950
     7  H    0.147341
     8  H    0.152976
     9  H    0.166779
    10  H    0.158204
    11  C   -0.298192
    12  C   -0.299741
    13  C   -0.475636
    14  H    0.149704
    15  H    0.147638
    16  H    0.153493
    17  H    0.151531
    18  H    0.154126
    19  H    0.155280
    20  H    0.160247
    21  C   -0.170313
    22  C   -0.218460
    23  C   -0.170650
    24  C    0.163084
    25  C   -0.174786
    26  C   -0.218364
    27  H    0.225856
    28  H    0.223615
    29  H    0.275846
    30  H    0.277205
    31  H    0.224079
    32  N    0.488620
    33  O   -0.460597
    34  O   -0.460234
 Sum of Mulliken charges =  -0.00000

 Dipole moment (field-independent basis, Debye):
    X=             -1.3100    Y=             -4.9747    Z=             -0.3145  Tot=              5.1539
 Quadrupole moment (field-independent basis, Debye-Ang):
   XX=            -86.5978   YY=            -98.0883   ZZ=            -92.3082
   XY=             15.1628   XZ=              3.1096   YZ=             -1.2072

 Normal termination of Gaussian 16 at Wed May  5 17:10:29 2021.
