 Gaussian 16, Revision A.03,
 Gaussian 16:  EM64L-G16RevA.03 25-Dec-2016

 -------------
 #p 6-31g* mp2
 -------------

 ------------------------------------------------------
 Input file generated by CHIRIPA (05-May-2021 14:53:12)
 ------------------------------------------------------
 Symbolic Z-matrix:
 Charge =  0 Multiplicity = 1

                         Standard orientation:
 ---------------------------------------------------------------------
 Center     Atomic      Atomic             Coordinates (Angstroms)
 Number     Number       Type             X           Y           Z
 ---------------------------------------------------------------------
      1          6           0        3.358063    0.628532    0.231513
      2          6           0        2.892329    2.051373   -0.079292
      3          6           0        3.618746    3.106712    0.755197
      4          1           0        3.203021    0.423892    1.299703
      5          1           0        4.440000    0.557202    0.053415
      6          1           0        1.811348    2.119628    0.098014
      7          1           0        3.048320    2.252583   -1.146905
      8          1           0        4.697334    3.067632    0.571560
      9          1           0        3.453334    2.933922    1.823553
     10          1           0        3.270406    4.116537    0.516928
     11          6           0        2.641051   -0.437696   -0.594793
     12          6           0        3.106785   -1.860537   -0.283988
     13          6           0        2.380368   -2.915876   -1.118477
     14          1           0        1.559114   -0.366365   -0.416695
     15          1           0        2.796093   -0.233056   -1.662983
     16          1           0        2.950794   -2.061746    0.783625
     17          1           0        4.187766   -1.928792   -0.461294
     18          1           0        2.545780   -2.743086   -2.186832
     19          1           0        1.301780   -2.876796   -0.934840
     20          1           0        2.728708   -3.925701   -0.880208
     21          6           0       -1.470666   -1.380427    2.116476
     22          6           0       -1.123678   -1.762034    0.816285
     23          6           0       -1.601412   -1.045836   -0.285250
     24          6           0       -2.427777    0.051702   -0.048988
     25          6           0       -2.791325    0.456726    1.234398
     26          6           0       -2.301916   -0.274215    2.321022
     27          1           0       -1.095016   -1.942513    2.966383
     28          1           0       -0.478288   -2.620707    0.654429
     29          1           0       -1.348524   -1.319365   -1.302426
     30          1           0       -3.436466    1.317184    1.364101
     31          1           0       -2.573041    0.024442    3.329654
     32          7           0       -2.939712    0.817713   -1.207241
     33          8           0       -3.666234    1.780855   -0.972379
     34          8           0       -2.604751    0.440466   -2.328010
 ---------------------------------------------------------------------

 SCF Done:  E(RHF) =  -669.535303974     A.U. after   15 cycles
 E2 =    -0.2092714215D+01 EUMP2 =    -0.67162801818914D+03

 The electronic state is 1-A.
 Alpha  occ. eigenvalues --  -20.60805 -20.60799 -15.85860 -11.31261 -11.27834
 Alpha  occ. eigenvalues --  -11.27831 -11.27574 -11.26851 -11.26837 -11.22154
 Alpha  occ. eigenvalues --  -11.21853 -11.21694 -11.21661 -11.21586 -11.21155
 Alpha  occ. eigenvalues --   -1.59880  -1.39432  -1.19442  -1.08828  -1.08739
 Alpha  occ. eigenvalues --   -1.04853  -1.03887  -0.96345  -0.95653  -0.87368
 Alpha  occ. eigenvalues --   -0.86238  -0.82492  -0.79951  -0.78520  -0.77526
 Alpha  occ. eigenvalues --   -0.72076  -0.71204  -0.70538  -0.65437  -0.65084
 Alpha  occ. eigenvalues --   -0.64830  -0.62263  -0.61232  -0.59719  -0.57933
 Alpha  occ. eigenvalues --   -0.55688  -0.55316  -0.53193  -0.53044  -0.52973
 Alpha  occ. eigenvalues --   -0.52711  -0.50302  -0.48838  -0.48829  -0.48259
 Alpha  occ. eigenvalues --   -0.46982  -0.46066  -0.45967  -0.44829  -0.44107
 Alpha  occ. eigenvalues --   -0.37418  -0.36406
 Alpha virt. eigenvalues --    0.04975   0.11174   0.16340   0.19789   0.22891
 Alpha virt. eigenvalues --    0.23875   0.25695   0.26653   0.27298   0.28077
 Alpha virt. eigenvalues --    0.28999   0.30086   0.31221   0.31563   0.32292

 Mulliken charges:
               1
     1  C   -0.297756
     2  C   -0.300242
     3  C   -0.475917
     4  H    0.147189
     5  H    0.149786
     6  H    0.153739
     7  H    0.154626
     8  H    0.155092
     9  H    0.153405
    10  H    0.162338
    11  C   -0.303923
    12  C   -0.299570
    13  C   -0.477934
    14  H    0.152580
    15  H    0.152813
    16  H    0.147512
    17  H    0.155369
    18  H    0.161877
    19  H    0.143327
    20  H    0.161825
    21  C   -0.171688
    22  C   -0.221524
    23  C   -0.172132
    24  C    0.158085
    25  C   -0.170978
    26  C   -0.218525
    27  H    0.226235
    28  H    0.229457
    29  H    0.277054
    30  H    0.275992
    31  H    0.223811
    32  N    0.488222
    33  O   -0.460369
    34  O   -0.459778
 Sum of Mulliken charges =  -0.00000

 Dipole moment (field-independent basis, Debye):
    X=              1.8246    Y=             -2.6275    Z=              4.0391  Tot=              5.1524
 Quadrupole moment (field-independent basis, Debye-Ang):
   XX=           -102.4051   YY=            -94.4187   ZZ=            -93.2256
   XY=              4.6533   XZ=            -12.8591   YZ=              1.9785

 Normal termination of Gaussian 16 at Wed May  5 21:45:52 2021.
