 Gaussian 16, Revision A.03,
 Gaussian 16:  EM64L-G16RevA.03 25-Dec-2016

 -------------
 #p 6-31g* mp2
 -------------

 ------------------------------------------------------
 Input file generated by CHIRIPA (05-May-2021 14:57:23)
 ------------------------------------------------------
 Symbolic Z-matrix:
 Charge =  0 Multiplicity = 1

                         Standard orientation:
 ---------------------------------------------------------------------
 Center     Atomic      Atomic             Coordinates (Angstroms)
 Number     Number       Type             X           Y           Z
 ---------------------------------------------------------------------
      1          6           0        2.414023    1.433649    0.737898
      2          6           0        3.611652    2.115870    0.499608
      3          6           0        4.764193    1.418019    0.126512
      4          6           0        4.682966    0.032088    0.000460
      5          6           0        3.504578   -0.676109    0.231001
      6          6           0        2.364396    0.042290    0.603072
      7          1           0        1.523502    1.983738    1.027330
      8          1           0        3.653132    3.196389    0.603550
      9          1           0        5.704450    1.921038   -0.064030
     10          1           0        3.494202   -1.753530    0.119317
     11          1           0        1.435675   -0.490166    0.787495
     12          7           0        5.896567   -0.717572   -0.393978
     13          8           0        5.798857   -1.938319   -0.498218
     14          8           0        6.922519   -0.070214   -0.591429
     15          6           0       -2.055426   -0.811218    0.142556
     16          6           0       -3.058568   -1.718894    0.498014
     17          6           0       -4.406889   -1.366446    0.386845
     18          6           0       -4.717633   -0.092262   -0.085579
     19          6           0       -3.741051    0.834266   -0.447686
     20          6           0       -2.399264    0.460225   -0.328329
     21          1           0       -1.010556   -1.093395    0.232095
     22          1           0       -2.794483   -2.706999    0.864012
     23          1           0       -5.203670   -2.049562    0.655007
     24          1           0       -4.035324    1.812031   -0.809345
     25          1           0       -1.622326    1.167190   -0.605118
     26          7           0       -6.141583    0.292288   -0.207602
     27          8           0       -6.389161    1.420946   -0.626498
     28          8           0       -6.983133   -0.542240    0.117961
 ---------------------------------------------------------------------

 SCF Done:  E(RHF) =  -868.336392148     A.U. after   16 cycles
 E2 =    -0.2599663252D+01 EUMP2 =    -0.87093605540068D+03

 The electronic state is 1-A.
 Alpha  occ. eigenvalues --  -20.61384 -20.61376 -20.61292 -20.61286 -15.86444
 Alpha  occ. eigenvalues --  -15.86350 -11.31959 -11.31859 -11.28608 -11.28521
 Alpha  occ. eigenvalues --  -11.28452 -11.28414 -11.28387 -11.28337 -11.27752
 Alpha  occ. eigenvalues --  -11.27570 -11.27557 -11.27495  -1.60455  -1.60363
 Alpha  occ. eigenvalues --   -1.40005  -1.39913  -1.20166  -1.20056  -1.09543
 Alpha  occ. eigenvalues --   -1.09450  -1.05603  -1.05475  -0.96343  -0.96257
 Alpha  occ. eigenvalues --   -0.87006  -0.86879  -0.83186  -0.83072  -0.78196
 Alpha  occ. eigenvalues --   -0.78076  -0.72660  -0.72566  -0.71781  -0.71687
 Alpha  occ. eigenvalues --   -0.71302  -0.71235  -0.65830  -0.65733  -0.65667
 Alpha  occ. eigenvalues --   -0.65458  -0.62956  -0.62811  -0.56215  -0.55994
 Alpha  occ. eigenvalues --   -0.53909  -0.53803  -0.53692  -0.53579  -0.49432
 Alpha  occ. eigenvalues --   -0.49404  -0.49337  -0.49311  -0.45377  -0.45286
 Alpha  occ. eigenvalues --   -0.38165  -0.38080  -0.37200  -0.37066
 Alpha virt. eigenvalues --    0.04362   0.04448   0.10409   0.10570   0.15790
 Alpha virt. eigenvalues --    0.15861   0.17422   0.22104   0.24161   0.25660
 Alpha virt. eigenvalues --    0.27743   0.28708   0.29823   0.31402   0.32417

 Mulliken charges:
               1
     1  C   -0.173177
     2  C   -0.218005
     3  C   -0.169411
     4  C    0.159371
     5  C   -0.170565
     6  C   -0.222711
     7  H    0.224601
     8  H    0.226381
     9  H    0.278454
    10  H    0.276497
    11  H    0.218157
    12  N    0.488027
    13  O   -0.459351
    14  O   -0.457972
    15  C   -0.174296
    16  C   -0.218596
    17  C   -0.169780
    18  C    0.159377
    19  C   -0.169922
    20  C   -0.220486
    21  H    0.221828
    22  H    0.225901
    23  H    0.278101
    24  H    0.277117
    25  H    0.219954
    26  N    0.487888
    27  O   -0.459107
    28  O   -0.458277
 Sum of Mulliken charges =  -0.00000

 Dipole moment (field-independent basis, Debye):
    X=              0.7650    Y=              1.3281    Z=              1.7943  Tot=              2.3598
 Quadrupole moment (field-independent basis, Debye-Ang):
   XX=           -189.2867   YY=            -96.6245   ZZ=           -105.9721
   XY=             22.5799   XZ=              3.3621   YZ=             -1.8789

 Normal termination of Gaussian 16 at Thu May  6 16:17:32 2021.
