 Gaussian 16, Revision A.03,
 Gaussian 16:  EM64L-G16RevA.03 25-Dec-2016

 -------------
 #p 6-31g* mp2
 -------------

 ------------------------------------------------------
 Input file generated by CHIRIPA (05-May-2021 14:57:26)
 ------------------------------------------------------
 Symbolic Z-matrix:
 Charge =  0 Multiplicity = 1

                         Standard orientation:
 ---------------------------------------------------------------------
 Center     Atomic      Atomic             Coordinates (Angstroms)
 Number     Number       Type             X           Y           Z
 ---------------------------------------------------------------------
      1          6           0        4.821914    1.957476    0.230870
      2          6           0        3.929567    1.798059   -0.834411
      3          6           0        3.109405    0.668424   -0.910616
      4          6           0        3.208096   -0.286367    0.100287
      5          6           0        4.087159   -0.156134    1.174334
      6          6           0        4.897728    0.981591    1.230081
      7          1           0        5.455310    2.838145    0.282122
      8          1           0        3.868548    2.554324   -1.611833
      9          1           0        2.409753    0.519775   -1.724132
     10          1           0        4.125419   -0.927079    1.934333
     11          1           0        5.589811    1.102751    2.058566
     12          7           0        2.344904   -1.486543    0.030440
     13          8           0        2.450904   -2.313310    0.933688
     14          8           0        1.578680   -1.577748   -0.926230
     15          6           0       -5.385614    1.127612    0.957803
     16          6           0       -5.159288   -0.247863    1.073414
     17          6           0       -4.034938   -0.834358    0.484851
     18          6           0       -3.153599   -0.011888   -0.215203
     19          6           0       -3.351565    1.361594   -0.348043
     20          6           0       -4.482621    1.926542    0.248693
     21          1           0       -6.261640    1.574846    1.418187
     22          1           0       -5.858868   -0.870772    1.623523
     23          1           0       -3.835436   -1.896503    0.558778
     24          1           0       -2.636320    1.956738   -0.902703
     25          1           0       -4.655842    2.995037    0.157275
     26          7           0       -1.959750   -0.621378   -0.842614
     27          8           0       -1.198375    0.125003   -1.454057
     28          8           0       -1.807992   -1.833937   -0.711058
 ---------------------------------------------------------------------

 SCF Done:  E(RHF) =  -868.335160034     A.U. after   16 cycles
 E2 =    -0.2601107254D+01 EUMP2 =    -0.87093626728766D+03

 The electronic state is 1-A.
 Alpha  occ. eigenvalues --  -20.59942 -20.59854 -20.59458 -20.59280 -15.84974
 Alpha  occ. eigenvalues --  -15.84417 -11.30681 -11.30184 -11.27321 -11.27255
 Alpha  occ. eigenvalues --  -11.27092 -11.26864 -11.26729 -11.26681 -11.26397
 Alpha  occ. eigenvalues --  -11.26354 -11.25963 -11.25905  -1.58949  -1.58451
 Alpha  occ. eigenvalues --   -1.38507  -1.37984  -1.18881  -1.18414  -1.08209
 Alpha  occ. eigenvalues --   -1.07746  -1.04336  -1.03871  -0.94990  -0.94499
 Alpha  occ. eigenvalues --   -0.85719  -0.85250  -0.81828  -0.81324  -0.76816
 Alpha  occ. eigenvalues --   -0.76293  -0.71175  -0.70657  -0.70313  -0.69990
 Alpha  occ. eigenvalues --   -0.69771  -0.69520  -0.64529  -0.64342  -0.64050
 Alpha  occ. eigenvalues --   -0.63885  -0.61682  -0.61197  -0.54823  -0.54387
 Alpha  occ. eigenvalues --   -0.52647  -0.52435  -0.52195  -0.51965  -0.47983
 Alpha  occ. eigenvalues --   -0.47943  -0.47384  -0.47298  -0.43847  -0.43246
 Alpha  occ. eigenvalues --   -0.36881  -0.36441  -0.35956  -0.35496
 Alpha virt. eigenvalues --    0.05692   0.06264   0.11693   0.12152   0.17143
 Alpha virt. eigenvalues --    0.17648   0.21779   0.22220   0.27667   0.28095
 Alpha virt. eigenvalues --    0.28690   0.29190   0.31298   0.31723   0.32941

 Mulliken charges:
               1
     1  C   -0.172372
     2  C   -0.219998
     3  C   -0.170831
     4  C    0.157087
     5  C   -0.172429
     6  C   -0.219304
     7  H    0.221354
     8  H    0.220535
     9  H    0.286086
    10  H    0.273196
    11  H    0.219401
    12  N    0.484365
    13  O   -0.469610
    14  O   -0.438388
    15  C   -0.171961
    16  C   -0.218477
    17  C   -0.171020
    18  C    0.159517
    19  C   -0.171976
    20  C   -0.218434
    21  H    0.223535
    22  H    0.222493
    23  H    0.277691
    24  H    0.272021
    25  H    0.220644
    26  N    0.487469
    27  O   -0.464762
    28  O   -0.445831
 Sum of Mulliken charges =  -0.00000

 Dipole moment (field-independent basis, Debye):
    X=             -1.3722    Y=              6.0660    Z=              2.2144  Tot=              6.6018
 Quadrupole moment (field-independent basis, Debye-Ang):
   XX=            -61.2127   YY=           -103.6603   ZZ=           -102.5764
   XY=              6.9471   XZ=             -4.1626   YZ=             -3.2846

 Normal termination of Gaussian 16 at Wed May  5 21:11:21 2021.
