 Gaussian 16, Revision A.03,
 Gaussian 16:  EM64L-G16RevA.03 25-Dec-2016

 -------------
 #p 6-31g* mp2
 -------------

 ------------------------------------------------------
 Input file generated by CHIRIPA (05-May-2021 14:53:18)
 ------------------------------------------------------
 Symbolic Z-matrix:
 Charge =  0 Multiplicity = 1

                         Standard orientation:
 ---------------------------------------------------------------------
 Center     Atomic      Atomic             Coordinates (Angstroms)
 Number     Number       Type             X           Y           Z
 ---------------------------------------------------------------------
      1          6           0        2.802852   -0.313913   -0.110545
      2          6           0        3.983940   -1.016359   -0.781057
      3          6           0        3.674799   -2.466445   -1.154524
      4          1           0        2.515501   -0.872846    0.790548
      5          1           0        1.936537   -0.342889   -0.785862
      6          1           0        4.848171   -0.984853   -0.105240
      7          1           0        4.268635   -0.455583   -1.680553
      8          1           0        2.828936   -2.513715   -1.847980
      9          1           0        3.411764   -3.045992   -0.263716
     10          1           0        4.532725   -2.949562   -1.632459
     11          6           0        3.096495    1.136485    0.268729
     12          6           0        1.915407    1.838931    0.939240
     13          6           0        2.224548    3.289017    1.312707
     14          1           0        3.962811    1.165461    0.944045
     15          1           0        3.383846    1.695417   -0.632365
     16          1           0        1.630712    1.278155    1.838737
     17          1           0        1.051176    1.807424    0.263424
     18          1           0        2.487583    3.868563    0.421899
     19          1           0        3.070412    3.336287    2.006163
     20          1           0        1.366623    3.772133    1.790643
     21          6           0       -1.455140   -2.269373    1.298247
     22          6           0       -0.603274   -1.618730    0.399633
     23          6           0       -1.063078   -0.538250   -0.359109
     24          6           0       -2.386539   -0.132986   -0.193274
     25          6           0       -3.259617   -0.760785    0.693796
     26          6           0       -2.778261   -1.839083    1.442207
     27          1           0       -1.089582   -3.107869    1.883644
     28          1           0        0.424760   -1.950732    0.285759
     29          1           0       -0.425070   -0.016498   -1.062059
     30          1           0       -4.279340   -0.406981    0.785475
     31          1           0       -3.442083   -2.342488    2.139321
     32          7           0       -2.884721    1.009715   -0.991052
     33          8           0       -4.054974    1.347462   -0.826516
     34          8           0       -2.095510    1.545978   -1.765780
 ---------------------------------------------------------------------

 SCF Done:  E(RHF) =  -669.533978520     A.U. after   15 cycles
 E2 =    -0.2094238526D+01 EUMP2 =    -0.67162821704523D+03

 The electronic state is 1-A.
 Alpha  occ. eigenvalues --  -20.60738 -20.60732 -15.85783 -11.31098 -11.27657
 Alpha  occ. eigenvalues --  -11.27624 -11.27370 -11.26675 -11.26537 -11.22375
 Alpha  occ. eigenvalues --  -11.22315 -11.21928 -11.21908 -11.21843 -11.21159
 Alpha  occ. eigenvalues --   -1.59809  -1.39365  -1.19257  -1.09101  -1.08659
 Alpha  occ. eigenvalues --   -1.04651  -1.04058  -0.96546  -0.95511  -0.87557
 Alpha  occ. eigenvalues --   -0.86056  -0.82376  -0.80178  -0.79002  -0.77318
 Alpha  occ. eigenvalues --   -0.72004  -0.71129  -0.70392  -0.65767  -0.64902
 Alpha  occ. eigenvalues --   -0.64636  -0.62041  -0.61434  -0.59927  -0.58134
 Alpha  occ. eigenvalues --   -0.55849  -0.55166  -0.53205  -0.53050  -0.52957
 Alpha  occ. eigenvalues --   -0.52681  -0.50480  -0.48769  -0.48763  -0.48434
 Alpha  occ. eigenvalues --   -0.47222  -0.46361  -0.46295  -0.44775  -0.44350
 Alpha  occ. eigenvalues --   -0.37237  -0.36207
 Alpha virt. eigenvalues --    0.05099   0.11304   0.16573   0.20050   0.22750
 Alpha virt. eigenvalues --    0.23261   0.24601   0.26039   0.27110   0.28591
 Alpha virt. eigenvalues --    0.30240   0.30590   0.31126   0.31298   0.32040

 Mulliken charges:
               1
     1  C   -0.306129
     2  C   -0.298497
     3  C   -0.479493
     4  H    0.146214
     5  H    0.144095
     6  H    0.155226
     7  H    0.157042
     8  H    0.154825
     9  H    0.150675
    10  H    0.166078
    11  C   -0.297992
    12  C   -0.304379
    13  C   -0.475901
    14  H    0.151328
    15  H    0.154226
    16  H    0.150817
    17  H    0.157388
    18  H    0.158388
    19  H    0.153889
    20  H    0.163913
    21  C   -0.172761
    22  C   -0.221343
    23  C   -0.176544
    24  C    0.159405
    25  C   -0.171533
    26  C   -0.218275
    27  H    0.225034
    28  H    0.232869
    29  H    0.277070
    30  H    0.275026
    31  H    0.222845
    32  N    0.489121
    33  O   -0.460317
    34  O   -0.462309
 Sum of Mulliken charges =  -0.00000

 Dipole moment (field-independent basis, Debye):
    X=              1.9507    Y=             -3.9038    Z=              2.7974  Tot=              5.1837
 Quadrupole moment (field-independent basis, Debye-Ang):
   XX=            -98.5112   YY=            -95.1067   ZZ=            -94.8245
   XY=              9.8313   XZ=             -9.2898   YZ=             -0.4275

 Normal termination of Gaussian 16 at Thu May  6 01:15:56 2021.
