 Gaussian 16, Revision A.03,
 Gaussian 16:  EM64L-G16RevA.03 25-Dec-2016

 -------------
 #p 6-31g* mp2
 -------------

 ------------------------------------------------------
 Input file generated by CHIRIPA (05-May-2021 14:51:12)
 ------------------------------------------------------
 Symbolic Z-matrix:
 Charge =  0 Multiplicity = 1

                         Standard orientation:
 ---------------------------------------------------------------------
 Center     Atomic      Atomic             Coordinates (Angstroms)
 Number     Number       Type             X           Y           Z
 ---------------------------------------------------------------------
      1          6           0        4.098032    0.757656   -0.151389
      2          6           0        2.644476    0.834206   -0.619684
      3          6           0        2.092060    2.259802   -0.602181
      4          1           0        4.171271    1.168342    0.864937
      5          1           0        4.717052    1.399656   -0.793297
      6          1           0        2.028603    0.191175    0.022054
      7          1           0        2.574656    0.423114   -1.634940
      8          1           0        2.681791    2.909535   -1.256908
      9          1           0        2.132635    2.676278    0.409502
     10          1           0        1.051707    2.291403   -0.940600
     11          6           0        4.664436   -0.661066   -0.163320
     12          6           0        6.117992   -0.737615    0.304976
     13          6           0        6.670407   -2.163211    0.287473
     14          1           0        4.045416   -1.303065    0.478588
     15          1           0        4.591197   -1.071752   -1.179646
     16          1           0        6.187812   -0.326523    1.320232
     17          1           0        6.733864   -0.094584   -0.336763
     18          1           0        6.629832   -2.579687   -0.724210
     19          1           0        6.080677   -2.812944    0.942199
     20          1           0        7.710760   -2.194812    0.625891
     21          6           0       -3.954585    0.449320    0.549505
     22          6           0       -2.495357    0.487645    0.094346
     23          6           0       -1.654543    1.487878    0.888297
     24          1           0       -4.388750    1.453842    0.452644
     25          1           0       -3.991633    0.194464    1.617714
     26          1           0       -2.461140    0.740995   -0.973014
     27          1           0       -2.064671   -0.517127    0.192120
     28          1           0       -1.658892    1.234918    1.953470
     29          1           0       -2.057614    2.500190    0.781715
     30          1           0       -0.614883    1.498942    0.546471
     31          6           0       -4.807883   -0.545910   -0.234796
     32          6           0       -6.267111   -0.584235    0.220362
     33          6           0       -7.107925   -1.584468   -0.573588
     34          1           0       -4.770835   -0.291054   -1.303005
     35          1           0       -4.373718   -1.550433   -0.137936
     36          1           0       -6.697796    0.420537    0.122588
     37          1           0       -6.301327   -0.837587    1.287723
     38          1           0       -6.704854   -2.596780   -0.467006
     39          1           0       -7.103575   -1.331509   -1.638762
     40          1           0       -8.147585   -1.595533   -0.231762
 ---------------------------------------------------------------------

 SCF Done:  E(RHF) =  -470.733083048     A.U. after   11 cycles
 E2 =    -0.1582447575D+01 EUMP2 =    -0.47231553062392D+03

 The electronic state is 1-A.
 Alpha  occ. eigenvalues --  -11.21626 -11.21606 -11.21591 -11.21579 -11.21415
 Alpha  occ. eigenvalues --  -11.21388 -11.21356 -11.21328 -11.21075 -11.21070
 Alpha  occ. eigenvalues --  -11.21063 -11.20985  -1.08444  -1.08410  -1.03562
 Alpha  occ. eigenvalues --   -1.03492  -0.96038  -0.95915  -0.87066  -0.86919
 Alpha  occ. eigenvalues --   -0.79621  -0.79554  -0.78253  -0.78225  -0.65075
 Alpha  occ. eigenvalues --   -0.65042  -0.60968  -0.60906  -0.59666  -0.59108
 Alpha  occ. eigenvalues --   -0.57769  -0.57378  -0.55281  -0.55242  -0.52946
 Alpha  occ. eigenvalues --   -0.52515  -0.52450  -0.52168  -0.49929  -0.49892
 Alpha  occ. eigenvalues --   -0.47959  -0.47840  -0.46639  -0.46606  -0.45795
 Alpha  occ. eigenvalues --   -0.45766  -0.45719  -0.45694  -0.43902  -0.43631
 Alpha virt. eigenvalues --    0.21546   0.23034   0.23443   0.25134   0.26532
 Alpha virt. eigenvalues --    0.26666   0.27131   0.27494   0.27612   0.28869
 Alpha virt. eigenvalues --    0.31071   0.31380   0.31429   0.31634   0.32005

 Mulliken charges:
               1
     1  C   -0.298240
     2  C   -0.302025
     3  C   -0.479358
     4  H    0.149881
     5  H    0.149714
     6  H    0.153044
     7  H    0.152250
     8  H    0.155993
     9  H    0.155920
    10  H    0.162656
    11  C   -0.298319
    12  C   -0.299685
    13  C   -0.475714
    14  H    0.149546
    15  H    0.149682
    16  H    0.151993
    17  H    0.151954
    18  H    0.155187
    19  H    0.155178
    20  H    0.160281
    21  C   -0.298222
    22  C   -0.299233
    23  C   -0.484923
    24  H    0.149624
    25  H    0.149461
    26  H    0.151462
    27  H    0.151675
    28  H    0.154474
    29  H    0.154841
    30  H    0.171053
    31  C   -0.298224
    32  C   -0.299630
    33  C   -0.475690
    34  H    0.149469
    35  H    0.149582
    36  H    0.151930
    37  H    0.151885
    38  H    0.155151
    39  H    0.155165
    40  H    0.160214
 Sum of Mulliken charges =  -0.00000

 Dipole moment (field-independent basis, Debye):
    X=              0.0309    Y=              0.0090    Z=             -0.0055  Tot=              0.0326
 Quadrupole moment (field-independent basis, Debye-Ang):
   XX=            -85.5476   YY=            -85.6262   ZZ=            -83.6270
   XY=             -0.0846   XZ=             -0.5126   YZ=             -0.9402

 Normal termination of Gaussian 16 at Thu May  6 00:44:47 2021.
