 Gaussian 16, Revision A.03,
 Gaussian 16:  EM64L-G16RevA.03 25-Dec-2016

 -------------
 #p 6-31g* mp2
 -------------

 ------------------------------------------------------
 Input file generated by CHIRIPA (05-May-2021 14:53:18)
 ------------------------------------------------------
 Symbolic Z-matrix:
 Charge =  0 Multiplicity = 1

                         Standard orientation:
 ---------------------------------------------------------------------
 Center     Atomic      Atomic             Coordinates (Angstroms)
 Number     Number       Type             X           Y           Z
 ---------------------------------------------------------------------
      1          6           0       -3.715819   -0.117313    0.854198
      2          6           0       -2.368957   -0.595519    0.310814
      3          6           0       -1.339812   -0.841306    1.414555
      4          1           0       -3.564898    0.806606    1.429125
      5          1           0       -4.104833   -0.864480    1.559750
      6          1           0       -1.983255    0.151679   -0.394554
      7          1           0       -2.523129   -1.518304   -0.263046
      8          1           0       -1.699689   -1.602569    2.114246
      9          1           0       -1.156747    0.076901    1.981991
     10          1           0       -0.384411   -1.182509    1.003884
     11          6           0       -4.755107    0.132726   -0.237173
     12          6           0       -6.101969    0.610933    0.306210
     13          6           0       -7.131114    0.856719   -0.797531
     14          1           0       -4.366094    0.879894   -0.942726
     15          1           0       -4.906028   -0.791193   -0.812100
     16          1           0       -5.947797    1.533717    0.880071
     17          1           0       -6.487671   -0.136266    1.011579
     18          1           0       -7.314179   -0.061488   -1.364967
     19          1           0       -6.771237    1.617983   -1.497221
     20          1           0       -8.086515    1.197922   -0.386860
     21          6           0        4.842895    1.892005    0.399640
     22          6           0        5.148655    0.583396    0.787679
     23          6           0        4.305968   -0.476022    0.438301
     24          6           0        3.160659   -0.189515   -0.302962
     25          6           0        2.828806    1.103523   -0.704478
     26          6           0        3.685986    2.147442   -0.343888
     27          1           0        5.503142    2.708966    0.675401
     28          1           0        6.046445    0.382059    1.365155
     29          1           0        4.518662   -1.498599    0.725556
     30          1           0        1.926682    1.273031   -1.279680
     31          1           0        3.446012    3.162730   -0.646622
     32          7           0        2.260874   -1.302868   -0.678768
     33          8           0        1.257902   -1.024120   -1.332206
     34          8           0        2.575632   -2.433182   -0.312769
 ---------------------------------------------------------------------

 SCF Done:  E(RHF) =  -669.535994278     A.U. after   15 cycles
 E2 =    -0.2091261216D+01 EUMP2 =    -0.67162725549317D+03

 The electronic state is 1-A.
 Alpha  occ. eigenvalues --  -20.60937 -20.60928 -15.85957 -11.31271 -11.27837
 Alpha  occ. eigenvalues --  -11.27833 -11.27575 -11.26842 -11.26832 -11.21180
 Alpha  occ. eigenvalues --  -11.20834 -11.20719 -11.20706 -11.20619 -11.20089
 Alpha  occ. eigenvalues --   -1.60000  -1.39552  -1.19441  -1.08848  -1.07793
 Alpha  occ. eigenvalues --   -1.04836  -1.02849  -0.95693  -0.95319  -0.86351
 Alpha  occ. eigenvalues --   -0.86237  -0.82524  -0.78933  -0.77595  -0.77557
 Alpha  occ. eigenvalues --   -0.72177  -0.71332  -0.70552  -0.65097  -0.64841
 Alpha  occ. eigenvalues --   -0.64436  -0.62185  -0.60261  -0.58692  -0.56890
 Alpha  occ. eigenvalues --   -0.55343  -0.54637  -0.53170  -0.52929  -0.52004
 Alpha  occ. eigenvalues --   -0.51746  -0.49301  -0.48945  -0.48930  -0.47242
 Alpha  occ. eigenvalues --   -0.45984  -0.45123  -0.45050  -0.44930  -0.43100
 Alpha  occ. eigenvalues --   -0.37420  -0.36436
 Alpha virt. eigenvalues --    0.04923   0.11217   0.16403   0.21315   0.23434
 Alpha virt. eigenvalues --    0.24909   0.27118   0.27342   0.27898   0.28357
 Alpha virt. eigenvalues --    0.28690   0.30823   0.31942   0.32219   0.32514

 Mulliken charges:
               1
     1  C   -0.298392
     2  C   -0.294886
     3  C   -0.480429
     4  H    0.145345
     5  H    0.148039
     6  H    0.151952
     7  H    0.157457
     8  H    0.152175
     9  H    0.145821
    10  H    0.172094
    11  C   -0.297502
    12  C   -0.299011
    13  C   -0.475292
    14  H    0.148001
    15  H    0.150844
    16  H    0.150019
    17  H    0.151482
    18  H    0.155509
    19  H    0.154165
    20  H    0.158618
    21  C   -0.170497
    22  C   -0.218596
    23  C   -0.170666
    24  C    0.158336
    25  C   -0.170424
    26  C   -0.218621
    27  H    0.225933
    28  H    0.223781
    29  H    0.275866
    30  H    0.275719
    31  H    0.223706
    32  N    0.486900
    33  O   -0.458526
    34  O   -0.458919
 Sum of Mulliken charges =  -0.00000

 Dipole moment (field-independent basis, Debye):
    X=              3.3963    Y=              3.8396    Z=              1.2201  Tot=              5.2693
 Quadrupole moment (field-independent basis, Debye-Ang):
   XX=            -74.5301   YY=            -93.5195   ZZ=            -95.8831
   XY=             10.5494   XZ=              4.6466   YZ=             -3.0999

 Normal termination of Gaussian 16 at Thu May  6 12:18:37 2021.
