 Gaussian 16, Revision A.03,
 Gaussian 16:  EM64L-G16RevA.03 25-Dec-2016

 -------------
 #p 6-31g* mp2
 -------------

 ------------------------------------------------------
 Input file generated by CHIRIPA (05-May-2021 14:55:19)
 ------------------------------------------------------
 Symbolic Z-matrix:
 Charge =  0 Multiplicity = 1

                         Standard orientation:
 ---------------------------------------------------------------------
 Center     Atomic      Atomic             Coordinates (Angstroms)
 Number     Number       Type             X           Y           Z
 ---------------------------------------------------------------------
      1          6           0        4.762967    1.301251   -0.815982
      2          6           0        3.411737    1.654009   -0.736857
      3          6           0        2.460248    0.726969   -0.301179
      4          6           0        2.896970   -0.549700    0.049075
      5          6           0        4.236005   -0.931331   -0.018974
      6          6           0        5.170071    0.011979   -0.457420
      7          1           0        5.495338    2.027717   -1.155502
      8          1           0        3.092697    2.654547   -1.014674
      9          1           0        1.407794    0.973443   -0.230407
     10          1           0        4.523718   -1.936380    0.264780
     11          1           0        6.218785   -0.264768   -0.517872
     12          7           0        1.898894   -1.539729    0.511773
     13          8           0        2.309246   -2.658007    0.814597
     14          8           0        0.725148   -1.178688    0.562850
     15          6           0       -3.272630    0.879084   -0.100685
     16          6           0       -2.810406    1.725491    1.085876
     17          6           0       -1.516672    2.488397    0.799481
     18          1           0       -2.478084    0.169040   -0.368038
     19          1           0       -3.415876    1.531052   -0.973503
     20          1           0       -2.669406    1.072323    1.956570
     21          1           0       -3.606220    2.433474    1.350559
     22          1           0       -1.647857    3.163007   -0.052747
     23          1           0       -0.705720    1.794122    0.556706
     24          1           0       -1.204408    3.086870    1.660981
     25          6           0       -4.564719    0.110438    0.170273
     26          6           0       -5.026943   -0.735970   -1.016288
     27          6           0       -6.320677   -1.498875   -0.729893
     28          1           0       -4.421473   -0.541531    1.043092
     29          1           0       -5.359265    0.820482    0.437627
     30          1           0       -4.231129   -1.443952   -1.280970
     31          1           0       -5.167944   -0.082802   -1.886981
     32          1           0       -7.131629   -0.804601   -0.487118
     33          1           0       -6.189493   -2.173486    0.122336
     34          1           0       -6.632940   -2.097348   -1.591393
 ---------------------------------------------------------------------

 SCF Done:  E(RHF) =  -669.535979450     A.U. after   15 cycles
 E2 =    -0.2091310389D+01 EUMP2 =    -0.67162728983928D+03

 The electronic state is 1-A.
 Alpha  occ. eigenvalues --  -20.60870 -20.60862 -15.85914 -11.31222 -11.27790
 Alpha  occ. eigenvalues --  -11.27771 -11.27526 -11.26798 -11.26780 -11.21199
 Alpha  occ. eigenvalues --  -11.21066 -11.20997 -11.20840 -11.20775 -11.20597
 Alpha  occ. eigenvalues --   -1.59936  -1.39492  -1.19393  -1.08799  -1.07921
 Alpha  occ. eigenvalues --   -1.04789  -1.03112  -0.95651  -0.95581  -0.86622
 Alpha  occ. eigenvalues --   -0.86189  -0.82476  -0.79185  -0.77733  -0.77520
 Alpha  occ. eigenvalues --   -0.72137  -0.71252  -0.70512  -0.65049  -0.64812
 Alpha  occ. eigenvalues --   -0.64517  -0.62165  -0.60485  -0.58954  -0.57197
 Alpha  occ. eigenvalues --   -0.55317  -0.54859  -0.53121  -0.52903  -0.52311
 Alpha  occ. eigenvalues --   -0.52010  -0.49525  -0.48891  -0.48881  -0.47504
 Alpha  occ. eigenvalues --   -0.46173  -0.45281  -0.45152  -0.44905  -0.43342
 Alpha  occ. eigenvalues --   -0.37375  -0.36387
 Alpha virt. eigenvalues --    0.04995   0.11257   0.16502   0.20605   0.23306
 Alpha virt. eigenvalues --    0.24219   0.25866   0.27350   0.27760   0.28252
 Alpha virt. eigenvalues --    0.29318   0.30464   0.31522   0.32008   0.32354

 Mulliken charges:
               1
     1  C   -0.170276
     2  C   -0.223255
     3  C   -0.177086
     4  C    0.155433
     5  C   -0.169732
     6  C   -0.219125
     7  H    0.225813
     8  H    0.224760
     9  H    0.290882
    10  H    0.275622
    11  H    0.223539
    12  N    0.487752
    13  O   -0.459411
    14  O   -0.464722
    15  C   -0.302726
    16  C   -0.296552
    17  C   -0.486254
    18  H    0.162840
    19  H    0.144301
    20  H    0.158551
    21  H    0.149429
    22  H    0.150813
    23  H    0.160495
    24  H    0.159124
    25  C   -0.298347
    26  C   -0.300222
    27  C   -0.475619
    28  H    0.153216
    29  H    0.146559
    30  H    0.156247
    31  H    0.149103
    32  H    0.153271
    33  H    0.156549
    34  H    0.159029
 Sum of Mulliken charges =  -0.00000

 Dipole moment (field-independent basis, Debye):
    X=              3.5912    Y=              3.3653    Z=             -1.5864  Tot=              5.1710
 Quadrupole moment (field-independent basis, Debye-Ang):
   XX=            -72.8531   YY=            -96.7528   ZZ=            -95.6180
   XY=              4.8243   XZ=             -4.1806   YZ=              0.2859

 Normal termination of Gaussian 16 at Wed May  5 23:45:41 2021.
