 Gaussian 16, Revision A.03,
 Gaussian 16:  EM64L-G16RevA.03 25-Dec-2016

 -------------
 #p 6-31g* mp2
 -------------

 ------------------------------------------------------
 Input file generated by CHIRIPA (05-May-2021 14:53:13)
 ------------------------------------------------------
 Symbolic Z-matrix:
 Charge =  0 Multiplicity = 1

                         Standard orientation:
 ---------------------------------------------------------------------
 Center     Atomic      Atomic             Coordinates (Angstroms)
 Number     Number       Type             X           Y           Z
 ---------------------------------------------------------------------
      1          6           0       -4.091905    0.145552    0.217326
      2          6           0       -4.970744    0.071376   -1.031724
      3          6           0       -6.020445    1.181924   -1.082768
      4          1           0       -4.729502    0.090713    1.110303
      5          1           0       -3.593407    1.124278    0.248819
      6          1           0       -5.466362   -0.907443   -1.061574
      7          1           0       -4.330964    0.126206   -1.921831
      8          1           0       -5.540695    2.166005   -1.077768
      9          1           0       -6.682544    1.126484   -0.212623
     10          1           0       -6.637572    1.109926   -1.983784
     11          6           0       -3.037647   -0.958075    0.282700
     12          6           0       -2.158808   -0.883899    1.531750
     13          6           0       -1.109108   -1.994447    1.582795
     14          1           0       -3.536145   -1.936800    0.251208
     15          1           0       -2.400050   -0.903236   -0.610277
     16          1           0       -2.798588   -0.938728    2.421858
     17          1           0       -1.663191    0.094921    1.561601
     18          1           0       -0.447009   -1.939006    0.712650
     19          1           0       -1.588858   -2.978528    1.577794
     20          1           0       -0.491980   -1.922449    2.483811
     21          6           0        3.615949   -1.952483   -0.918571
     22          6           0        4.527652   -0.959889   -0.544305
     23          6           0        4.078545    0.301410   -0.141843
     24          6           0        2.704646    0.536835   -0.125402
     25          6           0        1.771414   -0.431465   -0.492503
     26          6           0        2.243159   -1.685573   -0.891523
     27          1           0        3.973618   -2.929497   -1.229877
     28          1           0        5.594347   -1.164353   -0.564338
     29          1           0        4.762402    1.088059    0.153011
     30          1           0        0.714077   -0.197917   -0.462292
     31          1           0        1.532817   -2.454525   -1.181648
     32          7           0        2.217214    1.868309    0.298845
     33          8           0        1.001745    2.050621    0.304684
     34          8           0        3.059863    2.704396    0.617496
 ---------------------------------------------------------------------

 SCF Done:  E(RHF) =  -669.535123189     A.U. after   15 cycles
 E2 =    -0.2092391653D+01 EUMP2 =    -0.67162751484206D+03

 The electronic state is 1-A.
 Alpha  occ. eigenvalues --  -20.60835 -20.60827 -15.85880 -11.31206 -11.27782
 Alpha  occ. eigenvalues --  -11.27764 -11.27518 -11.26788 -11.26774 -11.21579
 Alpha  occ. eigenvalues --  -11.21497 -11.21468 -11.21381 -11.21232 -11.20908
 Alpha  occ. eigenvalues --   -1.59902  -1.39457  -1.19386  -1.08784  -1.08411
 Alpha  occ. eigenvalues --   -1.04794  -1.03535  -0.96018  -0.95622  -0.87031
 Alpha  occ. eigenvalues --   -0.86183  -0.82467  -0.79589  -0.78209  -0.77517
 Alpha  occ. eigenvalues --   -0.72103  -0.71221  -0.70510  -0.65111  -0.65024
 Alpha  occ. eigenvalues --   -0.64759  -0.62237  -0.60853  -0.59368  -0.57604
 Alpha  occ. eigenvalues --   -0.55428  -0.55191  -0.53124  -0.52873  -0.52683
 Alpha  occ. eigenvalues --   -0.52423  -0.49955  -0.48855  -0.48853  -0.47909
 Alpha  occ. eigenvalues --   -0.46604  -0.45773  -0.45641  -0.44864  -0.43775
 Alpha  occ. eigenvalues --   -0.37363  -0.36350
 Alpha virt. eigenvalues --    0.04985   0.11253   0.16411   0.19657   0.22851
 Alpha virt. eigenvalues --    0.24093   0.25946   0.26845   0.27671   0.28221
 Alpha virt. eigenvalues --    0.29320   0.30466   0.31622   0.31670   0.32356

 Mulliken charges:
               1
     1  C   -0.300021
     2  C   -0.299550
     3  C   -0.476093
     4  H    0.150010
     5  H    0.157664
     6  H    0.150083
     7  H    0.151252
     8  H    0.158057
     9  H    0.155070
    10  H    0.159463
    11  C   -0.297172
    12  C   -0.307474
    13  C   -0.475940
    14  H    0.148044
    15  H    0.142331
    16  H    0.154095
    17  H    0.167203
    18  H    0.141998
    19  H    0.154501
    20  H    0.164528
    21  C   -0.170829
    22  C   -0.218811
    23  C   -0.170776
    24  C    0.156531
    25  C   -0.170744
    26  C   -0.218638
    27  H    0.225901
    28  H    0.223564
    29  H    0.275584
    30  H    0.279135
    31  H    0.224405
    32  N    0.488500
    33  O   -0.462119
    34  O   -0.459751
 Sum of Mulliken charges =  -0.00000

 Dipole moment (field-independent basis, Debye):
    X=              1.7103    Y=             -4.5670    Z=             -1.4100  Tot=              5.0765
 Quadrupole moment (field-independent basis, Debye-Ang):
   XX=            -80.9737   YY=           -100.3036   ZZ=            -94.7870
   XY=             -9.6863   XZ=             -4.2533   YZ=             -0.0458

 Normal termination of Gaussian 16 at Thu May  6 02:35:36 2021.
