 Gaussian 16, Revision A.03,
 Gaussian 16:  EM64L-G16RevA.03 25-Dec-2016

 -------------
 #p 6-31g* mp2
 -------------

 ------------------------------------------------------
 Input file generated by CHIRIPA (05-May-2021 14:55:24)
 ------------------------------------------------------
 Symbolic Z-matrix:
 Charge =  0 Multiplicity = 1

                         Standard orientation:
 ---------------------------------------------------------------------
 Center     Atomic      Atomic             Coordinates (Angstroms)
 Number     Number       Type             X           Y           Z
 ---------------------------------------------------------------------
      1          6           0       -0.836095   -0.194248   -0.407248
      2          6           0       -1.604961    0.897904   -0.822664
      3          6           0       -2.992538    0.895362   -0.651867
      4          6           0       -3.581005   -0.220831   -0.059322
      5          6           0       -2.842154   -1.324170    0.364980
      6          6           0       -1.456053   -1.299850    0.184205
      7          1           0        0.241235   -0.183815   -0.543804
      8          1           0       -1.126195    1.757885   -1.282297
      9          1           0       -3.611759    1.727457   -0.964279
     10          1           0       -3.347880   -2.167159    0.819984
     11          1           0       -0.861456   -2.149436    0.507786
     12          7           0       -5.049190   -0.235049    0.126775
     13          8           0       -5.543595   -1.230475    0.651493
     14          8           0       -5.677747    0.749501   -0.255604
     15          6           0        4.347075   -0.470419    0.239535
     16          6           0        5.579259   -1.078920   -0.430863
     17          6           0        5.711802   -2.580151   -0.172931
     18          1           0        4.397372   -0.655000    1.321360
     19          1           0        3.447858   -0.986684   -0.124161
     20          1           0        6.475775   -0.560733   -0.067051
     21          1           0        5.526118   -0.892702   -1.511194
     22          1           0        4.834962   -3.115043   -0.551934
     23          1           0        5.790014   -2.781188    0.900414
     24          1           0        6.599287   -2.994586   -0.661267
     25          6           0        4.200844    1.029748   -0.009152
     26          6           0        2.968659    1.638247    0.661246
     27          6           0        2.836116    3.139479    0.403313
     28          1           0        5.100061    1.546012    0.354544
     29          1           0        4.150546    1.214328   -1.090976
     30          1           0        3.021800    1.452029    1.741577
     31          1           0        2.072143    1.120061    0.297434
     32          1           0        2.757904    3.340516   -0.670031
     33          1           0        3.712956    3.674370    0.782317
     34          1           0        1.948630    3.553914    0.891650
 ---------------------------------------------------------------------

 SCF Done:  E(RHF) =  -669.535447531     A.U. after   15 cycles
 E2 =    -0.2091212588D+01 EUMP2 =    -0.67162666011978D+03

 The electronic state is 1-A.
 Alpha  occ. eigenvalues --  -20.60749 -20.60744 -15.85803 -11.31171 -11.27738
 Alpha  occ. eigenvalues --  -11.27734 -11.27466 -11.26756 -11.26745 -11.22683
 Alpha  occ. eigenvalues --  -11.22375 -11.22329 -11.22280 -11.21988 -11.21741
 Alpha  occ. eigenvalues --   -1.59825  -1.39378  -1.19343  -1.09353  -1.08737
 Alpha  occ. eigenvalues --   -1.04745  -1.04403  -0.96833  -0.95574  -0.87848
 Alpha  occ. eigenvalues --   -0.86142  -0.82408  -0.80477  -0.79168  -0.77450
 Alpha  occ. eigenvalues --   -0.72021  -0.71148  -0.70477  -0.65993  -0.64994
 Alpha  occ. eigenvalues --   -0.64746  -0.62094  -0.61808  -0.60205  -0.58444
 Alpha  occ. eigenvalues --   -0.56122  -0.55277  -0.53511  -0.53248  -0.53073
 Alpha  occ. eigenvalues --   -0.52836  -0.50778  -0.48806  -0.48776  -0.48751
 Alpha  occ. eigenvalues --   -0.47517  -0.46694  -0.46624  -0.44783  -0.44662
 Alpha  occ. eigenvalues --   -0.37315  -0.36350
 Alpha virt. eigenvalues --    0.05064   0.11297   0.16482   0.18972   0.22646
 Alpha virt. eigenvalues --    0.23584   0.24656   0.26206   0.26768   0.27695
 Alpha virt. eigenvalues --    0.29440   0.30563   0.30980   0.31108   0.32337

 Mulliken charges:
               1
     1  C   -0.174270
     2  C   -0.220400
     3  C   -0.170944
     4  C    0.158540
     5  C   -0.170900
     6  C   -0.219595
     7  H    0.231883
     8  H    0.223671
     9  H    0.275576
    10  H    0.275544
    11  H    0.223787
    12  N    0.488031
    13  O   -0.460435
    14  O   -0.460467
    15  C   -0.297616
    16  C   -0.300243
    17  C   -0.476059
    18  H    0.152233
    19  H    0.141073
    20  H    0.154660
    21  H    0.152816
    22  H    0.153795
    23  H    0.156367
    24  H    0.163064
    25  C   -0.298897
    26  C   -0.303074
    27  C   -0.476876
    28  H    0.153913
    29  H    0.149650
    30  H    0.156802
    31  H    0.142221
    32  H    0.153857
    33  H    0.159958
    34  H    0.162335
 Sum of Mulliken charges =  -0.00000

 Dipole moment (field-independent basis, Debye):
    X=              5.3955    Y=              0.0991    Z=             -0.6000  Tot=              5.4297
 Quadrupole moment (field-independent basis, Debye-Ang):
   XX=           -131.1272   YY=            -91.6355   ZZ=            -93.7945
   XY=             -1.1542   XZ=              2.8277   YZ=             -1.7164

 Normal termination of Gaussian 16 at Wed May  5 22:24:28 2021.
