 Gaussian 16, Revision A.03,
 Gaussian 16:  EM64L-G16RevA.03 25-Dec-2016

 -------------
 #p 6-31g* mp2
 -------------

 ------------------------------------------------------
 Input file generated by CHIRIPA (05-May-2021 14:55:20)
 ------------------------------------------------------
 Symbolic Z-matrix:
 Charge =  0 Multiplicity = 1

                         Standard orientation:
 ---------------------------------------------------------------------
 Center     Atomic      Atomic             Coordinates (Angstroms)
 Number     Number       Type             X           Y           Z
 ---------------------------------------------------------------------
      1          6           0        0.711852   -1.113853    0.447445
      2          6           0        0.939659    0.113816   -0.182994
      3          6           0        2.243244    0.549983   -0.437893
      4          6           0        3.300356   -0.270461   -0.047154
      5          6           0        3.105781   -1.498732    0.582752
      6          6           0        1.793732   -1.914797    0.827636
      7          1           0       -0.304091   -1.444869    0.641567
      8          1           0        0.101380    0.737915   -0.479360
      9          1           0        2.448189    1.495890   -0.924385
     10          1           0        3.961683   -2.098992    0.866542
     11          1           0        1.619811   -2.868693    1.317408
     12          7           0        4.684883    0.180648   -0.311703
     13          8           0        5.599091   -0.560630    0.042368
     14          8           0        4.829650    1.266964   -0.868117
     15          6           0       -4.632252    0.136177    0.026256
     16          6           0       -4.694101   -1.280353   -0.546113
     17          6           0       -6.100797   -1.877399   -0.495729
     18          1           0       -4.988608    0.120826    1.065351
     19          1           0       -5.325256    0.780448   -0.532362
     20          1           0       -4.000165   -1.921442    0.012521
     21          1           0       -4.337377   -1.261660   -1.583905
     22          1           0       -6.801412   -1.261616   -1.068922
     23          1           0       -6.462283   -1.925147    0.536574
     24          1           0       -6.122098   -2.890276   -0.909838
     25          6           0       -3.232501    0.746535   -0.017159
     26          6           0       -3.170651    2.163064    0.555208
     27          6           0       -1.763956    2.760111    0.504825
     28          1           0       -2.539496    0.102264    0.541458
     29          1           0       -2.876144    0.761887   -1.056255
     30          1           0       -3.527377    2.144372    1.593001
     31          1           0       -3.864589    2.804154   -0.003424
     32          1           0       -1.402469    2.807859   -0.527479
     33          1           0       -1.063342    2.144328    1.078019
     34          1           0       -1.742655    3.772988    0.918934
 ---------------------------------------------------------------------

 SCF Done:  E(RHF) =  -669.534906642     A.U. after   15 cycles
 E2 =    -0.2092682033D+01 EUMP2 =    -0.67162758867483D+03

 The electronic state is 1-A.
 Alpha  occ. eigenvalues --  -20.60684 -20.60679 -15.85734 -11.31081 -11.27649
 Alpha  occ. eigenvalues --  -11.27618 -11.27363 -11.26668 -11.26529 -11.22676
 Alpha  occ. eigenvalues --  -11.22616 -11.22516 -11.22344 -11.22182 -11.21796
 Alpha  occ. eigenvalues --   -1.59759  -1.39313  -1.19243  -1.09493  -1.08641
 Alpha  occ. eigenvalues --   -1.04660  -1.04498  -0.96983  -0.95484  -0.88000
 Alpha  occ. eigenvalues --   -0.86043  -0.82316  -0.80600  -0.79339  -0.77355
 Alpha  occ. eigenvalues --   -0.71953  -0.71082  -0.70361  -0.66115  -0.64889
 Alpha  occ. eigenvalues --   -0.64669  -0.62053  -0.61881  -0.60309  -0.58599
 Alpha  occ. eigenvalues --   -0.56286  -0.55146  -0.53618  -0.53510  -0.52962
 Alpha  occ. eigenvalues --   -0.52642  -0.50913  -0.48903  -0.48711  -0.48656
 Alpha  occ. eigenvalues --   -0.47621  -0.46819  -0.46766  -0.44783  -0.44723
 Alpha  occ. eigenvalues --   -0.37223  -0.36230
 Alpha virt. eigenvalues --    0.05158   0.11306   0.16633   0.19426   0.22314
 Alpha virt. eigenvalues --    0.23100   0.24354   0.25751   0.26580   0.28730
 Alpha virt. eigenvalues --    0.29587   0.30214   0.30942   0.31204   0.31749

 Mulliken charges:
               1
     1  C   -0.177122
     2  C   -0.224740
     3  C   -0.174184
     4  C    0.158772
     5  C   -0.171325
     6  C   -0.218287
     7  H    0.227650
     8  H    0.237204
     9  H    0.275470
    10  H    0.275083
    11  H    0.222830
    12  N    0.488059
    13  O   -0.460856
    14  O   -0.460582
    15  C   -0.298572
    16  C   -0.299861
    17  C   -0.476291
    18  H    0.152352
    19  H    0.153804
    20  H    0.146910
    21  H    0.153497
    22  H    0.157598
    23  H    0.156505
    24  H    0.162319
    25  C   -0.304738
    26  C   -0.298446
    27  C   -0.485921
    28  H    0.142598
    29  H    0.149616
    30  H    0.155977
    31  H    0.156771
    32  H    0.151368
    33  H    0.157648
    34  H    0.168894
 Sum of Mulliken charges =  -0.00000

 Dipole moment (field-independent basis, Debye):
    X=             -5.1912    Y=             -1.4750    Z=              0.9441  Tot=              5.4786
 Quadrupole moment (field-independent basis, Debye-Ang):
   XX=           -126.6750   YY=            -90.3777   ZZ=            -93.7934
   XY=             -6.4792   XZ=              4.3162   YZ=             -2.4449

 Normal termination of Gaussian 16 at Thu May  6 15:47:04 2021.
