 Gaussian 16, Revision A.03,
 Gaussian 16:  EM64L-G16RevA.03 25-Dec-2016

 -------------
 #p 6-31g* mp2
 -------------

 ------------------------------------------------------
 Input file generated by CHIRIPA (05-May-2021 14:57:25)
 ------------------------------------------------------
 Symbolic Z-matrix:
 Charge =  0 Multiplicity = 1

                         Standard orientation:
 ---------------------------------------------------------------------
 Center     Atomic      Atomic             Coordinates (Angstroms)
 Number     Number       Type             X           Y           Z
 ---------------------------------------------------------------------
      1          6           0        3.542731   -2.012838    0.823841
      2          6           0        4.501283   -1.167302    0.255714
      3          6           0        4.140830    0.097823   -0.217658
      4          6           0        2.806852    0.486988   -0.106557
      5          6           0        1.828713   -0.332654    0.454444
      6          6           0        2.211852   -1.593555    0.921221
      7          1           0        3.831551   -2.993977    1.189006
      8          1           0        5.535600   -1.490280    0.178785
      9          1           0        4.862516    0.772516   -0.661929
     10          1           0        0.805441    0.017157    0.517410
     11          1           0        1.465291   -2.248102    1.361971
     12          7           0        2.413248    1.824083   -0.604204
     13          8           0        1.231437    2.143424   -0.494739
     14          8           0        3.294004    2.527439   -1.094301
     15          6           0       -3.614861    1.894889    1.092975
     16          6           0       -2.623519    1.117918    1.701318
     17          6           0       -2.203977   -0.081497    1.118279
     18          6           0       -2.799878   -0.475585   -0.078754
     19          6           0       -3.789870    0.276584   -0.709189
     20          6           0       -4.193852    1.472486   -0.108218
     21          1           0       -3.934728    2.825259    1.552859
     22          1           0       -2.172106    1.443487    2.634204
     23          1           0       -1.438537   -0.702364    1.567770
     24          1           0       -4.221307   -0.074039   -1.638890
     25          1           0       -4.963954    2.073861   -0.582914
     26          7           0       -2.363964   -1.743492   -0.705483
     27          8           0       -2.904619   -2.068665   -1.760278
     28          8           0       -1.489893   -2.388097   -0.130051
 ---------------------------------------------------------------------

 SCF Done:  E(RHF) =  -868.338964086     A.U. after   16 cycles
 E2 =    -0.2600639316D+01 EUMP2 =    -0.87093960340201D+03

 The electronic state is 1-A.
 Alpha  occ. eigenvalues --  -20.61184 -20.61127 -20.60617 -20.60603 -15.86191
 Alpha  occ. eigenvalues --  -15.85656 -11.31356 -11.30856 -11.27969 -11.27805
 Alpha  occ. eigenvalues --  -11.27491 -11.27402 -11.27363 -11.27067 -11.26861
 Alpha  occ. eigenvalues --  -11.26793 -11.26404 -11.26272  -1.60213  -1.59690
 Alpha  occ. eigenvalues --   -1.39783  -1.39249  -1.19469  -1.18995  -1.08887
 Alpha  occ. eigenvalues --   -1.08419  -1.04859  -1.04362  -0.95778  -0.95290
 Alpha  occ. eigenvalues --   -0.86273  -0.85770  -0.82632  -0.82119  -0.77751
 Alpha  occ. eigenvalues --   -0.77176  -0.72425  -0.71885  -0.71517  -0.71008
 Alpha  occ. eigenvalues --   -0.70617  -0.70094  -0.65136  -0.64880  -0.64638
 Alpha  occ. eigenvalues --   -0.64347  -0.62312  -0.61641  -0.55333  -0.54873
 Alpha  occ. eigenvalues --   -0.53161  -0.52964  -0.52707  -0.52406  -0.49199
 Alpha  occ. eigenvalues --   -0.49136  -0.48646  -0.48622  -0.45229  -0.44692
 Alpha  occ. eigenvalues --   -0.37374  -0.36964  -0.36413  -0.35946
 Alpha virt. eigenvalues --    0.04777   0.05318   0.11094   0.11698   0.16378
 Alpha virt. eigenvalues --    0.16874   0.20238   0.22270   0.25553   0.27673
 Alpha virt. eigenvalues --    0.28522   0.29487   0.30617   0.31574   0.32413

 Mulliken charges:
               1
     1  C   -0.171080
     2  C   -0.218615
     3  C   -0.171422
     4  C    0.157385
     5  C   -0.174202
     6  C   -0.217958
     7  H    0.226096
     8  H    0.222292
     9  H    0.273921
    10  H    0.273161
    11  H    0.233261
    12  N    0.487676
    13  O   -0.464019
    14  O   -0.461190
    15  C   -0.167623
    16  C   -0.212280
    17  C   -0.175789
    18  C    0.162687
    19  C   -0.169228
    20  C   -0.215528
    21  H    0.228277
    22  H    0.225005
    23  H    0.264723
    24  H    0.276324
    25  H    0.225519
    26  N    0.490473
    27  O   -0.455151
    28  O   -0.472716
 Sum of Mulliken charges =  -0.00000

 Dipole moment (field-independent basis, Debye):
    X=             -0.4596    Y=             -0.1775    Z=              3.8993  Tot=              3.9303
 Quadrupole moment (field-independent basis, Debye-Ang):
   XX=            -81.5101   YY=           -114.4579   ZZ=           -103.3683
   XY=            -25.1434   XZ=              0.1621   YZ=             -0.7506

 Normal termination of Gaussian 16 at Wed May  5 16:25:43 2021.
