 Gaussian 16, Revision A.03,
 Gaussian 16:  EM64L-G16RevA.03 25-Dec-2016

 -------------
 #p 6-31g* mp2
 -------------

 ------------------------------------------------------
 Input file generated by CHIRIPA (05-May-2021 14:51:11)
 ------------------------------------------------------
 Symbolic Z-matrix:
 Charge =  0 Multiplicity = 1

                         Standard orientation:
 ---------------------------------------------------------------------
 Center     Atomic      Atomic             Coordinates (Angstroms)
 Number     Number       Type             X           Y           Z
 ---------------------------------------------------------------------
      1          6           0       -2.519671   -0.241634    0.264631
      2          6           0       -1.866712   -1.240386    1.220728
      3          6           0       -0.347474   -1.083607    1.292355
      4          1           0       -2.088886   -0.368199   -0.738041
      5          1           0       -2.270200    0.779274    0.585421
      6          1           0       -2.118482   -2.259082    0.899035
      7          1           0       -2.299238   -1.111558    2.221199
      8          1           0       -0.079603   -0.078919    1.635063
      9          1           0        0.102179   -1.232963    0.305387
     10          1           0        0.098763   -1.807349    1.981506
     11          6           0       -4.038265   -0.385878    0.182213
     12          6           0       -4.691225    0.612875   -0.773885
     13          6           0       -6.210462    0.456096   -0.845512
     14          1           0       -4.287736   -1.406786   -0.138578
     15          1           0       -4.469050   -0.259312    1.184884
     16          1           0       -4.258698    0.484047   -1.774355
     17          1           0       -4.439454    1.631570   -0.452191
     18          1           0       -6.660115    0.605451    0.141456
     19          1           0       -6.478333   -0.548592   -1.188220
     20          1           0       -6.656699    1.179838   -1.534663
     21          6           0        3.029386   -0.401709   -0.319604
     22          6           0        4.156574   -1.415485   -0.518836
     23          6           0        3.641420   -2.842334   -0.709913
     24          1           0        2.429683   -0.696407    0.552436
     25          1           0        2.356694   -0.436484   -1.187747
     26          1           0        4.827708   -1.377827    0.348790
     27          1           0        4.753779   -1.118233   -1.390389
     28          1           0        2.988453   -2.901987   -1.586655
     29          1           0        3.062803   -3.163056    0.162406
     30          1           0        4.463847   -3.550628   -0.850594
     31          6           0        3.528550    1.029220   -0.127239
     32          6           0        2.401363    2.042996    0.071993
     33          6           0        2.916516    3.469845    0.263070
     34          1           0        4.201241    1.063996    0.740903
     35          1           0        4.128254    1.323918   -0.999279
     36          1           0        1.804158    1.745745    0.943546
     37          1           0        1.730229    2.005339   -0.795634
     38          1           0        3.495134    3.790568   -0.609249
     39          1           0        3.569483    3.529500    1.139812
     40          1           0        2.094088    4.178141    0.403751
 ---------------------------------------------------------------------

 SCF Done:  E(RHF) =  -470.732360405     A.U. after   11 cycles
 E2 =    -0.1583683049D+01 EUMP2 =    -0.47231604345395D+03

 The electronic state is 1-A.
 Alpha  occ. eigenvalues --  -11.21594 -11.21564 -11.21550 -11.21535 -11.21389
 Alpha  occ. eigenvalues --  -11.21329 -11.21320 -11.21216 -11.21066 -11.21041
 Alpha  occ. eigenvalues --  -11.21038 -11.21004  -1.08424  -1.08355  -1.03516
 Alpha  occ. eigenvalues --   -1.03478  -0.96002  -0.95898  -0.87030  -0.86917
 Alpha  occ. eigenvalues --   -0.79646  -0.79528  -0.78315  -0.78053  -0.65046
 Alpha  occ. eigenvalues --   -0.64998  -0.60963  -0.60838  -0.59358  -0.59275
 Alpha  occ. eigenvalues --   -0.57672  -0.57464  -0.55273  -0.55206  -0.52741
 Alpha  occ. eigenvalues --   -0.52640  -0.52477  -0.52235  -0.49965  -0.49829
 Alpha  occ. eigenvalues --   -0.47992  -0.47857  -0.46692  -0.46486  -0.45991
 Alpha  occ. eigenvalues --   -0.45725  -0.45611  -0.45267  -0.43754  -0.43716
 Alpha virt. eigenvalues --    0.21877   0.23036   0.23860   0.24203   0.25261
 Alpha virt. eigenvalues --    0.26333   0.26997   0.27680   0.28017   0.29673
 Alpha virt. eigenvalues --    0.29844   0.30949   0.31681   0.31969   0.32317

 Mulliken charges:
               1
     1  C   -0.298092
     2  C   -0.300774
     3  C   -0.481427
     4  H    0.149459
     5  H    0.149595
     6  H    0.151816
     7  H    0.151332
     8  H    0.157004
     9  H    0.161445
    10  H    0.158425
    11  C   -0.298267
    12  C   -0.299592
    13  C   -0.475691
    14  H    0.149494
    15  H    0.149602
    16  H    0.151830
    17  H    0.151913
    18  H    0.155168
    19  H    0.155172
    20  H    0.160203
    21  C   -0.306016
    22  C   -0.298868
    23  C   -0.476253
    24  H    0.163266
    25  H    0.147465
    26  H    0.151502
    27  H    0.151294
    28  H    0.154436
    29  H    0.155592
    30  H    0.160160
    31  C   -0.297724
    32  C   -0.302237
    33  C   -0.475539
    34  H    0.148977
    35  H    0.149030
    36  H    0.154415
    37  H    0.151909
    38  H    0.155151
    39  H    0.154979
    40  H    0.159845
 Sum of Mulliken charges =  -0.00000

 Dipole moment (field-independent basis, Debye):
    X=             -0.0041    Y=             -0.0077    Z=              0.0110  Tot=              0.0140
 Quadrupole moment (field-independent basis, Debye-Ang):
   XX=            -86.2622   YY=            -85.5941   ZZ=            -83.2560
   XY=             -0.3378   XZ=             -0.1458   YZ=              0.2091

 Normal termination of Gaussian 16 at Thu May  6 05:25:32 2021.
