 Gaussian 16, Revision A.03,
 Gaussian 16:  EM64L-G16RevA.03 25-Dec-2016

 -------------
 #p 6-31g* mp2
 -------------

 ------------------------------------------------------
 Input file generated by CHIRIPA (05-May-2021 14:55:25)
 ------------------------------------------------------
 Symbolic Z-matrix:
 Charge =  0 Multiplicity = 1

                         Standard orientation:
 ---------------------------------------------------------------------
 Center     Atomic      Atomic             Coordinates (Angstroms)
 Number     Number       Type             X           Y           Z
 ---------------------------------------------------------------------
      1          6           0        3.087584    1.436836    0.314447
      2          6           0        2.914378    0.553726    1.385259
      3          6           0        2.249155   -0.662231    1.202302
      4          6           0        1.767785   -0.964450   -0.070583
      5          6           0        1.924612   -0.105511   -1.157285
      6          6           0        2.593020    1.104984   -0.951176
      7          1           0        3.605582    2.379299    0.465565
      8          1           0        3.297411    0.808819    2.369261
      9          1           0        2.101175   -1.364370    2.013796
     10          1           0        1.531699   -0.387492   -2.126575
     11          1           0        2.726078    1.788883   -1.784616
     12          7           0        1.061857   -2.248838   -0.276526
     13          8           0        0.647130   -2.491713   -1.407742
     14          8           0        0.936644   -2.988346    0.697171
     15          6           0       -1.953492    1.412117   -0.368153
     16          6           0       -1.314415    2.540910    0.441410
     17          6           0       -0.400520    3.429704   -0.402768
     18          1           0       -1.161313    0.800459   -0.821224
     19          1           0       -2.527413    1.845573   -1.198892
     20          1           0       -0.743005    2.105510    1.271189
     21          1           0       -2.108206    3.149838    0.892762
     22          1           0       -0.961430    3.891085   -1.221979
     23          1           0        0.411528    2.840824   -0.841402
     24          1           0        0.045745    4.229979    0.195786
     25          6           0       -2.869881    0.514966    0.461955
     26          6           0       -3.508959   -0.613827   -0.347609
     27          6           0       -4.422854   -1.502621    0.496569
     28          1           0       -2.295961    0.081511    1.292693
     29          1           0       -3.662060    1.126623    0.915025
     30          1           0       -2.715167   -1.222755   -0.798961
     31          1           0       -4.080369   -0.178427   -1.177388
     32          1           0       -5.234901   -0.913741    0.935203
     33          1           0       -3.861944   -1.964001    1.315780
     34          1           0       -4.869118   -2.302897   -0.101985
 ---------------------------------------------------------------------

 SCF Done:  E(RHF) =  -669.535229493     A.U. after   15 cycles
 E2 =    -0.2094384629D+01 EUMP2 =    -0.67162961412267D+03

 The electronic state is 1-A.
 Alpha  occ. eigenvalues --  -20.60945 -20.60936 -15.85990 -11.31366 -11.27925
 Alpha  occ. eigenvalues --  -11.27921 -11.27652 -11.26938 -11.26918 -11.21639
 Alpha  occ. eigenvalues --  -11.21254 -11.21226 -11.21105 -11.21039 -11.20506
 Alpha  occ. eigenvalues --   -1.60013  -1.39565  -1.19542  -1.08928  -1.08222
 Alpha  occ. eigenvalues --   -1.04948  -1.03305  -0.95801  -0.95741  -0.86824
 Alpha  occ. eigenvalues --   -0.86323  -0.82589  -0.79403  -0.78008  -0.77634
 Alpha  occ. eigenvalues --   -0.72203  -0.71337  -0.70622  -0.65187  -0.64955
 Alpha  occ. eigenvalues --   -0.64853  -0.62286  -0.60726  -0.59185  -0.57383
 Alpha  occ. eigenvalues --   -0.55421  -0.55133  -0.53243  -0.53028  -0.52481
 Alpha  occ. eigenvalues --   -0.52197  -0.49743  -0.48966  -0.48960  -0.47699
 Alpha  occ. eigenvalues --   -0.46433  -0.45561  -0.45487  -0.44913  -0.43571
 Alpha  occ. eigenvalues --   -0.37461  -0.36456
 Alpha virt. eigenvalues --    0.04880   0.10976   0.16330   0.21040   0.22903
 Alpha virt. eigenvalues --    0.24564   0.26309   0.26960   0.27540   0.28352
 Alpha virt. eigenvalues --    0.28621   0.30547   0.31723   0.31942   0.32216

 Mulliken charges:
               1
     1  C   -0.167492
     2  C   -0.218577
     3  C   -0.171146
     4  C    0.159594
     5  C   -0.171193
     6  C   -0.220757
     7  H    0.227289
     8  H    0.224465
     9  H    0.276201
    10  H    0.276796
    11  H    0.225937
    12  N    0.487919
    13  O   -0.460314
    14  O   -0.459607
    15  C   -0.300671
    16  C   -0.297486
    17  C   -0.480729
    18  H    0.149769
    19  H    0.148696
    20  H    0.150938
    21  H    0.151748
    22  H    0.154191
    23  H    0.155818
    24  H    0.154841
    25  C   -0.298717
    26  C   -0.302960
    27  C   -0.475616
    28  H    0.149341
    29  H    0.147972
    30  H    0.162755
    31  H    0.149393
    32  H    0.151383
    33  H    0.158289
    34  H    0.161933
 Sum of Mulliken charges =  -0.00000

 Dipole moment (field-independent basis, Debye):
    X=              2.6252    Y=              4.3409    Z=              0.7267  Tot=              5.1248
 Quadrupole moment (field-independent basis, Debye-Ang):
   XX=            -86.2972   YY=           -104.5246   ZZ=            -90.4055
   XY=              4.9491   XZ=              2.4580   YZ=             -2.0327

 Normal termination of Gaussian 16 at Wed May  5 19:14:33 2021.
