 Gaussian 16, Revision A.03,
 Gaussian 16:  EM64L-G16RevA.03 25-Dec-2016

 -------------
 #p 6-31g* mp2
 -------------

 ------------------------------------------------------
 Input file generated by CHIRIPA (05-May-2021 14:53:13)
 ------------------------------------------------------
 Symbolic Z-matrix:
 Charge =  0 Multiplicity = 1

                         Standard orientation:
 ---------------------------------------------------------------------
 Center     Atomic      Atomic             Coordinates (Angstroms)
 Number     Number       Type             X           Y           Z
 ---------------------------------------------------------------------
      1          6           0       -4.294016    0.226621    0.001165
      2          6           0       -4.334533   -1.111711    0.739549
      3          6           0       -5.738561   -1.714668    0.793796
      4          1           0       -4.978263    0.930866    0.493903
      5          1           0       -4.673161    0.085436   -1.020456
      6          1           0       -3.954128   -0.968324    1.759033
      7          1           0       -3.649966   -1.812792    0.245111
      8          1           0       -6.123433   -1.886261   -0.216665
      9          1           0       -6.429323   -1.036995    1.305859
     10          1           0       -5.744503   -2.670985    1.326037
     11          6           0       -2.897166    0.841944   -0.061421
     12          6           0       -2.856648    2.180276   -0.799805
     13          6           0       -1.452621    2.783233   -0.854052
     14          1           0       -2.518020    0.983130    0.960200
     15          1           0       -2.212919    0.137699   -0.554159
     16          1           0       -3.541216    2.881357   -0.305367
     17          1           0       -3.237054    2.036889   -1.819289
     18          1           0       -0.761858    2.105560   -1.366115
     19          1           0       -1.067749    2.954826    0.156409
     20          1           0       -1.446678    3.739551   -1.386293
     21          6           0        4.688590    1.063388    0.823860
     22          6           0        3.359298    1.438870    1.044125
     23          6           0        2.309870    0.626175    0.605061
     24          6           0        2.627349   -0.560566   -0.053834
     25          6           0        3.941553   -0.962034   -0.288317
     26          6           0        4.974970   -0.133755    0.159514
     27          1           0        5.497591    1.700762    1.168340
     28          1           0        3.133917    2.368031    1.559787
     29          1           0        1.271775    0.892713    0.762325
     30          1           0        4.134890   -1.894118   -0.805285
     31          1           0        6.006371   -0.427890   -0.012937
     32          7           0        1.524842   -1.429179   -0.523292
     33          8           0        1.830994   -2.469761   -1.101304
     34          8           0        0.375421   -1.052970   -0.304350
 ---------------------------------------------------------------------

 SCF Done:  E(RHF) =  -669.536280406     A.U. after   15 cycles
 E2 =    -0.2091538575D+01 EUMP2 =    -0.67162781898057D+03

 The electronic state is 1-A.
 Alpha  occ. eigenvalues --  -20.60908 -20.60897 -15.85943 -11.31236 -11.27807
 Alpha  occ. eigenvalues --  -11.27778 -11.27541 -11.26809 -11.26792 -11.21045
 Alpha  occ. eigenvalues --  -11.20814 -11.20721 -11.20574 -11.20371 -11.20369
 Alpha  occ. eigenvalues --   -1.59971  -1.39526  -1.19406  -1.08818  -1.07646
 Alpha  occ. eigenvalues --   -1.04798  -1.02880  -0.95663  -0.95341  -0.86376
 Alpha  occ. eigenvalues --   -0.86197  -0.82499  -0.78934  -0.77615  -0.77339
 Alpha  occ. eigenvalues --   -0.72167  -0.71285  -0.70515  -0.65066  -0.64802
 Alpha  occ. eigenvalues --   -0.64267  -0.62145  -0.60283  -0.58712  -0.56940
 Alpha  occ. eigenvalues --   -0.55308  -0.54634  -0.53134  -0.52893  -0.52085
 Alpha  occ. eigenvalues --   -0.51773  -0.49311  -0.48928  -0.48912  -0.47253
 Alpha  occ. eigenvalues --   -0.45946  -0.45041  -0.44979  -0.44703  -0.43081
 Alpha  occ. eigenvalues --   -0.37389  -0.36397
 Alpha virt. eigenvalues --    0.04956   0.11238   0.16453   0.20870   0.23426
 Alpha virt. eigenvalues --    0.24356   0.26668   0.27523   0.27683   0.28660
 Alpha virt. eigenvalues --    0.29305   0.31143   0.31806   0.32164   0.32366

 Mulliken charges:
               1
     1  C   -0.297791
     2  C   -0.300380
     3  C   -0.475390
     4  H    0.144544
     5  H    0.148280
     6  H    0.149435
     7  H    0.162043
     8  H    0.154333
     9  H    0.151911
    10  H    0.159082
    11  C   -0.307853
    12  C   -0.298236
    13  C   -0.477376
    14  H    0.142571
    15  H    0.178753
    16  H    0.148131
    17  H    0.152129
    18  H    0.161273
    19  H    0.145039
    20  H    0.157495
    21  C   -0.170506
    22  C   -0.218951
    23  C   -0.172597
    24  C    0.156941
    25  C   -0.170597
    26  C   -0.218756
    27  H    0.225800
    28  H    0.223988
    29  H    0.279541
    30  H    0.275531
    31  H    0.223548
    32  N    0.494269
    33  O   -0.459460
    34  O   -0.466743
 Sum of Mulliken charges =  -0.00000

 Dipole moment (field-independent basis, Debye):
    X=              4.0624    Y=              2.8741    Z=              1.5667  Tot=              5.2171
 Quadrupole moment (field-independent basis, Debye-Ang):
   XX=            -74.1406   YY=            -97.1037   ZZ=            -94.3208
   XY=              3.2733   XZ=              3.1142   YZ=              0.9076

 Normal termination of Gaussian 16 at Thu May  6 01:00:40 2021.
