 Gaussian 16, Revision A.03,
 Gaussian 16:  EM64L-G16RevA.03 25-Dec-2016

 -------------
 #p 6-31g* mp2
 -------------

 ------------------------------------------------------
 Input file generated by CHIRIPA (05-May-2021 14:55:24)
 ------------------------------------------------------
 Symbolic Z-matrix:
 Charge =  0 Multiplicity = 1

                         Standard orientation:
 ---------------------------------------------------------------------
 Center     Atomic      Atomic             Coordinates (Angstroms)
 Number     Number       Type             X           Y           Z
 ---------------------------------------------------------------------
      1          6           0       -1.850323    2.081395    0.152761
      2          6           0       -1.442280    1.004118    0.946169
      3          6           0       -2.133066   -0.210612    0.903823
      4          6           0       -3.232427   -0.313622    0.052891
      5          6           0       -3.663463    0.741493   -0.749748
      6          6           0       -2.957660    1.946881   -0.691177
      7          1           0       -1.307872    3.021398    0.191959
      8          1           0       -0.582669    1.105715    1.602516
      9          1           0       -1.838783   -1.060665    1.507335
     10          1           0       -4.524173    0.609996   -1.394189
     11          1           0       -3.276818    2.781825   -1.308471
     12          7           0       -3.971680   -1.594658   -0.000527
     13          8           0       -4.937003   -1.659895   -0.758505
     14          8           0       -3.571784   -2.509239    0.716594
     15          6           0        4.123386   -0.598805   -0.253390
     16          6           0        5.570779   -1.015139    0.010626
     17          6           0        5.838976   -2.478235   -0.343231
     18          1           0        3.450816   -1.246705    0.325247
     19          1           0        3.887379   -0.769983   -1.312822
     20          1           0        5.804411   -0.841931    1.068941
     21          1           0        6.239988   -0.366048   -0.568560
     22          1           0        5.633232   -2.662307   -1.402660
     23          1           0        5.195179   -3.140893    0.244145
     24          1           0        6.879598   -2.754550   -0.146725
     25          6           0        3.839722    0.861185    0.095450
     26          6           0        2.392329    1.277519   -0.168566
     27          6           0        2.124132    2.740615    0.185291
     28          1           0        4.075727    1.032363    1.154881
     29          1           0        4.512291    1.509085   -0.483188
     30          1           0        1.723118    0.628428    0.410620
     31          1           0        2.158696    1.104311   -1.226881
     32          1           0        2.767929    3.403272   -0.402085
     33          1           0        2.329876    2.924686    1.244720
     34          1           0        1.083509    3.016930   -0.011215
 ---------------------------------------------------------------------

 SCF Done:  E(RHF) =  -669.534995446     A.U. after   15 cycles
 E2 =    -0.2092189666D+01 EUMP2 =    -0.67162718511242D+03

 The electronic state is 1-A.
 Alpha  occ. eigenvalues --  -20.60760 -20.60755 -15.85814 -11.31185 -11.27751
 Alpha  occ. eigenvalues --  -11.27747 -11.27478 -11.26766 -11.26750 -11.22423
 Alpha  occ. eigenvalues --  -11.22162 -11.22010 -11.21958 -11.21826 -11.21322
 Alpha  occ. eigenvalues --   -1.59836  -1.39389  -1.19356  -1.09020  -1.08748
 Alpha  occ. eigenvalues --   -1.04762  -1.04148  -0.96616  -0.95583  -0.87631
 Alpha  occ. eigenvalues --   -0.86155  -0.82421  -0.80216  -0.78779  -0.77463
 Alpha  occ. eigenvalues --   -0.72032  -0.71158  -0.70496  -0.65676  -0.65011
 Alpha  occ. eigenvalues --   -0.64770  -0.62154  -0.61503  -0.60025  -0.58204
 Alpha  occ. eigenvalues --   -0.55888  -0.55310  -0.53327  -0.53104  -0.52942
 Alpha  occ. eigenvalues --   -0.52847  -0.50538  -0.48798  -0.48787  -0.48513
 Alpha  occ. eigenvalues --   -0.47238  -0.46327  -0.46228  -0.44793  -0.44392
 Alpha  occ. eigenvalues --   -0.37317  -0.36347
 Alpha virt. eigenvalues --    0.05045   0.11204   0.16444   0.19697   0.22656
 Alpha virt. eigenvalues --    0.24074   0.25417   0.26259   0.26727   0.27431
 Alpha virt. eigenvalues --    0.28797   0.29915   0.30949   0.31702   0.32251

 Mulliken charges:
               1
     1  C   -0.173299
     2  C   -0.217130
     3  C   -0.172058
     4  C    0.158665
     5  C   -0.170822
     6  C   -0.218937
     7  H    0.228007
     8  H    0.226046
     9  H    0.275351
    10  H    0.275581
    11  H    0.223555
    12  N    0.488099
    13  O   -0.460416
    14  O   -0.460475
    15  C   -0.298664
    16  C   -0.300125
    17  C   -0.476129
    18  H    0.149942
    19  H    0.151502
    20  H    0.151977
    21  H    0.152419
    22  H    0.156257
    23  H    0.156315
    24  H    0.161365
    25  C   -0.299015
    26  C   -0.300171
    27  C   -0.480906
    28  H    0.149255
    29  H    0.151368
    30  H    0.148392
    31  H    0.156649
    32  H    0.161000
    33  H    0.155190
    34  H    0.151212
 Sum of Mulliken charges =  -0.00000

 Dipole moment (field-independent basis, Debye):
    X=              2.7436    Y=              4.4625    Z=              0.1278  Tot=              5.2400
 Quadrupole moment (field-independent basis, Debye-Ang):
   XX=           -109.5850   YY=            -98.4739   ZZ=            -92.0369
   XY=            -16.5843   XZ=              1.6746   YZ=             -1.9262

 Normal termination of Gaussian 16 at Thu May  6 06:21:06 2021.
