 Gaussian 16, Revision A.03,
 Gaussian 16:  EM64L-G16RevA.03 25-Dec-2016

 -------------
 #p 6-31g* mp2
 -------------

 ------------------------------------------------------
 Input file generated by CHIRIPA (05-May-2021 14:55:21)
 ------------------------------------------------------
 Symbolic Z-matrix:
 Charge =  0 Multiplicity = 1

                         Standard orientation:
 ---------------------------------------------------------------------
 Center     Atomic      Atomic             Coordinates (Angstroms)
 Number     Number       Type             X           Y           Z
 ---------------------------------------------------------------------
      1          6           0       -5.447711   -1.014698    0.720259
      2          6           0       -5.250913    0.291028    1.181637
      3          6           0       -4.151832    1.038886    0.748883
      4          6           0       -3.265379    0.447148   -0.149636
      5          6           0       -3.434207   -0.851475   -0.627513
      6          6           0       -4.540330   -1.580784   -0.181254
      7          1           0       -6.304239   -1.588448    1.061678
      8          1           0       -5.953971    0.733223    1.881794
      9          1           0       -3.975435    2.051770    1.090013
     10          1           0       -2.716217   -1.265249   -1.325152
     11          1           0       -4.690645   -2.594616   -0.541249
     12          7           0       -2.098103    1.229054   -0.614922
     13          8           0       -1.331614    0.684914   -1.406782
     14          8           0       -1.971784    2.371246   -0.178942
     15          6           0        3.737191   -0.410505   -0.236860
     16          6           0        2.830333   -1.535749    0.262561
     17          6           0        1.455965   -1.528763   -0.407407
     18          1           0        3.245174    0.555258   -0.057514
     19          1           0        3.858279   -0.502287   -1.325120
     20          1           0        2.712112   -1.442687    1.349750
     21          1           0        3.324650   -2.498935    0.082179
     22          1           0        1.555269   -1.644837   -1.491505
     23          1           0        0.939250   -0.582587   -0.216732
     24          1           0        0.823998   -2.341349   -0.035681
     25          6           0        5.114674   -0.404293    0.423617
     26          6           0        6.021533    0.720950   -0.075806
     27          6           0        7.395900    0.713964    0.594164
     28          1           0        4.993587   -0.312512    1.511876
     29          1           0        5.606692   -1.370057    0.244271
     30          1           0        5.527216    1.684137    0.104577
     31          1           0        6.139754    0.627888   -1.162994
     32          1           0        7.912615   -0.232213    0.403488
     33          1           0        7.296597    0.830038    1.678261
     34          1           0        8.027868    1.526550    0.222438
 ---------------------------------------------------------------------

 SCF Done:  E(RHF) =  -669.536022936     A.U. after   15 cycles
 E2 =    -0.2090857033D+01 EUMP2 =    -0.67162687996911D+03

 The electronic state is 1-A.
 Alpha  occ. eigenvalues --  -20.60902 -20.60882 -15.85917 -11.31240 -11.27810
 Alpha  occ. eigenvalues --  -11.27796 -11.27550 -11.26817 -11.26806 -11.21035
 Alpha  occ. eigenvalues --  -11.20840 -11.20768 -11.20611 -11.20584 -11.20046
 Alpha  occ. eigenvalues --   -1.59956  -1.39510  -1.19412  -1.08818  -1.07742
 Alpha  occ. eigenvalues --   -1.04808  -1.02835  -0.95661  -0.95269  -0.86284
 Alpha  occ. eigenvalues --   -0.86208  -0.82491  -0.78905  -0.77570  -0.77508
 Alpha  occ. eigenvalues --   -0.72141  -0.71270  -0.70521  -0.65067  -0.64812
 Alpha  occ. eigenvalues --   -0.64376  -0.62154  -0.60233  -0.58672  -0.56883
 Alpha  occ. eigenvalues --   -0.55316  -0.54548  -0.53141  -0.52900  -0.52000
 Alpha  occ. eigenvalues --   -0.51674  -0.49213  -0.48906  -0.48889  -0.47220
 Alpha  occ. eigenvalues --   -0.45972  -0.45159  -0.45035  -0.44707  -0.43106
 Alpha  occ. eigenvalues --   -0.37392  -0.36409
 Alpha virt. eigenvalues --    0.04958   0.11242   0.16434   0.21348   0.23535
 Alpha virt. eigenvalues --    0.24989   0.27207   0.27358   0.27938   0.28214
 Alpha virt. eigenvalues --    0.28915   0.30894   0.32046   0.32191   0.32563

 Mulliken charges:
               1
     1  C   -0.170607
     2  C   -0.218638
     3  C   -0.170920
     4  C    0.158226
     5  C   -0.170677
     6  C   -0.218684
     7  H    0.225791
     8  H    0.223575
     9  H    0.275586
    10  H    0.276953
    11  H    0.223752
    12  N    0.487420
    13  O   -0.457908
    14  O   -0.459845
    15  C   -0.298440
    16  C   -0.299653
    17  C   -0.478721
    18  H    0.155472
    19  H    0.149706
    20  H    0.148382
    21  H    0.147206
    22  H    0.155311
    23  H    0.172989
    24  H    0.148479
    25  C   -0.297811
    26  C   -0.299470
    27  C   -0.475345
    28  H    0.147938
    29  H    0.147269
    30  H    0.153574
    31  H    0.151767
    32  H    0.153800
    33  H    0.154260
    34  H    0.159262
 Sum of Mulliken charges =  -0.00000

 Dipole moment (field-independent basis, Debye):
    X=             -4.3210    Y=             -2.6211    Z=              1.5729  Tot=              5.2930
 Quadrupole moment (field-independent basis, Debye-Ang):
   XX=            -69.7245   YY=            -94.5144   ZZ=            -93.8925
   XY=              6.0323   XZ=             -6.7087   YZ=              4.1565

 Normal termination of Gaussian 16 at Thu May  6 02:58:43 2021.
