 Gaussian 16, Revision A.03,
 Gaussian 16:  EM64L-G16RevA.03 25-Dec-2016

 -------------
 #p 6-31g* mp2
 -------------

 ------------------------------------------------------
 Input file generated by CHIRIPA (05-May-2021 14:53:11)
 ------------------------------------------------------
 Symbolic Z-matrix:
 Charge =  0 Multiplicity = 1

                         Standard orientation:
 ---------------------------------------------------------------------
 Center     Atomic      Atomic             Coordinates (Angstroms)
 Number     Number       Type             X           Y           Z
 ---------------------------------------------------------------------
      1          6           0       -5.702583   -0.313466    0.382957
      2          6           0       -6.827147    0.395756   -0.372254
      3          6           0       -8.192739    0.210024    0.289906
      4          1           0       -5.935186   -1.384905    0.452670
      5          1           0       -5.666106    0.066160    1.413466
      6          1           0       -6.860595    0.015900   -1.401432
      7          1           0       -6.591747    1.465600   -0.440345
      8          1           0       -8.183032    0.606017    1.310541
      9          1           0       -8.453408   -0.851921    0.343993
     10          1           0       -8.982044    0.725195   -0.266382
     11          6           0       -4.331282   -0.137041   -0.266762
     12          6           0       -3.206718   -0.846264    0.488449
     13          6           0       -1.841126   -0.660532   -0.173711
     14          1           0       -4.367759   -0.516667   -1.297271
     15          1           0       -4.098679    0.934398   -0.336475
     16          1           0       -3.442118   -1.916108    0.556540
     17          1           0       -3.173270   -0.466407    1.517627
     18          1           0       -1.580457    0.401413   -0.227798
     19          1           0       -1.850833   -1.056524   -1.194346
     20          1           0       -1.051820   -1.175703    0.382577
     21          6           0        1.702320    1.338805   -0.358385
     22          6           0        2.823610    2.068057    0.050784
     23          6           0        4.057121    1.434176    0.227404
     24          6           0        4.133825    0.063562   -0.015130
     25          6           0        3.034760   -0.690401   -0.423646
     26          6           0        1.811280   -0.035674   -0.593878
     27          1           0        0.747995    1.839316   -0.493106
     28          1           0        2.741935    3.135605    0.234402
     29          1           0        4.941161    1.974571    0.543417
     30          1           0        3.147224   -1.753428   -0.598982
     31          1           0        0.942146   -0.604554   -0.911723
     32          7           0        5.434378   -0.618534    0.168470
     33          8           0        5.475744   -1.827024   -0.051707
     34          8           0        6.387759    0.068245    0.529074
 ---------------------------------------------------------------------

 SCF Done:  E(RHF) =  -669.535094790     A.U. after   15 cycles
 E2 =    -0.2091515099D+01 EUMP2 =    -0.67162660988947D+03

 The electronic state is 1-A.
 Alpha  occ. eigenvalues --  -20.60692 -20.60686 -15.85743 -11.31086 -11.27654
 Alpha  occ. eigenvalues --  -11.27628 -11.27370 -11.26672 -11.26563 -11.22541
 Alpha  occ. eigenvalues --  -11.22401 -11.22166 -11.22121 -11.21980 -11.21498
 Alpha  occ. eigenvalues --   -1.59767  -1.39322  -1.19250  -1.09167  -1.08648
 Alpha  occ. eigenvalues --   -1.04653  -1.04308  -0.96804  -0.95489  -0.87855
 Alpha  occ. eigenvalues --   -0.86032  -0.82323  -0.80405  -0.78936  -0.77369
 Alpha  occ. eigenvalues --   -0.71962  -0.71090  -0.70368  -0.65792  -0.64898
 Alpha  occ. eigenvalues --   -0.64670  -0.62033  -0.61706  -0.60153  -0.58374
 Alpha  occ. eigenvalues --   -0.56110  -0.55142  -0.53641  -0.53219  -0.52966
 Alpha  occ. eigenvalues --   -0.52578  -0.50735  -0.48723  -0.48718  -0.48693
 Alpha  occ. eigenvalues --   -0.47397  -0.46490  -0.46381  -0.44732  -0.44535
 Alpha  occ. eigenvalues --   -0.37224  -0.36245
 Alpha virt. eigenvalues --    0.05150   0.11349   0.16623   0.20290   0.22291
 Alpha virt. eigenvalues --    0.23766   0.25318   0.25886   0.26744   0.27297
 Alpha virt. eigenvalues --    0.28832   0.29718   0.30666   0.31607   0.32188

 Mulliken charges:
               1
     1  C   -0.299031
     2  C   -0.300054
     3  C   -0.476100
     4  H    0.151352
     5  H    0.150633
     6  H    0.152593
     7  H    0.151818
     8  H    0.155821
     9  H    0.156159
    10  H    0.161590
    11  C   -0.299083
    12  C   -0.300114
    13  C   -0.484672
    14  H    0.150604
    15  H    0.148348
    16  H    0.156196
    17  H    0.155327
    18  H    0.149856
    19  H    0.156215
    20  H    0.162768
    21  C   -0.174291
    22  C   -0.218580
    23  C   -0.171400
    24  C    0.158814
    25  C   -0.172872
    26  C   -0.223516
    27  H    0.226011
    28  H    0.222822
    29  H    0.275105
    30  H    0.275255
    31  H    0.235905
    32  N    0.488014
    33  O   -0.460706
    34  O   -0.460785
 Sum of Mulliken charges =  -0.00000

 Dipole moment (field-independent basis, Debye):
    X=             -4.8644    Y=              2.3502    Z=             -0.6131  Tot=              5.4371
 Quadrupole moment (field-independent basis, Debye-Ang):
   XX=           -132.7092   YY=            -90.0952   ZZ=            -95.0331
   XY=             12.0216   XZ=             -1.6259   YZ=              1.7539

 Normal termination of Gaussian 16 at Wed May  5 18:28:09 2021.
