 Gaussian 16, Revision A.03,
 Gaussian 16:  EM64L-G16RevA.03 25-Dec-2016

 -------------
 #p 6-31g* mp2
 -------------

 ------------------------------------------------------
 Input file generated by CHIRIPA (05-May-2021 14:57:24)
 ------------------------------------------------------
 Symbolic Z-matrix:
 Charge =  0 Multiplicity = 1

                         Standard orientation:
 ---------------------------------------------------------------------
 Center     Atomic      Atomic             Coordinates (Angstroms)
 Number     Number       Type             X           Y           Z
 ---------------------------------------------------------------------
      1          6           0        2.604099   -2.287144    0.604099
      2          6           0        3.450138   -1.637734   -0.300890
      3          6           0        3.341030   -0.259969   -0.511618
      4          6           0        2.370396    0.440604    0.202775
      5          6           0        1.512769   -0.177843    1.111230
      6          6           0        1.639815   -1.556414    1.306034
      7          1           0        2.695824   -3.357739    0.761612
      8          1           0        4.199928   -2.202688   -0.847413
      9          1           0        3.983037    0.267998   -1.206238
     10          1           0        0.774984    0.412104    1.641375
     11          1           0        0.981412   -2.058112    2.009489
     12          7           0        2.245393    1.899609   -0.011884
     13          8           0        1.382121    2.494211    0.629869
     14          8           0        3.013055    2.420949   -0.817822
     15          6           0       -3.223954    2.138390    0.212816
     16          6           0       -3.970716    1.035019    0.638772
     17          6           0       -3.518878   -0.265231    0.394358
     18          6           0       -2.310471   -0.426223   -0.281751
     19          6           0       -1.543783    0.652920   -0.718709
     20          6           0       -2.015001    1.944161   -0.463373
     21          1           0       -3.582479    3.144957    0.406924
     22          1           0       -4.909965    1.182853    1.164132
     23          1           0       -4.076994   -1.137223    0.713030
     24          1           0       -0.611293    0.473857   -1.240069
     25          1           0       -1.432958    2.799188   -0.795339
     26          7           0       -1.821871   -1.797972   -0.546282
     27          8           0       -0.754054   -1.913046   -1.143913
     28          8           0       -2.515974   -2.732099   -0.150982
 ---------------------------------------------------------------------

 SCF Done:  E(RHF) =  -868.339564535     A.U. after   16 cycles
 E2 =    -0.2603104484D+01 EUMP2 =    -0.87094266901900D+03

 The electronic state is 1-A.
 Alpha  occ. eigenvalues --  -20.61039 -20.61021 -20.60968 -20.60901 -15.86041
 Alpha  occ. eigenvalues --  -15.85943 -11.31066 -11.30919 -11.27594 -11.27489
 Alpha  occ. eigenvalues --  -11.27441 -11.27420 -11.27171 -11.27011 -11.26570
 Alpha  occ. eigenvalues --  -11.26327 -11.26314 -11.26285  -1.60118  -1.60016
 Alpha  occ. eigenvalues --   -1.39678  -1.39571  -1.19184  -1.19031  -1.08616
 Alpha  occ. eigenvalues --   -1.08503  -1.04519  -1.04362  -0.95506  -0.95427
 Alpha  occ. eigenvalues --   -0.85946  -0.85769  -0.82374  -0.82246  -0.77482
 Alpha  occ. eigenvalues --   -0.77352  -0.72276  -0.72191  -0.71482  -0.71339
 Alpha  occ. eigenvalues --   -0.70272  -0.70106  -0.64809  -0.64688  -0.64474
 Alpha  occ. eigenvalues --   -0.64371  -0.61858  -0.61741  -0.55010  -0.54852
 Alpha  occ. eigenvalues --   -0.52945  -0.52793  -0.52454  -0.52413  -0.49060
 Alpha  occ. eigenvalues --   -0.48994  -0.48955  -0.48915  -0.45197  -0.45014
 Alpha  occ. eigenvalues --   -0.37250  -0.36833  -0.36183  -0.35709
 Alpha virt. eigenvalues --    0.04880   0.05214   0.11065   0.12208   0.16416
 Alpha virt. eigenvalues --    0.16912   0.21761   0.21844   0.27547   0.27678
 Alpha virt. eigenvalues --    0.28444   0.28703   0.31351   0.31517   0.32520

 Mulliken charges:
               1
     1  C   -0.160139
     2  C   -0.216465
     3  C   -0.171071
     4  C    0.151763
     5  C   -0.175061
     6  C   -0.207794
     7  H    0.228783
     8  H    0.223310
     9  H    0.273197
    10  H    0.272541
    11  H    0.224959
    12  N    0.486100
    13  O   -0.468675
    14  O   -0.459699
    15  C   -0.172652
    16  C   -0.218663
    17  C   -0.174627
    18  C    0.153034
    19  C   -0.176478
    20  C   -0.210570
    21  H    0.227732
    22  H    0.222364
    23  H    0.272732
    24  H    0.274182
    25  H    0.239147
    26  N    0.486111
    27  O   -0.459346
    28  O   -0.464715
 Sum of Mulliken charges =  -0.00000

 Dipole moment (field-independent basis, Debye):
    X=             -1.1435    Y=             -0.3894    Z=              1.6447  Tot=              2.0406
 Quadrupole moment (field-independent basis, Debye-Ang):
   XX=            -89.5442   YY=           -113.2532   ZZ=           -102.9690
   XY=            -22.3971   XZ=             -4.7271   YZ=             -3.5854

 Normal termination of Gaussian 16 at Fri May  7 12:36:12 2021.
