 Gaussian 16, Revision A.03,
 Gaussian 16:  EM64L-G16RevA.03 25-Dec-2016

 -------------
 #p 6-31g* mp2
 -------------

 ------------------------------------------------------
 Input file generated by CHIRIPA (05-May-2021 14:57:27)
 ------------------------------------------------------
 Symbolic Z-matrix:
 Charge =  0 Multiplicity = 1

                         Standard orientation:
 ---------------------------------------------------------------------
 Center     Atomic      Atomic             Coordinates (Angstroms)
 Number     Number       Type             X           Y           Z
 ---------------------------------------------------------------------
      1          6           0        5.373586    1.282892   -0.661952
      2          6           0        5.175543    0.039140   -1.270540
      3          6           0        4.124898   -0.789874   -0.866277
      4          6           0        3.287625   -0.341606    0.154174
      5          6           0        3.459031    0.892199    0.779982
      6          6           0        4.516210    1.704709    0.359566
      7          1           0        6.192290    1.920480   -0.982267
      8          1           0        5.839825   -0.291038   -2.064112
      9          1           0        3.948719   -1.757490   -1.320257
     10          1           0        2.780321    1.194046    1.568435
     11          1           0        4.667616    2.670126    0.834003
     12          7           0        2.171896   -1.210510    0.590699
     13          8           0        1.448205   -0.792545    1.491928
     14          8           0        2.042204   -2.293070    0.023352
     15          6           0       -3.642763   -2.317684   -0.159154
     16          6           0       -2.457890   -1.709450    0.268219
     17          6           0       -2.351731   -0.316216    0.314865
     18          6           0       -3.454955    0.441646   -0.074792
     19          6           0       -4.648994   -0.134784   -0.505243
     20          6           0       -4.732612   -1.529798   -0.543842
     21          1           0       -3.716474   -3.400674   -0.192264
     22          1           0       -1.609890   -2.318823    0.567563
     23          1           0       -1.446372    0.180749    0.641621
     24          1           0       -5.477384    0.499108   -0.797425
     25          1           0       -5.654051   -1.999426   -0.876176
     26          7           0       -3.354501    1.917543   -0.029669
     27          8           0       -4.340743    2.562899   -0.378209
     28          8           0       -2.291425    2.401049    0.353384
 ---------------------------------------------------------------------

 SCF Done:  E(RHF) =  -868.341462772     A.U. after   16 cycles
 E2 =    -0.2598345453D+01 EUMP2 =    -0.87093980822479D+03

 The electronic state is 1-A.
 Alpha  occ. eigenvalues --  -20.61574 -20.61557 -20.60064 -20.60059 -15.86558
 Alpha  occ. eigenvalues --  -15.85105 -11.31526 -11.30208 -11.28073 -11.28019
 Alpha  occ. eigenvalues --  -11.27736 -11.27001 -11.26952 -11.26820 -11.26574
 Alpha  occ. eigenvalues --  -11.26450 -11.25820 -11.25500  -1.60619  -1.59144
 Alpha  occ. eigenvalues --   -1.40179  -1.38703  -1.19667  -1.18353  -1.09141
 Alpha  occ. eigenvalues --   -1.07809  -1.05007  -1.03681  -0.96039  -0.94683
 Alpha  occ. eigenvalues --   -0.86427  -0.85105  -0.82884  -0.81500  -0.77969
 Alpha  occ. eigenvalues --   -0.76570  -0.72793  -0.71903  -0.71334  -0.70774
 Alpha  occ. eigenvalues --   -0.70462  -0.69466  -0.65324  -0.65010  -0.63992
 Alpha  occ. eigenvalues --   -0.63652  -0.62356  -0.60998  -0.55536  -0.54237
 Alpha  occ. eigenvalues --   -0.53357  -0.53095  -0.52080  -0.51735  -0.49566
 Alpha  occ. eigenvalues --   -0.49535  -0.48096  -0.48064  -0.45658  -0.44166
 Alpha  occ. eigenvalues --   -0.37628  -0.36587  -0.36364  -0.35287
 Alpha virt. eigenvalues --    0.04495   0.05900   0.11072   0.12350   0.16049
 Alpha virt. eigenvalues --    0.17452   0.21218   0.22610   0.27179   0.27944
 Alpha virt. eigenvalues --    0.28711   0.29343   0.30893   0.32083   0.32324

 Mulliken charges:
               1
     1  C   -0.169288
     2  C   -0.218696
     3  C   -0.170354
     4  C    0.157214
     5  C   -0.168845
     6  C   -0.218279
     7  H    0.227603
     8  H    0.224408
     9  H    0.274760
    10  H    0.278651
    11  H    0.226860
    12  N    0.489243
    13  O   -0.466395
    14  O   -0.462325
    15  C   -0.171974
    16  C   -0.223729
    17  C   -0.176702
    18  C    0.157850
    19  C   -0.173095
    20  C   -0.219237
    21  H    0.223805
    22  H    0.242367
    23  H    0.284382
    24  H    0.271494
    25  H    0.219299
    26  N    0.488113
    27  O   -0.464166
    28  O   -0.462963
 Sum of Mulliken charges =  -0.00000

 Dipole moment (field-independent basis, Debye):
    X=              4.1212    Y=             -2.1720    Z=             -1.6341  Tot=              4.9368
 Quadrupole moment (field-independent basis, Debye-Ang):
   XX=            -72.9362   YY=           -110.0916   ZZ=           -103.6698
   XY=             26.0653   XZ=             -3.5710   YZ=              3.8564

 Normal termination of Gaussian 16 at Fri May  7 08:12:49 2021.
