 Gaussian 16, Revision A.03,
 Gaussian 16:  EM64L-G16RevA.03 25-Dec-2016

 -------------
 #p 6-31g* mp2
 -------------

 ------------------------------------------------------
 Input file generated by CHIRIPA (05-May-2021 14:57:23)
 ------------------------------------------------------
 Symbolic Z-matrix:
 Charge =  0 Multiplicity = 1

                         Standard orientation:
 ---------------------------------------------------------------------
 Center     Atomic      Atomic             Coordinates (Angstroms)
 Number     Number       Type             X           Y           Z
 ---------------------------------------------------------------------
      1          6           0       -1.848938    1.759732    1.241157
      2          6           0       -2.572466    2.100540    0.093605
      3          6           0       -3.417694    1.168427   -0.515742
      4          6           0       -3.515941   -0.101075    0.051710
      5          6           0       -2.808099   -0.470772    1.194327
      6          6           0       -1.968852    0.477424    1.786894
      7          1           0       -1.194668    2.490067    1.707995
      8          1           0       -2.481302    3.095649   -0.332415
      9          1           0       -3.989320    1.405673   -1.404773
     10          1           0       -2.919661   -1.470633    1.595887
     11          1           0       -1.408155    0.209960    2.678032
     12          7           0       -4.407580   -1.096375   -0.584496
     13          8           0       -4.476672   -2.208149   -0.065053
     14          8           0       -5.020473   -0.745870   -1.590551
     15          6           0        2.479217    2.276611   -0.473784
     16          6           0        3.855427    2.035882   -0.541745
     17          6           0        4.359626    0.743606   -0.367524
     18          6           0        3.455008   -0.289144   -0.125897
     19          6           0        2.078541   -0.081207   -0.052492
     20          6           0        1.596723    1.219163   -0.229805
     21          1           0        2.096237    3.283626   -0.610324
     22          1           0        4.543130    2.855185   -0.731090
     23          1           0        5.420350    0.529088   -0.415115
     24          1           0        1.417725   -0.918212    0.137673
     25          1           0        0.527448    1.403164   -0.176498
     26          7           0        3.976935   -1.661503    0.060179
     27          8           0        3.159093   -2.554232    0.271857
     28          8           0        5.193979   -1.818442   -0.009174
 ---------------------------------------------------------------------

 SCF Done:  E(RHF) =  -868.336961908     A.U. after   16 cycles
 E2 =    -0.2601351128D+01 EUMP2 =    -0.87093831303624D+03

 The electronic state is 1-A.
 Alpha  occ. eigenvalues --  -20.61344 -20.61331 -20.61037 -20.61032 -15.86402
 Alpha  occ. eigenvalues --  -15.86091 -11.32025 -11.31528 -11.28631 -11.28581
 Alpha  occ. eigenvalues --  -11.28448 -11.28089 -11.28076 -11.27885 -11.27749
 Alpha  occ. eigenvalues --  -11.27667 -11.27143 -11.27022  -1.60410  -1.60111
 Alpha  occ. eigenvalues --   -1.39955  -1.39663  -1.20251  -1.19701  -1.09620
 Alpha  occ. eigenvalues --   -1.09095  -1.05661  -1.05103  -0.96391  -0.95920
 Alpha  occ. eigenvalues --   -0.87047  -0.86513  -0.83194  -0.82736  -0.78178
 Alpha  occ. eigenvalues --   -0.77773  -0.72613  -0.72307  -0.71738  -0.71437
 Alpha  occ. eigenvalues --   -0.71358  -0.70842  -0.65883  -0.65640  -0.65351
 Alpha  occ. eigenvalues --   -0.65124  -0.62966  -0.62469  -0.56191  -0.55666
 Alpha  occ. eigenvalues --   -0.54140  -0.53727  -0.53447  -0.53022  -0.49393
 Alpha  occ. eigenvalues --   -0.49352  -0.49071  -0.49059  -0.45302  -0.45052
 Alpha  occ. eigenvalues --   -0.38277  -0.37711  -0.37293  -0.36683
 Alpha virt. eigenvalues --    0.04297   0.04750   0.10287   0.10915   0.15667
 Alpha virt. eigenvalues --    0.16245   0.20215   0.21536   0.26431   0.26852
 Alpha virt. eigenvalues --    0.27558   0.28335   0.30159   0.31018   0.31781

 Mulliken charges:
               1
     1  C   -0.185148
     2  C   -0.221618
     3  C   -0.169271
     4  C    0.159793
     5  C   -0.171048
     6  C   -0.220384
     7  H    0.227974
     8  H    0.224352
     9  H    0.278845
    10  H    0.281159
    11  H    0.229711
    12  N    0.487944
    13  O   -0.456195
    14  O   -0.458266
    15  C   -0.174387
    16  C   -0.217844
    17  C   -0.171280
    18  C    0.159629
    19  C   -0.175397
    20  C   -0.228482
    21  H    0.221661
    22  H    0.223791
    23  H    0.276552
    24  H    0.276155
    25  H    0.232848
    26  N    0.487938
    27  O   -0.459554
    28  O   -0.459476
 Sum of Mulliken charges =  -0.00000

 Dipole moment (field-independent basis, Debye):
    X=              1.0355    Y=              8.1559    Z=              1.6157  Tot=              8.3786
 Quadrupole moment (field-independent basis, Debye-Ang):
   XX=           -134.6240   YY=           -106.5386   ZZ=           -102.9056
   XY=              5.5912   XZ=             -9.5744   YZ=             -3.4817

 Normal termination of Gaussian 16 at Thu May  6 19:33:50 2021.
