 Gaussian 16, Revision A.03,
 Gaussian 16:  EM64L-G16RevA.03 25-Dec-2016

 -------------
 #p 6-31g* mp2
 -------------

 ------------------------------------------------------
 Input file generated by CHIRIPA (05-May-2021 14:53:14)
 ------------------------------------------------------
 Symbolic Z-matrix:
 Charge =  0 Multiplicity = 1

                         Standard orientation:
 ---------------------------------------------------------------------
 Center     Atomic      Atomic             Coordinates (Angstroms)
 Number     Number       Type             X           Y           Z
 ---------------------------------------------------------------------
      1          6           0       -3.655666   -0.114167   -0.229994
      2          6           0       -3.150161   -1.468582   -0.728000
      3          6           0       -4.218637   -2.560093   -0.659047
      4          1           0       -4.007969   -0.219517    0.805249
      5          1           0       -4.527307    0.186401   -0.827736
      6          1           0       -2.278886   -1.765856   -0.130401
      7          1           0       -2.798842   -1.359952   -1.762114
      8          1           0       -5.085896   -2.289363   -1.269922
      9          1           0       -4.562986   -2.697574    0.371062
     10          1           0       -3.835901   -3.519911   -1.019772
     11          6           0       -2.598924    0.987236   -0.292748
     12          6           0       -3.104429    2.341651    0.205259
     13          6           0       -2.035953    3.433162    0.136305
     14          1           0       -1.727283    0.686668    0.304994
     15          1           0       -2.246621    1.092586   -1.327991
     16          1           0       -3.455748    2.233021    1.239372
     17          1           0       -3.975704    2.638925   -0.392341
     18          1           0       -1.691604    3.570643   -0.893804
     19          1           0       -1.168694    3.162432    0.747180
     20          1           0       -2.418689    4.392980    0.497030
     21          6           0        4.256085    0.967109   -0.965466
     22          6           0        4.183025   -0.421027   -1.121226
     23          6           0        3.182792   -1.156014   -0.477893
     24          6           0        2.267936   -0.467509    0.317274
     25          6           0        2.314462    0.914712    0.492165
     26          6           0        3.323214    1.629381   -0.160687
     27          1           0        5.036399    1.530171   -1.468919
     28          1           0        4.906155   -0.938008   -1.745613
     29          1           0        3.103055   -2.231379   -0.581092
     30          1           0        1.579396    1.402128    1.121070
     31          1           0        3.377525    2.707350   -0.037899
     32          7           0        1.204525   -1.234852    1.003381
     33          8           0        0.410536   -0.604693    1.698449
     34          8           0        1.185146   -2.451923    0.833091
 ---------------------------------------------------------------------

 SCF Done:  E(RHF) =  -669.536838716     A.U. after   15 cycles
 E2 =    -0.2091903671D+01 EUMP2 =    -0.67162874238640D+03

 The electronic state is 1-A.
 Alpha  occ. eigenvalues --  -20.61052 -20.61043 -15.86054 -11.31309 -11.27867
 Alpha  occ. eigenvalues --  -11.27864 -11.27595 -11.26862 -11.26850 -11.21077
 Alpha  occ. eigenvalues --  -11.20877 -11.20586 -11.20527 -11.20470 -11.20196
 Alpha  occ. eigenvalues --   -1.60092  -1.39651  -1.19472  -1.08890  -1.07637
 Alpha  occ. eigenvalues --   -1.04859  -1.02830  -0.95743  -0.95305  -0.86336
 Alpha  occ. eigenvalues --   -0.86264  -0.82580  -0.78902  -0.77657  -0.77411
 Alpha  occ. eigenvalues --   -0.72280  -0.71390  -0.70585  -0.65133  -0.64864
 Alpha  occ. eigenvalues --   -0.64240  -0.62210  -0.60220  -0.58695  -0.56906
 Alpha  occ. eigenvalues --   -0.55371  -0.54596  -0.53192  -0.52952  -0.52038
 Alpha  occ. eigenvalues --   -0.51752  -0.49277  -0.49040  -0.49038  -0.47232
 Alpha  occ. eigenvalues --   -0.45937  -0.45332  -0.44982  -0.44484  -0.43047
 Alpha  occ. eigenvalues --   -0.37447  -0.36454
 Alpha virt. eigenvalues --    0.04830   0.11183   0.16302   0.20763   0.23390
 Alpha virt. eigenvalues --    0.24527   0.26207   0.27488   0.27813   0.28668
 Alpha virt. eigenvalues --    0.29137   0.30750   0.31443   0.32203   0.32676

 Mulliken charges:
               1
     1  C   -0.295964
     2  C   -0.304992
     3  C   -0.474969
     4  H    0.151796
     5  H    0.144319
     6  H    0.168696
     7  H    0.145659
     8  H    0.150505
     9  H    0.156215
    10  H    0.159658
    11  C   -0.310332
    12  C   -0.298022
    13  C   -0.475032
    14  H    0.169139
    15  H    0.142620
    16  H    0.154039
    17  H    0.149581
    18  H    0.152031
    19  H    0.150059
    20  H    0.158678
    21  C   -0.170382
    22  C   -0.218660
    23  C   -0.170563
    24  C    0.158765
    25  C   -0.171031
    26  C   -0.218699
    27  H    0.226134
    28  H    0.223866
    29  H    0.275789
    30  H    0.276737
    31  H    0.224399
    32  N    0.488842
    33  O   -0.460575
    34  O   -0.458304
 Sum of Mulliken charges =  -0.00000

 Dipole moment (field-independent basis, Debye):
    X=              3.9772    Y=              2.5493    Z=             -2.2836  Tot=              5.2471
 Quadrupole moment (field-independent basis, Debye-Ang):
   XX=            -78.5167   YY=            -94.9866   ZZ=            -95.4761
   XY=              2.2804   XZ=             -5.5496   YZ=              3.6205

 Normal termination of Gaussian 16 at Wed May  5 18:38:11 2021.
