 Gaussian 16, Revision A.03,
 Gaussian 16:  EM64L-G16RevA.03 25-Dec-2016

 -------------
 #p 6-31g* mp2
 -------------

 ------------------------------------------------------
 Input file generated by CHIRIPA (05-May-2021 14:51:09)
 ------------------------------------------------------
 Symbolic Z-matrix:
 Charge =  0 Multiplicity = 1

                         Standard orientation:
 ---------------------------------------------------------------------
 Center     Atomic      Atomic             Coordinates (Angstroms)
 Number     Number       Type             X           Y           Z
 ---------------------------------------------------------------------
      1          6           0        3.835542    0.456541    0.127254
      2          6           0        5.055775    0.108080   -0.725735
      3          6           0        5.956133    1.315156   -0.990535
      4          1           0        3.257319    1.243778   -0.375598
      5          1           0        4.173879    0.879526    1.083292
      6          1           0        4.715260   -0.315403   -1.679321
      7          1           0        5.631057   -0.678554   -0.220885
      8          1           0        6.323932    1.735365   -0.048862
      9          1           0        5.402931    2.100580   -1.515584
     10          1           0        6.822240    1.043510   -1.602031
     11          6           0        2.925821   -0.739880    0.400587
     12          6           0        1.705588   -0.391419    1.253577
     13          6           0        0.805230   -1.598495    1.518377
     14          1           0        2.587484   -1.162865   -0.555450
     15          1           0        3.504044   -1.527118    0.903440
     16          1           0        1.130306    0.395215    0.748727
     17          1           0        2.046103    0.032064    2.207163
     18          1           0        1.358433   -2.383919    2.043426
     19          1           0        0.437432   -2.018705    0.576703
     20          1           0       -0.060877   -1.326850    2.129872
     21          6           0       -3.445195   -0.467538   -0.720139
     22          6           0       -2.918709   -1.756623   -0.088430
     23          6           0       -3.054636   -2.966558   -1.013297
     24          1           0       -4.500287   -0.605087   -0.993653
     25          1           0       -2.901850   -0.277625   -1.656143
     26          1           0       -3.461932   -1.943312    0.846809
     27          1           0       -1.864803   -1.615926    0.183786
     28          1           0       -2.497949   -2.805863   -1.942208
     29          1           0       -4.104152   -3.135109   -1.275418
     30          1           0       -2.672235   -3.877239   -0.541820
     31          6           0       -3.316167    0.750878    0.192297
     32          6           0       -3.842654    2.039962   -0.439411
     33          6           0       -3.706728    3.249898    0.485454
     34          1           0       -3.859514    0.560964    1.128302
     35          1           0       -2.261077    0.888427    0.465812
     36          1           0       -4.896560    1.899266   -0.711628
     37          1           0       -3.299431    2.226652   -1.374651
     38          1           0       -2.657212    3.418448    0.747576
     39          1           0       -4.263414    3.089203    1.414367
     40          1           0       -4.089128    4.160579    0.013978
 ---------------------------------------------------------------------

 SCF Done:  E(RHF) =  -470.732907525     A.U. after   11 cycles
 E2 =    -0.1583023100D+01 EUMP2 =    -0.47231593062553D+03

 The electronic state is 1-A.
 Alpha  occ. eigenvalues --  -11.21672 -11.21634 -11.21593 -11.21457 -11.21453
 Alpha  occ. eigenvalues --  -11.21392 -11.21377 -11.21309 -11.21111 -11.21097
 Alpha  occ. eigenvalues --  -11.21066 -11.21022  -1.08482  -1.08391  -1.03590
 Alpha  occ. eigenvalues --   -1.03481  -0.96035  -0.95943  -0.87064  -0.86950
 Alpha  occ. eigenvalues --   -0.79701  -0.79501  -0.78294  -0.78200  -0.65173
 Alpha  occ. eigenvalues --   -0.64981  -0.61110  -0.60786  -0.59428  -0.59280
 Alpha  occ. eigenvalues --   -0.57643  -0.57552  -0.55373  -0.55198  -0.52756
 Alpha  occ. eigenvalues --   -0.52620  -0.52450  -0.52365  -0.50096  -0.49813
 Alpha  occ. eigenvalues --   -0.47964  -0.47859  -0.46828  -0.46418  -0.45868
 Alpha  occ. eigenvalues --   -0.45765  -0.45719  -0.45566  -0.43817  -0.43734
 Alpha virt. eigenvalues --    0.20982   0.23210   0.23836   0.24333   0.26171
 Alpha virt. eigenvalues --    0.26938   0.27002   0.27199   0.28049   0.29329
 Alpha virt. eigenvalues --    0.31089   0.31436   0.31590   0.31851   0.32073

 Mulliken charges:
               1
     1  C   -0.298327
     2  C   -0.299697
     3  C   -0.475736
     4  H    0.149514
     5  H    0.149709
     6  H    0.151942
     7  H    0.152062
     8  H    0.155264
     9  H    0.155184
    10  H    0.160378
    11  C   -0.298570
    12  C   -0.300876
    13  C   -0.480085
    14  H    0.149662
    15  H    0.150023
    16  H    0.151606
    17  H    0.152608
    18  H    0.156007
    19  H    0.157606
    20  H    0.162804
    21  C   -0.297418
    22  C   -0.309560
    23  C   -0.475587
    24  H    0.149321
    25  H    0.148591
    26  H    0.151007
    27  H    0.164037
    28  H    0.154123
    29  H    0.155010
    30  H    0.160279
    31  C   -0.299288
    32  C   -0.299546
    33  C   -0.475696
    34  H    0.149483
    35  H    0.149939
    36  H    0.152070
    37  H    0.151662
    38  H    0.155090
    39  H    0.155201
    40  H    0.160202
 Sum of Mulliken charges =  -0.00000

 Dipole moment (field-independent basis, Debye):
    X=              0.0480    Y=             -0.0114    Z=              0.0310  Tot=              0.0583
 Quadrupole moment (field-independent basis, Debye-Ang):
   XX=            -84.2894   YY=            -86.2828   ZZ=            -84.2895
   XY=             -0.5961   XZ=              0.2491   YZ=             -0.6322

 Normal termination of Gaussian 16 at Thu May  6 03:45:01 2021.
