 Gaussian 16, Revision A.03,
 Gaussian 16:  EM64L-G16RevA.03 25-Dec-2016

 -------------
 #p 6-31g* mp2
 -------------

 ------------------------------------------------------
 Input file generated by CHIRIPA (05-May-2021 14:51:07)
 ------------------------------------------------------
 Symbolic Z-matrix:
 Charge =  0 Multiplicity = 1

                         Standard orientation:
 ---------------------------------------------------------------------
 Center     Atomic      Atomic             Coordinates (Angstroms)
 Number     Number       Type             X           Y           Z
 ---------------------------------------------------------------------
      1          6           0       -2.404041    1.188246   -0.405047
      2          6           0       -2.110089    2.572043    0.175196
      3          6           0       -1.197563    3.407937   -0.722786
      4          1           0       -1.456470    0.655706   -0.564591
      5          1           0       -2.867875    1.304143   -1.394401
      6          1           0       -1.648211    2.453587    1.163758
      7          1           0       -3.058481    3.101278    0.333555
      8          1           0       -1.655218    3.555615   -1.706323
      9          1           0       -0.236935    2.904244   -0.871404
     10          1           0       -1.000469    4.393214   -0.288917
     11          6           0       -3.315031    0.340723    0.481254
     12          6           0       -3.608984   -1.043074   -0.098989
     13          6           0       -4.521510   -1.878968    0.798993
     14          1           0       -2.851198    0.224826    1.470608
     15          1           0       -4.262603    0.873263    0.640797
     16          1           0       -2.660591   -1.572309   -0.257349
     17          1           0       -4.070861   -0.924618   -1.087551
     18          1           0       -5.482138   -1.375275    0.947610
     19          1           0       -4.063855   -2.026646    1.782530
     20          1           0       -4.718603   -2.864245    0.365123
     21          6           0        3.169511   -0.159507    0.310249
     22          6           0        4.660707    0.010357    0.017905
     23          6           0        5.266518    1.224945    0.721868
     24          1           0        2.635802    0.749486    0.000683
     25          1           0        3.024056   -0.253135    1.395363
     26          1           0        4.803444    0.102250   -1.066437
     27          1           0        5.190903   -0.899221    0.328027
     28          1           0        5.153421    1.137219    1.807277
     29          1           0        4.763762    2.144381    0.404890
     30          1           0        6.333163    1.327427    0.499095
     31          6           0        2.549562   -1.369462   -0.386456
     32          6           0        1.058366   -1.539326   -0.094112
     33          6           0        0.452555   -2.753915   -0.798074
     34          1           0        2.695017   -1.275834   -1.471570
     35          1           0        3.083270   -2.278455   -0.076891
     36          1           0        0.528170   -0.629747   -0.404234
     37          1           0        0.915629   -1.631219    0.990230
     38          1           0        0.955311   -3.673350   -0.481097
     39          1           0        0.565651   -2.666188   -1.883484
     40          1           0       -0.614090   -2.856395   -0.575302
 ---------------------------------------------------------------------

 SCF Done:  E(RHF) =  -470.732951120     A.U. after   11 cycles
 E2 =    -0.1583965187D+01 EUMP2 =    -0.47231691630699D+03

 The electronic state is 1-A.
 Alpha  occ. eigenvalues --  -11.21673 -11.21636 -11.21598 -11.21581 -11.21461
 Alpha  occ. eigenvalues --  -11.21402 -11.21384 -11.21323 -11.21125 -11.21097
 Alpha  occ. eigenvalues --  -11.21094 -11.21067  -1.08494  -1.08415  -1.03586
 Alpha  occ. eigenvalues --   -1.03527  -0.96030  -0.95978  -0.87058  -0.86984
 Alpha  occ. eigenvalues --   -0.79685  -0.79562  -0.78356  -0.78189  -0.65220
 Alpha  occ. eigenvalues --   -0.64979  -0.61005  -0.60929  -0.59448  -0.59299
 Alpha  occ. eigenvalues --   -0.57645  -0.57590  -0.55347  -0.55241  -0.52756
 Alpha  occ. eigenvalues --   -0.52662  -0.52495  -0.52372  -0.50028  -0.49877
 Alpha  occ. eigenvalues --   -0.48090  -0.47808  -0.46829  -0.46556  -0.46040
 Alpha  occ. eigenvalues --   -0.45797  -0.45738  -0.45321  -0.43825  -0.43773
 Alpha virt. eigenvalues --    0.20160   0.22588   0.23518   0.24364   0.25813
 Alpha virt. eigenvalues --    0.26792   0.27015   0.27415   0.27760   0.29532
 Alpha virt. eigenvalues --    0.30184   0.31548   0.31620   0.31916   0.32252

 Mulliken charges:
               1
     1  C   -0.307499
     2  C   -0.299190
     3  C   -0.475725
     4  H    0.158328
     5  H    0.149359
     6  H    0.152263
     7  H    0.152006
     8  H    0.155267
     9  H    0.153975
    10  H    0.160483
    11  C   -0.297071
    12  C   -0.308002
    13  C   -0.475392
    14  H    0.149581
    15  H    0.149615
    16  H    0.159202
    17  H    0.152001
    18  H    0.155306
    19  H    0.155055
    20  H    0.160131
    21  C   -0.298449
    22  C   -0.299720
    23  C   -0.475806
    24  H    0.149174
    25  H    0.149597
    26  H    0.152138
    27  H    0.152090
    28  H    0.155185
    29  H    0.155408
    30  H    0.160419
    31  C   -0.297495
    32  C   -0.307782
    33  C   -0.481124
    34  H    0.149834
    35  H    0.150026
    36  H    0.158369
    37  H    0.151732
    38  H    0.155777
    39  H    0.155766
    40  H    0.165164
 Sum of Mulliken charges =  -0.00000

 Dipole moment (field-independent basis, Debye):
    X=              0.0201    Y=             -0.0140    Z=             -0.0017  Tot=              0.0246
 Quadrupole moment (field-independent basis, Debye-Ang):
   XX=            -84.8129   YY=            -85.5222   ZZ=            -84.3698
   XY=             -1.4258   XZ=              0.6765   YZ=             -0.6213

 Normal termination of Gaussian 16 at Wed May  5 16:33:37 2021.
