 Gaussian 16, Revision A.03,
 Gaussian 16:  EM64L-G16RevA.03 25-Dec-2016

 -------------
 #p 6-31g* mp2
 -------------

 ------------------------------------------------------
 Input file generated by CHIRIPA (05-May-2021 14:51:12)
 ------------------------------------------------------
 Symbolic Z-matrix:
 Charge =  0 Multiplicity = 1

                         Standard orientation:
 ---------------------------------------------------------------------
 Center     Atomic      Atomic             Coordinates (Angstroms)
 Number     Number       Type             X           Y           Z
 ---------------------------------------------------------------------
      1          6           0       -3.280135    0.386208   -0.083256
      2          6           0       -4.609542   -0.255191   -0.482342
      3          6           0       -5.387410    0.580575   -1.499303
      4          1           0       -3.472181    1.385307    0.331309
      5          1           0       -2.667382    0.533770   -0.983341
      6          1           0       -5.219045   -0.402768    0.418404
      7          1           0       -4.414325   -1.252956   -0.895828
      8          1           0       -4.801844    0.717061   -2.414227
      9          1           0       -5.611137    1.572080   -1.092527
     10          1           0       -6.334379    0.103583   -1.770574
     11          6           0       -2.490959   -0.437502    0.932831
     12          6           0       -1.161552    0.203896    1.331917
     13          6           0       -0.383684   -0.631870    2.348878
     14          1           0       -3.103712   -0.585065    1.832916
     15          1           0       -2.298913   -1.436601    0.518266
     16          1           0       -1.356769    1.201661    1.745403
     17          1           0       -0.552049    0.351474    0.431171
     18          1           0       -0.159958   -1.623374    1.942103
     19          1           0       -0.969250   -0.768356    3.263802
     20          1           0        0.563285   -0.154878    2.620149
     21          6           0        2.513315   -0.596282   -0.665783
     22          6           0        3.239334   -1.901872   -0.339723
     23          6           0        2.482252   -3.137195   -0.828191
     24          1           0        1.512615   -0.617655   -0.212918
     25          1           0        2.363350   -0.529729   -1.752280
     26          1           0        3.389114   -1.965290    0.745708
     27          1           0        4.238493   -1.877308   -0.793258
     28          1           0        2.345326   -3.100827   -1.913792
     29          1           0        1.491121   -3.189309   -0.366082
     30          1           0        3.019037   -4.059371   -0.584651
     31          6           0        3.257779    0.647577   -0.183791
     32          6           0        2.531761    1.953167   -0.509852
     33          6           0        3.288843    3.188489   -0.021384
     34          1           0        3.407744    0.581023    0.902706
     35          1           0        4.258479    0.668950   -0.636658
     36          1           0        1.532602    1.928603   -0.056318
     37          1           0        2.381980    2.016586   -1.595283
     38          1           0        4.279974    3.240603   -0.483493
     39          1           0        3.425768    3.152121    1.064216
     40          1           0        2.752057    4.110666   -0.264924
 ---------------------------------------------------------------------

 SCF Done:  E(RHF) =  -470.732979389     A.U. after   11 cycles
 E2 =    -0.1584109389D+01 EUMP2 =    -0.47231708877810D+03

 The electronic state is 1-A.
 Alpha  occ. eigenvalues --  -11.21663 -11.21619 -11.21586 -11.21576 -11.21447
 Alpha  occ. eigenvalues --  -11.21382 -11.21379 -11.21311 -11.21186 -11.21091
 Alpha  occ. eigenvalues --  -11.21082 -11.21060  -1.08496  -1.08400  -1.03590
 Alpha  occ. eigenvalues --   -1.03519  -0.96047  -0.95962  -0.87052  -0.86987
 Alpha  occ. eigenvalues --   -0.79668  -0.79575  -0.78367  -0.78160  -0.65318
 Alpha  occ. eigenvalues --   -0.64889  -0.61042  -0.60867  -0.59415  -0.59326
 Alpha  occ. eigenvalues --   -0.57669  -0.57561  -0.55392  -0.55190  -0.52729
 Alpha  occ. eigenvalues --   -0.52667  -0.52462  -0.52393  -0.49980  -0.49915
 Alpha  occ. eigenvalues --   -0.48021  -0.47897  -0.46808  -0.46605  -0.46068
 Alpha  occ. eigenvalues --   -0.45792  -0.45735  -0.45233  -0.43830  -0.43768
 Alpha virt. eigenvalues --    0.19822   0.22919   0.23428   0.24423   0.25962
 Alpha virt. eigenvalues --    0.26578   0.26614   0.27645   0.28200   0.29663
 Alpha virt. eigenvalues --    0.30363   0.31446   0.31730   0.31923   0.32423

 Mulliken charges:
               1
     1  C   -0.298592
     2  C   -0.299722
     3  C   -0.475756
     4  H    0.149703
     5  H    0.150117
     6  H    0.151931
     7  H    0.152117
     8  H    0.155326
     9  H    0.155186
    10  H    0.160333
    11  C   -0.297688
    12  C   -0.309113
    13  C   -0.478020
    14  H    0.149776
    15  H    0.149576
    16  H    0.152418
    17  H    0.159568
    18  H    0.155569
    19  H    0.156503
    20  H    0.160543
    21  C   -0.308243
    22  C   -0.298910
    23  C   -0.476349
    24  H    0.160883
    25  H    0.148595
    26  H    0.152407
    27  H    0.151860
    28  H    0.155090
    29  H    0.154606
    30  H    0.160492
    31  C   -0.297746
    32  C   -0.304919
    33  C   -0.475448
    34  H    0.149174
    35  H    0.149626
    36  H    0.157235
    37  H    0.151501
    38  H    0.155153
    39  H    0.154973
    40  H    0.160247
 Sum of Mulliken charges =  -0.00000

 Dipole moment (field-independent basis, Debye):
    X=             -0.0325    Y=              0.0047    Z=              0.0098  Tot=              0.0343
 Quadrupole moment (field-independent basis, Debye-Ang):
   XX=            -85.0111   YY=            -85.7944   ZZ=            -84.0099
   XY=             -0.3134   XZ=             -1.4071   YZ=              0.4025

 Normal termination of Gaussian 16 at Wed May  5 21:31:28 2021.
