 Gaussian 16, Revision A.03,
 Gaussian 16:  EM64L-G16RevA.03 25-Dec-2016

 -------------
 #p 6-31g* mp2
 -------------

 ------------------------------------------------------
 Input file generated by CHIRIPA (05-May-2021 14:55:21)
 ------------------------------------------------------
 Symbolic Z-matrix:
 Charge =  0 Multiplicity = 1

                         Standard orientation:
 ---------------------------------------------------------------------
 Center     Atomic      Atomic             Coordinates (Angstroms)
 Number     Number       Type             X           Y           Z
 ---------------------------------------------------------------------
      1          6           0        3.520696    2.486103   -0.174509
      2          6           0        3.186223    2.024426    1.102794
      3          6           0        2.874621    0.677686    1.311945
      4          6           0        2.907473   -0.183631    0.216344
      5          6           0        3.236853    0.246018   -1.068258
      6          6           0        3.544901    1.596994   -1.254055
      7          1           0        3.761375    3.533928   -0.327912
      8          1           0        3.166617    2.712652    1.943035
      9          1           0        2.612274    0.293508    2.290209
     10          1           0        3.247884   -0.463941   -1.886337
     11          1           0        3.804300    1.952733   -2.247134
     12          7           0        2.579476   -1.611606    0.425401
     13          8           0        2.615607   -2.350248   -0.556301
     14          8           0        2.292471   -1.965171    1.567004
     15          6           0       -3.125655    0.070577   -0.582616
     16          6           0       -2.128564   -1.082312   -0.461616
     17          6           0       -0.802790   -0.793706   -1.166471
     18          1           0       -3.311158    0.276462   -1.645700
     19          1           0       -2.676101    0.980637   -0.161799
     20          1           0       -2.580391   -1.990249   -0.881283
     21          1           0       -1.945560   -1.285602    0.601304
     22          1           0       -0.327054    0.096653   -0.742752
     23          1           0       -0.965493   -0.611997   -2.233763
     24          1           0       -0.104864   -1.630930   -1.067400
     25          6           0       -4.455865   -0.202972    0.116982
     26          6           0       -5.452957    0.949917   -0.004018
     27          6           0       -6.778731    0.661312    0.700837
     28          1           0       -4.905419   -1.113032   -0.303835
     29          1           0       -4.270361   -0.408856    1.180065
     30          1           0       -5.635961    1.153208   -1.066939
     31          1           0       -5.001129    1.857854    0.415648
     32          1           0       -6.616028    0.479602    1.768128
     33          1           0       -7.254466   -0.229047    0.277118
     34          1           0       -7.476657    1.498536    0.601766
 ---------------------------------------------------------------------

 SCF Done:  E(RHF) =  -669.536138210     A.U. after   15 cycles
 E2 =    -0.2091989615D+01 EUMP2 =    -0.67162812782533D+03

 The electronic state is 1-A.
 Alpha  occ. eigenvalues --  -20.60882 -20.60866 -15.85893 -11.31216 -11.27787
 Alpha  occ. eigenvalues --  -11.27772 -11.27525 -11.26797 -11.26782 -11.21442
 Alpha  occ. eigenvalues --  -11.21150 -11.21123 -11.21057 -11.20931 -11.20530
 Alpha  occ. eigenvalues --   -1.59933  -1.39490  -1.19389  -1.08793  -1.08141
 Alpha  occ. eigenvalues --   -1.04786  -1.03216  -0.95680  -0.95633  -0.86703
 Alpha  occ. eigenvalues --   -0.86185  -0.82473  -0.79294  -0.77951  -0.77525
 Alpha  occ. eigenvalues --   -0.72127  -0.71256  -0.70499  -0.65045  -0.64792
 Alpha  occ. eigenvalues --   -0.64777  -0.62134  -0.60624  -0.59026  -0.57266
 Alpha  occ. eigenvalues --   -0.55295  -0.54996  -0.53136  -0.52879  -0.52345
 Alpha  occ. eigenvalues --   -0.52078  -0.49635  -0.48890  -0.48884  -0.47602
 Alpha  occ. eigenvalues --   -0.46332  -0.45492  -0.45422  -0.44923  -0.43404
 Alpha  occ. eigenvalues --   -0.37348  -0.36383
 Alpha virt. eigenvalues --    0.04981   0.11250   0.16466   0.21389   0.23120
 Alpha virt. eigenvalues --    0.24587   0.26902   0.27290   0.27769   0.27997
 Alpha virt. eigenvalues --    0.28426   0.30889   0.31585   0.32060   0.32239

 Mulliken charges:
               1
     1  C   -0.170737
     2  C   -0.218787
     3  C   -0.171920
     4  C    0.160929
     5  C   -0.169835
     6  C   -0.218656
     7  H    0.225711
     8  H    0.223442
     9  H    0.275480
    10  H    0.276154
    11  H    0.223704
    12  N    0.488487
    13  O   -0.459595
    14  O   -0.458977
    15  C   -0.297605
    16  C   -0.298897
    17  C   -0.490141
    18  H    0.147897
    19  H    0.146410
    20  H    0.153391
    21  H    0.155382
    22  H    0.149374
    23  H    0.151475
    24  H    0.178519
    25  C   -0.298120
    26  C   -0.299158
    27  C   -0.475528
    28  H    0.150193
    29  H    0.150114
    30  H    0.151183
    31  H    0.150216
    32  H    0.155203
    33  H    0.155583
    34  H    0.159112
 Sum of Mulliken charges =  -0.00000

 Dipole moment (field-independent basis, Debye):
    X=              1.2856    Y=              4.9371    Z=             -0.7116  Tot=              5.1511
 Quadrupole moment (field-independent basis, Debye-Ang):
   XX=            -89.8722   YY=            -96.7836   ZZ=            -89.8632
   XY=             14.7590   XZ=             -2.0775   YZ=              2.6211

 Normal termination of Gaussian 16 at Wed May  5 20:35:36 2021.
