 Gaussian 16, Revision A.03,
 Gaussian 16:  EM64L-G16RevA.03 25-Dec-2016

 -------------
 #p 6-31g* mp2
 -------------

 ------------------------------------------------------
 Input file generated by CHIRIPA (05-May-2021 14:55:19)
 ------------------------------------------------------
 Symbolic Z-matrix:
 Charge =  0 Multiplicity = 1

                         Standard orientation:
 ---------------------------------------------------------------------
 Center     Atomic      Atomic             Coordinates (Angstroms)
 Number     Number       Type             X           Y           Z
 ---------------------------------------------------------------------
      1          6           0        3.331802   -0.191869   -1.619086
      2          6           0        2.747160   -1.424153   -1.308941
      3          6           0        1.891948   -1.547726   -0.209900
      4          6           0        1.642202   -0.413382    0.560931
      5          6           0        2.209473    0.828076    0.277602
      6          6           0        3.061569    0.928338   -0.826222
      7          1           0        3.994941   -0.104928   -2.474705
      8          1           0        2.955223   -2.295808   -1.922921
      9          1           0        1.425905   -2.489628    0.052858
     10          1           0        1.983066    1.679195    0.908279
     11          1           0        3.514202    1.886613   -1.064710
     12          7           0        0.738476   -0.531864    1.726968
     13          8           0        0.534489    0.482514    2.390341
     14          8           0        0.251235   -1.636865    1.955455
     15          6           0       -1.811909    1.053951   -0.695620
     16          6           0       -1.973645    2.356654    0.088468
     17          6           0       -1.004955    3.446994   -0.370433
     18          1           0       -0.778501    0.696170   -0.590706
     19          1           0       -1.965680    1.256095   -1.764679
     20          1           0       -1.820979    2.151853    1.155879
     21          1           0       -3.006838    2.711274   -0.018167
     22          1           0       -1.160689    3.680157   -1.428725
     23          1           0        0.031908    3.117559   -0.248008
     24          1           0       -1.137819    4.369494    0.203330
     25          6           0       -2.773427   -0.045683   -0.248390
     26          6           0       -2.611690   -1.348385   -1.032478
     27          6           0       -3.580380   -2.438726   -0.573577
     28          1           0       -2.619655   -0.247826    0.820669
     29          1           0       -3.806834    0.312098   -0.353303
     30          1           0       -1.578497   -1.703005   -0.925843
     31          1           0       -2.764356   -1.143584   -2.099889
     32          1           0       -4.617243   -2.109290   -0.696002
     33          1           0       -3.424646   -2.671889    0.484715
     34          1           0       -3.447517   -3.361225   -1.147340
 ---------------------------------------------------------------------

 SCF Done:  E(RHF) =  -669.535699006     A.U. after   15 cycles
 E2 =    -0.2095754996D+01 EUMP2 =    -0.67163145400172D+03

 The electronic state is 1-A.
 Alpha  occ. eigenvalues --  -20.61057 -20.61052 -15.86059 -11.31337 -11.27906
 Alpha  occ. eigenvalues --  -11.27890 -11.27624 -11.26911 -11.26901 -11.21100
 Alpha  occ. eigenvalues --  -11.21003 -11.20894 -11.20852 -11.20700 -11.20498
 Alpha  occ. eigenvalues --   -1.60102  -1.39658  -1.19526  -1.08931  -1.07895
 Alpha  occ. eigenvalues --   -1.04909  -1.03033  -0.95777  -0.95516  -0.86535
 Alpha  occ. eigenvalues --   -0.86310  -0.82606  -0.79103  -0.77735  -0.77649
 Alpha  occ. eigenvalues --   -0.72286  -0.71472  -0.70621  -0.65173  -0.64912
 Alpha  occ. eigenvalues --   -0.64464  -0.62274  -0.60414  -0.58882  -0.57128
 Alpha  occ. eigenvalues --   -0.55408  -0.54821  -0.53283  -0.52992  -0.52220
 Alpha  occ. eigenvalues --   -0.51945  -0.49473  -0.49048  -0.49044  -0.47446
 Alpha  occ. eigenvalues --   -0.46113  -0.45284  -0.45144  -0.44986  -0.43283
 Alpha  occ. eigenvalues --   -0.37416  -0.36474
 Alpha virt. eigenvalues --    0.04777   0.10996   0.16271   0.20813   0.23137
 Alpha virt. eigenvalues --    0.24325   0.26450   0.26845   0.27926   0.28049
 Alpha virt. eigenvalues --    0.29089   0.30771   0.31090   0.32052   0.32472

 Mulliken charges:
               1
     1  C   -0.170422
     2  C   -0.217537
     3  C   -0.171939
     4  C    0.155614
     5  C   -0.171746
     6  C   -0.217165
     7  H    0.226510
     8  H    0.224419
     9  H    0.276320
    10  H    0.277092
    11  H    0.224822
    12  N    0.492644
    13  O   -0.459623
    14  O   -0.459688
    15  C   -0.301719
    16  C   -0.304169
    17  C   -0.474560
    18  H    0.146016
    19  H    0.145488
    20  H    0.169709
    21  H    0.149857
    22  H    0.151970
    23  H    0.145631
    24  H    0.160408
    25  C   -0.304324
    26  C   -0.297238
    27  C   -0.476892
    28  H    0.164992
    29  H    0.147694
    30  H    0.147883
    31  H    0.146955
    32  H    0.153217
    33  H    0.164144
    34  H    0.155637
 Sum of Mulliken charges =  -0.00000

 Dipole moment (field-independent basis, Debye):
    X=              3.2856    Y=              0.3303    Z=             -3.8860  Tot=              5.0995
 Quadrupole moment (field-independent basis, Debye-Ang):
   XX=            -84.6005   YY=            -91.4614   ZZ=            -99.4813
   XY=             -0.7531   XZ=             -5.0334   YZ=              3.1293

 Normal termination of Gaussian 16 at Thu May  6 12:24:07 2021.
