 Gaussian 16, Revision A.03,
 Gaussian 16:  EM64L-G16RevA.03 25-Dec-2016

 -------------
 #p 6-31g* mp2
 -------------

 ------------------------------------------------------
 Input file generated by CHIRIPA (05-May-2021 14:53:16)
 ------------------------------------------------------
 Symbolic Z-matrix:
 Charge =  0 Multiplicity = 1

                         Standard orientation:
 ---------------------------------------------------------------------
 Center     Atomic      Atomic             Coordinates (Angstroms)
 Number     Number       Type             X           Y           Z
 ---------------------------------------------------------------------
      1          6           0        2.926856    0.673398   -0.080563
      2          6           0        3.992922    1.769069   -0.049067
      3          6           0        3.475809    3.112031   -0.565635
      4          1           0        2.561318    0.555796   -1.109881
      5          1           0        2.065440    0.992195    0.522535
      6          1           0        4.852643    1.447708   -0.650915
      7          1           0        4.356101    1.883944    0.980263
      8          1           0        2.631960    3.458548    0.039713
      9          1           0        3.131323    3.019833   -1.600734
     10          1           0        4.254137    3.880851   -0.534317
     11          6           0        3.428682   -0.675059    0.432822
     12          6           0        2.362616   -1.770731    0.401326
     13          6           0        2.879728   -3.113692    0.917894
     14          1           0        4.290097   -0.993856   -0.170276
     15          1           0        3.794220   -0.557457    1.462141
     16          1           0        1.999436   -1.885605   -0.628004
     17          1           0        1.502894   -1.449370    1.003175
     18          1           0        3.224214   -3.021495    1.952993
     19          1           0        3.723577   -3.460209    0.312546
     20          1           0        2.101400   -3.882512    0.886576
     21          6           0       -3.382843    2.193293    0.727185
     22          6           0       -4.137928    1.023829    0.864012
     23          6           0       -3.649092   -0.196643    0.388581
     24          6           0       -2.395602   -0.211328   -0.221206
     25          6           0       -1.619500    0.936756   -0.372391
     26          6           0       -2.128251    2.146107    0.110507
     27          1           0       -3.770318    3.137065    1.099413
     28          1           0       -5.112586    1.057484    1.342505
     29          1           0       -4.212660   -1.117075    0.481394
     30          1           0       -0.651331    0.871702   -0.853884
     31          1           0       -1.539641    3.052748    0.002871
     32          7           0       -1.867552   -1.497499   -0.728476
     33          8           0       -0.760340   -1.483839   -1.261893
     34          8           0       -2.570877   -2.494909   -0.583054
 ---------------------------------------------------------------------

 SCF Done:  E(RHF) =  -669.536004361     A.U. after   15 cycles
 E2 =    -0.2092076121D+01 EUMP2 =    -0.67162808048128D+03

 The electronic state is 1-A.
 Alpha  occ. eigenvalues --  -20.60859 -20.60831 -15.85879 -11.31212 -11.27784
 Alpha  occ. eigenvalues --  -11.27755 -11.27524 -11.26795 -11.26779 -11.21587
 Alpha  occ. eigenvalues --  -11.21284 -11.21250 -11.20880 -11.20566 -11.20211
 Alpha  occ. eigenvalues --   -1.59909  -1.39465  -1.19384  -1.08788  -1.08077
 Alpha  occ. eigenvalues --   -1.04780  -1.03107  -0.95636  -0.95621  -0.86651
 Alpha  occ. eigenvalues --   -0.86180  -0.82466  -0.79230  -0.77863  -0.77437
 Alpha  occ. eigenvalues --   -0.72107  -0.71221  -0.70491  -0.65042  -0.64786
 Alpha  occ. eigenvalues --   -0.64709  -0.62124  -0.60504  -0.59034  -0.57183
 Alpha  occ. eigenvalues --   -0.55288  -0.54947  -0.53115  -0.52873  -0.52307
 Alpha  occ. eigenvalues --   -0.52040  -0.49606  -0.48872  -0.48868  -0.47538
 Alpha  occ. eigenvalues --   -0.46284  -0.45526  -0.45200  -0.44631  -0.43374
 Alpha  occ. eigenvalues --   -0.37367  -0.36382
 Alpha virt. eigenvalues --    0.04996   0.11240   0.16474   0.20829   0.23129
 Alpha virt. eigenvalues --    0.24658   0.25832   0.26702   0.27717   0.28257
 Alpha virt. eigenvalues --    0.29359   0.30893   0.31820   0.31921   0.32604

 Mulliken charges:
               1
     1  C   -0.299973
     2  C   -0.298696
     3  C   -0.475502
     4  H    0.152646
     5  H    0.142449
     6  H    0.153940
     7  H    0.152005
     8  H    0.148306
     9  H    0.154509
    10  H    0.161248
    11  C   -0.298756
    12  C   -0.300362
    13  C   -0.476919
    14  H    0.148783
    15  H    0.146169
    16  H    0.174114
    17  H    0.146205
    18  H    0.149298
    19  H    0.152415
    20  H    0.165888
    21  C   -0.170616
    22  C   -0.218698
    23  C   -0.170743
    24  C    0.157555
    25  C   -0.173462
    26  C   -0.219652
    27  H    0.225709
    28  H    0.223491
    29  H    0.275552
    30  H    0.279939
    31  H    0.224169
    32  N    0.490121
    33  O   -0.460963
    34  O   -0.460168
 Sum of Mulliken charges =  -0.00000

 Dipole moment (field-independent basis, Debye):
    X=             -1.9501    Y=              4.3898    Z=              1.6619  Tot=              5.0828
 Quadrupole moment (field-independent basis, Debye-Ang):
   XX=            -82.8236   YY=            -97.1877   ZZ=            -95.1890
   XY=             -8.3792   XZ=             -6.2066   YZ=             -1.3492

 Normal termination of Gaussian 16 at Thu May  6 12:15:11 2021.
