 Gaussian 16, Revision A.03,
 Gaussian 16:  EM64L-G16RevA.03 25-Dec-2016

 -------------
 #p 6-31g* mp2
 -------------

 ------------------------------------------------------
 Input file generated by CHIRIPA (05-May-2021 14:51:13)
 ------------------------------------------------------
 Symbolic Z-matrix:
 Charge =  0 Multiplicity = 1

                         Standard orientation:
 ---------------------------------------------------------------------
 Center     Atomic      Atomic             Coordinates (Angstroms)
 Number     Number       Type             X           Y           Z
 ---------------------------------------------------------------------
      1          6           0        2.986372   -0.191102    0.062974
      2          6           0        1.956410   -1.178614   -0.486556
      3          6           0        0.516027   -0.728256   -0.241059
      4          1           0        2.820384   -0.059964    1.141026
      5          1           0        2.824692    0.792186   -0.400059
      6          1           0        2.120865   -2.160088   -0.023654
      7          1           0        2.124990   -1.307562   -1.563388
      8          1           0        0.328517    0.239537   -0.717313
      9          1           0        0.324368   -0.617833    0.831170
     10          1           0       -0.203731   -1.448757   -0.641918
     11          6           0        4.430951   -0.627455   -0.174758
     12          6           0        5.460913    0.360057    0.374772
     13          6           0        6.901296   -0.090301    0.129276
     14          1           0        4.592631   -1.610743    0.288276
     15          1           0        4.596939   -0.758593   -1.252809
     16          1           0        5.292332    0.489005    1.451605
     17          1           0        5.296458    1.341531   -0.088129
     18          1           0        7.092955   -0.200724   -0.942953
     19          1           0        7.088805   -1.058094    0.605530
     20          1           0        7.621053    0.630200    0.530134
     21          6           0       -4.304512   -0.004710   -0.182871
     22          6           0       -4.413713   -1.364568    0.507669
     23          6           0       -5.610662   -2.181091    0.019406
     24          1           0       -5.230460    0.561403   -0.012339
     25          1           0       -4.227027   -0.157605   -1.268234
     26          1           0       -4.489576   -1.209209    1.591516
     27          1           0       -3.487321   -1.927434    0.335635
     28          1           0       -5.537824   -2.365382   -1.057317
     29          1           0       -6.545774   -1.643077    0.205701
     30          1           0       -5.669635   -3.149406    0.526111
     31          6           0       -3.112811    0.823267    0.294654
     32          6           0       -3.003609    2.183125   -0.395885
     33          6           0       -1.806662    2.999648    0.092377
     34          1           0       -3.190295    0.976162    1.380018
     35          1           0       -2.186862    0.257154    0.124123
     36          1           0       -3.930001    2.745991   -0.223852
     37          1           0       -2.927746    2.027766   -1.479733
     38          1           0       -0.871548    2.461633   -0.093916
     39          1           0       -1.879498    3.183939    1.169101
     40          1           0       -1.747688    3.967962   -0.414328
 ---------------------------------------------------------------------

 SCF Done:  E(RHF) =  -470.732930686     A.U. after   11 cycles
 E2 =    -0.1583324564D+01 EUMP2 =    -0.47231625525069D+03

 The electronic state is 1-A.
 Alpha  occ. eigenvalues --  -11.21667 -11.21621 -11.21541 -11.21508 -11.21446
 Alpha  occ. eigenvalues --  -11.21385 -11.21290 -11.21191 -11.21172 -11.21086
 Alpha  occ. eigenvalues --  -11.21028 -11.20993  -1.08478  -1.08329  -1.03592
 Alpha  occ. eigenvalues --   -1.03450  -0.96049  -0.95897  -0.87080  -0.86912
 Alpha  occ. eigenvalues --   -0.79705  -0.79488  -0.78310  -0.78098  -0.65112
 Alpha  occ. eigenvalues --   -0.64964  -0.61026  -0.60825  -0.59419  -0.59271
 Alpha  occ. eigenvalues --   -0.57655  -0.57502  -0.55361  -0.55163  -0.52792
 Alpha  occ. eigenvalues --   -0.52601  -0.52479  -0.52305  -0.50012  -0.49815
 Alpha  occ. eigenvalues --   -0.48092  -0.47754  -0.46711  -0.46502  -0.45950
 Alpha  occ. eigenvalues --   -0.45750  -0.45650  -0.45432  -0.43795  -0.43689
 Alpha virt. eigenvalues --    0.21278   0.22959   0.23641   0.24558   0.25716
 Alpha virt. eigenvalues --    0.26340   0.27170   0.27213   0.28005   0.29397
 Alpha virt. eigenvalues --    0.30157   0.31113   0.31754   0.31892   0.32337

 Mulliken charges:
               1
     1  C   -0.298537
     2  C   -0.300736
     3  C   -0.481027
     4  H    0.150050
     5  H    0.149507
     6  H    0.152340
     7  H    0.152067
     8  H    0.158336
     9  H    0.157398
    10  H    0.160029
    11  C   -0.298365
    12  C   -0.299683
    13  C   -0.475742
    14  H    0.149636
    15  H    0.149694
    16  H    0.152080
    17  H    0.152094
    18  H    0.155193
    19  H    0.155202
    20  H    0.160383
    21  C   -0.297440
    22  C   -0.299894
    23  C   -0.475610
    24  H    0.149075
    25  H    0.148832
    26  H    0.151750
    27  H    0.151782
    28  H    0.154965
    29  H    0.155138
    30  H    0.159938
    31  C   -0.310574
    32  C   -0.298704
    33  C   -0.479363
    34  H    0.148132
    35  H    0.166852
    36  H    0.151430
    37  H    0.150968
    38  H    0.158193
    39  H    0.155033
    40  H    0.159579
 Sum of Mulliken charges =  -0.00000

 Dipole moment (field-independent basis, Debye):
    X=              0.0703    Y=             -0.0271    Z=              0.0083  Tot=              0.0758
 Quadrupole moment (field-independent basis, Debye-Ang):
   XX=            -86.5525   YY=            -85.0453   ZZ=            -83.5168
   XY=             -0.5690   XZ=             -0.5232   YZ=             -0.3388

 Normal termination of Gaussian 16 at Wed May  5 15:21:47 2021.
