 Gaussian 16, Revision A.03,
 Gaussian 16:  EM64L-G16RevA.03 25-Dec-2016

 -------------
 #p 6-31g* mp2
 -------------

 ------------------------------------------------------
 Input file generated by CHIRIPA (05-May-2021 14:51:13)
 ------------------------------------------------------
 Symbolic Z-matrix:
 Charge =  0 Multiplicity = 1

                         Standard orientation:
 ---------------------------------------------------------------------
 Center     Atomic      Atomic             Coordinates (Angstroms)
 Number     Number       Type             X           Y           Z
 ---------------------------------------------------------------------
      1          6           0       -2.889699   -0.593990    0.533403
      2          6           0       -1.628322   -1.065814   -0.190680
      3          6           0       -0.429785   -1.215995    0.746736
      4          1           0       -2.684675    0.366590    1.025539
      5          1           0       -3.134642   -1.308196    1.331719
      6          1           0       -1.386619   -0.351659   -0.988288
      7          1           0       -1.836429   -2.025288   -0.681308
      8          1           0       -0.646373   -1.943798    1.535401
      9          1           0       -0.194007   -0.260660    1.226678
     10          1           0        0.461078   -1.554177    0.208354
     11          6           0       -4.096456   -0.439109   -0.390435
     12          6           0       -5.357833    0.032715    0.333649
     13          6           0       -6.556370    0.182896   -0.603767
     14          1           0       -3.851513    0.275097   -1.188750
     15          1           0       -4.301480   -1.399689   -0.882570
     16          1           0       -5.149726    0.992189    0.824277
     17          1           0       -5.599536   -0.681440    1.131257
     18          1           0       -6.792147   -0.772439   -1.083709
     19          1           0       -6.339781    0.910699   -1.392432
     20          1           0       -7.447233    0.521078   -0.065385
     21          6           0        2.921357    0.901822   -0.400320
     22          6           0        2.127816    1.764474    0.581571
     23          6           0        0.987442    2.529097   -0.091251
     24          1           0        3.326432    1.541671   -1.196217
     25          1           0        2.239328    0.191149   -0.887326
     26          1           0        2.811386    2.472380    1.067594
     27          1           0        1.724744    1.122524    1.375327
     28          1           0        0.282913    1.835226   -0.561127
     29          1           0        1.375730    3.192750   -0.870608
     30          1           0        0.433408    3.139270    0.628885
     31          6           0        4.064798    0.131278    0.257351
     32          6           0        4.858339   -0.731374   -0.724540
     33          6           0        5.998713   -1.495998   -0.051717
     34          1           0        4.746827    0.841950    0.744358
     35          1           0        3.659722   -0.508573    1.053248
     36          1           0        5.261412   -0.089425   -1.518295
     37          1           0        4.174769   -1.439280   -1.210563
     38          1           0        5.610426   -2.159652    0.727640
     39          1           0        6.703242   -0.802126    0.418158
     40          1           0        6.552747   -2.106171   -0.771854
 ---------------------------------------------------------------------

 SCF Done:  E(RHF) =  -470.732708411     A.U. after   11 cycles
 E2 =    -0.1583973796D+01 EUMP2 =    -0.47231668220775D+03

 The electronic state is 1-A.
 Alpha  occ. eigenvalues --  -11.21667 -11.21612 -11.21584 -11.21548 -11.21431
 Alpha  occ. eigenvalues --  -11.21370 -11.21365 -11.21305 -11.21112 -11.21081
 Alpha  occ. eigenvalues --  -11.21077 -11.21054  -1.08474  -1.08390  -1.03610
 Alpha  occ. eigenvalues --   -1.03473  -0.96030  -0.95954  -0.87056  -0.86964
 Alpha  occ. eigenvalues --   -0.79669  -0.79544  -0.78282  -0.78204  -0.65266
 Alpha  occ. eigenvalues --   -0.64918  -0.61319  -0.60588  -0.59401  -0.59314
 Alpha  occ. eigenvalues --   -0.57642  -0.57569  -0.55468  -0.55059  -0.52718
 Alpha  occ. eigenvalues --   -0.52660  -0.52475  -0.52352  -0.50064  -0.49812
 Alpha  occ. eigenvalues --   -0.48018  -0.47818  -0.46848  -0.46431  -0.45857
 Alpha  occ. eigenvalues --   -0.45768  -0.45709  -0.45567  -0.43811  -0.43761
 Alpha virt. eigenvalues --    0.19862   0.22754   0.23724   0.25032   0.26019
 Alpha virt. eigenvalues --    0.26243   0.26540   0.27750   0.28300   0.29540
 Alpha virt. eigenvalues --    0.30542   0.30581   0.31768   0.32136   0.32427

 Mulliken charges:
               1
     1  C   -0.298733
     2  C   -0.301937
     3  C   -0.482758
     4  H    0.150437
     5  H    0.149670
     6  H    0.153089
     7  H    0.152304
     8  H    0.155363
     9  H    0.161816
    10  H    0.161151
    11  C   -0.298381
    12  C   -0.299716
    13  C   -0.475747
    14  H    0.149784
    15  H    0.149636
    16  H    0.152140
    17  H    0.151893
    18  H    0.155156
    19  H    0.155322
    20  H    0.160306
    21  C   -0.300132
    22  C   -0.302310
    23  C   -0.480505
    24  H    0.149354
    25  H    0.151947
    26  H    0.151979
    27  H    0.155368
    28  H    0.158791
    29  H    0.155573
    30  H    0.159524
    31  C   -0.299121
    32  C   -0.299497
    33  C   -0.475699
    34  H    0.149440
    35  H    0.150643
    36  H    0.151886
    37  H    0.151366
    38  H    0.155283
    39  H    0.155173
    40  H    0.160144
 Sum of Mulliken charges =  -0.00000

 Dipole moment (field-independent basis, Debye):
    X=             -0.0213    Y=             -0.0080    Z=              0.0133  Tot=              0.0263
 Quadrupole moment (field-independent basis, Debye-Ang):
   XX=            -85.9988   YY=            -83.6890   ZZ=            -85.1424
   XY=              1.4134   XZ=             -0.9638   YZ=             -0.0342

 Normal termination of Gaussian 16 at Wed May  5 15:21:03 2021.
