 Gaussian 16, Revision A.03,
 Gaussian 16:  EM64L-G16RevA.03 25-Dec-2016

 -------------
 #p 6-31g* mp2
 -------------

 ------------------------------------------------------
 Input file generated by CHIRIPA (05-May-2021 14:53:17)
 ------------------------------------------------------
 Symbolic Z-matrix:
 Charge =  0 Multiplicity = 1

                         Standard orientation:
 ---------------------------------------------------------------------
 Center     Atomic      Atomic             Coordinates (Angstroms)
 Number     Number       Type             X           Y           Z
 ---------------------------------------------------------------------
      1          6           0       -2.487399    1.261880   -0.316069
      2          6           0       -1.492321    2.114926    0.471407
      3          6           0       -0.841666    3.203720   -0.382390
      4          1           0       -1.970917    0.801116   -1.169233
      5          1           0       -3.265829    1.913427   -0.736696
      6          1           0       -0.716766    1.461791    0.891578
      7          1           0       -2.011187    2.573560    1.322905
      8          1           0       -1.601046    3.878777   -0.790119
      9          1           0       -0.299270    2.760691   -1.223896
     10          1           0       -0.133984    3.801575    0.200375
     11          6           0       -3.146145    0.169044    0.523865
     12          6           0       -4.141223   -0.684002   -0.263611
     13          6           0       -4.791878   -1.772796    0.590186
     14          1           0       -2.367714   -0.482503    0.944492
     15          1           0       -3.662627    0.629808    1.377029
     16          1           0       -3.622357   -1.142636   -1.115109
     17          1           0       -4.916778   -0.030867   -0.683782
     18          1           0       -5.334274   -1.329766    1.431692
     19          1           0       -4.032498   -2.447852    0.997915
     20          1           0       -5.499560   -2.370651    0.007421
     21          6           0        1.082398   -2.792583   -0.436763
     22          6           0        2.329733   -2.726538    0.192772
     23          6           0        2.958599   -1.494404    0.395062
     24          6           0        2.308707   -0.343016   -0.046793
     25          6           0        1.065825   -0.376131   -0.677219
     26          6           0        0.455530   -1.619237   -0.868988
     27          1           0        0.601093   -3.753996   -0.589820
     28          1           0        2.818909   -3.636142    0.529481
     29          1           0        3.924129   -1.414432    0.879598
     30          1           0        0.602875    0.547803   -1.001935
     31          1           0       -0.513179   -1.667506   -1.358189
     32          7           0        2.964630    0.967197    0.161792
     33          8           0        2.371233    1.967053   -0.236712
     34          8           0        4.059718    0.969476    0.719836
 ---------------------------------------------------------------------

 SCF Done:  E(RHF) =  -669.534384409     A.U. after   15 cycles
 E2 =    -0.2095190636D+01 EUMP2 =    -0.67162957504523D+03

 The electronic state is 1-A.
 Alpha  occ. eigenvalues --  -20.60853 -20.60848 -15.85888 -11.31239 -11.27819
 Alpha  occ. eigenvalues --  -11.27773 -11.27559 -11.26825 -11.26813 -11.22169
 Alpha  occ. eigenvalues --  -11.21827 -11.21766 -11.21586 -11.21528 -11.20580
 Alpha  occ. eigenvalues --   -1.59922  -1.39476  -1.19423  -1.08822  -1.08786
 Alpha  occ. eigenvalues --   -1.04829  -1.03739  -0.96160  -0.95645  -0.87167
 Alpha  occ. eigenvalues --   -0.86223  -0.82486  -0.79813  -0.78579  -0.77552
 Alpha  occ. eigenvalues --   -0.72125  -0.71242  -0.70566  -0.65556  -0.65070
 Alpha  occ. eigenvalues --   -0.64852  -0.62272  -0.60927  -0.59552  -0.57738
 Alpha  occ. eigenvalues --   -0.55511  -0.55284  -0.53151  -0.52873  -0.52760
 Alpha  occ. eigenvalues --   -0.52556  -0.50182  -0.48873  -0.48821  -0.48086
 Alpha  occ. eigenvalues --   -0.46888  -0.46119  -0.46037  -0.44859  -0.43983
 Alpha  occ. eigenvalues --   -0.37397  -0.36389
 Alpha virt. eigenvalues --    0.04954   0.11132   0.16360   0.18920   0.22924
 Alpha virt. eigenvalues --    0.23737   0.25115   0.26824   0.27063   0.28356
 Alpha virt. eigenvalues --    0.30057   0.31048   0.31432   0.31719   0.32198

 Mulliken charges:
               1
     1  C   -0.298376
     2  C   -0.310576
     3  C   -0.472357
     4  H    0.134960
     5  H    0.153757
     6  H    0.154125
     7  H    0.155138
     8  H    0.149928
     9  H    0.154885
    10  H    0.175746
    11  C   -0.300623
    12  C   -0.299314
    13  C   -0.475539
    14  H    0.149656
    15  H    0.153661
    16  H    0.143487
    17  H    0.155248
    18  H    0.158280
    19  H    0.152801
    20  H    0.160774
    21  C   -0.170793
    22  C   -0.218982
    23  C   -0.169613
    24  C    0.154803
    25  C   -0.174226
    26  C   -0.225645
    27  H    0.226154
    28  H    0.223754
    29  H    0.275826
    30  H    0.289301
    31  H    0.226973
    32  N    0.489618
    33  O   -0.463084
    34  O   -0.459748
 Sum of Mulliken charges =  -0.00000

 Dipole moment (field-independent basis, Debye):
    X=             -2.2261    Y=             -4.4539    Z=             -0.6124  Tot=              5.0167
 Quadrupole moment (field-independent basis, Debye-Ang):
   XX=           -102.2682   YY=            -90.6572   ZZ=            -94.6982
   XY=            -12.9261   XZ=              0.1602   YZ=              0.0276

 Normal termination of Gaussian 16 at Wed May  5 18:48:47 2021.
