 Gaussian 16, Revision A.03,
 Gaussian 16:  EM64L-G16RevA.03 25-Dec-2016

 -------------
 #p 6-31g* mp2
 -------------

 ------------------------------------------------------
 Input file generated by CHIRIPA (05-May-2021 14:57:22)
 ------------------------------------------------------
 Symbolic Z-matrix:
 Charge =  0 Multiplicity = 1

                         Standard orientation:
 ---------------------------------------------------------------------
 Center     Atomic      Atomic             Coordinates (Angstroms)
 Number     Number       Type             X           Y           Z
 ---------------------------------------------------------------------
      1          6           0        3.388993    2.570413    0.368344
      2          6           0        4.530230    2.068983   -0.266216
      3          6           0        4.651616    0.701953   -0.532751
      4          6           0        3.607950   -0.138899   -0.149320
      5          6           0        2.458406    0.330353    0.484431
      6          6           0        2.358540    1.701030    0.740985
      7          1           0        3.303055    3.633771    0.571518
      8          1           0        5.332066    2.741814   -0.556739
      9          1           0        5.524094    0.286997   -1.022662
     10          1           0        1.675664   -0.365049    0.762188
     11          1           0        1.471083    2.087641    1.233934
     12          7           0        3.725066   -1.588043   -0.426205
     13          8           0        2.791607   -2.307989   -0.078397
     14          8           0        4.748101   -1.976497   -0.985793
     15          6           0       -1.576775   -1.108631    1.244221
     16          6           0       -2.630593   -1.929262    0.828830
     17          6           0       -3.750255   -1.381265    0.195895
     18          6           0       -3.783149   -0.002420   -0.006577
     19          6           0       -2.749137    0.841510    0.395781
     20          6           0       -1.639299    0.271702    1.026755
     21          1           0       -0.710810   -1.542800    1.735138
     22          1           0       -2.584756   -3.001579    0.996404
     23          1           0       -4.580146   -1.993351   -0.135839
     24          1           0       -2.823484    1.906954    0.214901
     25          1           0       -0.822362    0.911449    1.348289
     26          7           0       -4.963285    0.589265   -0.675598
     27          8           0       -4.968074    1.806978   -0.842297
     28          8           0       -5.861139   -0.175890   -1.020610
 ---------------------------------------------------------------------

 SCF Done:  E(RHF) =  -868.336806560     A.U. after   16 cycles
 E2 =    -0.2600479258D+01 EUMP2 =    -0.87093728581775D+03

 The electronic state is 1-A.
 Alpha  occ. eigenvalues --  -20.61490 -20.61461 -20.60976 -20.60962 -15.86535
 Alpha  occ. eigenvalues --  -15.86030 -11.31937 -11.31453 -11.28622 -11.28460
 Alpha  occ. eigenvalues --  -11.28241 -11.28117 -11.27989 -11.27808 -11.27641
 Alpha  occ. eigenvalues --  -11.27456 -11.27236 -11.26966  -1.60547  -1.60046
 Alpha  occ. eigenvalues --   -1.40103  -1.39598  -1.20116  -1.19645  -1.09491
 Alpha  occ. eigenvalues --   -1.09032  -1.05553  -1.05070  -0.96326  -0.95849
 Alpha  occ. eigenvalues --   -0.86938  -0.86482  -0.83183  -0.82688  -0.78248
 Alpha  occ. eigenvalues --   -0.77718  -0.72758  -0.72249  -0.71865  -0.71369
 Alpha  occ. eigenvalues --   -0.71241  -0.70728  -0.65794  -0.65602  -0.65311
 Alpha  occ. eigenvalues --   -0.65125  -0.62962  -0.62344  -0.56010  -0.55567
 Alpha  occ. eigenvalues --   -0.53841  -0.53694  -0.53354  -0.53147  -0.49520
 Alpha  occ. eigenvalues --   -0.49500  -0.49012  -0.48998  -0.45501  -0.44991
 Alpha  occ. eigenvalues --   -0.38064  -0.37622  -0.37139  -0.36651
 Alpha virt. eigenvalues --    0.04344   0.04819   0.10508   0.10919   0.15813
 Alpha virt. eigenvalues --    0.16255   0.17666   0.22334   0.24395   0.25279
 Alpha virt. eigenvalues --    0.27855   0.28945   0.30499   0.31448   0.33530

 Mulliken charges:
               1
     1  C   -0.169436
     2  C   -0.218321
     3  C   -0.168867
     4  C    0.158488
     5  C   -0.170526
     6  C   -0.221642
     7  H    0.228739
     8  H    0.226749
     9  H    0.278141
    10  H    0.269689
    11  H    0.218132
    12  N    0.488452
    13  O   -0.464380
    14  O   -0.456606
    15  C   -0.172832
    16  C   -0.217330
    17  C   -0.169646
    18  C    0.158835
    19  C   -0.170973
    20  C   -0.220901
    21  H    0.230673
    22  H    0.228884
    23  H    0.277652
    24  H    0.274392
    25  H    0.214179
    26  N    0.488198
    27  O   -0.461113
    28  O   -0.458629
 Sum of Mulliken charges =  -0.00000

 Dipole moment (field-independent basis, Debye):
    X=              3.8304    Y=              2.9082    Z=              3.2006  Tot=              5.7770
 Quadrupole moment (field-independent basis, Debye-Ang):
   XX=           -133.3425   YY=           -102.1656   ZZ=           -105.8753
   XY=             30.2311   XZ=             -7.6113   YZ=             -1.0081

 Normal termination of Gaussian 16 at Fri May  7 07:57:35 2021.
