 Gaussian 16, Revision A.03,
 Gaussian 16:  EM64L-G16RevA.03 25-Dec-2016

 -------------
 #p 6-31g* mp2
 -------------

 ------------------------------------------------------
 Input file generated by CHIRIPA (05-May-2021 14:51:12)
 ------------------------------------------------------
 Symbolic Z-matrix:
 Charge =  0 Multiplicity = 1

                         Standard orientation:
 ---------------------------------------------------------------------
 Center     Atomic      Atomic             Coordinates (Angstroms)
 Number     Number       Type             X           Y           Z
 ---------------------------------------------------------------------
      1          6           0        3.183898   -0.422183    0.407753
      2          6           0        2.568970   -1.598119   -0.351867
      3          6           0        2.644236   -2.910534    0.428963
      4          1           0        4.232600   -0.652396    0.640500
      5          1           0        2.667970   -0.306905    1.371041
      6          1           0        3.084986   -1.710277   -1.314033
      7          1           0        1.521664   -1.364999   -0.583001
      8          1           0        2.113076   -2.822641    1.382244
      9          1           0        3.685281   -3.169880    0.647058
     10          1           0        2.198983   -3.737815   -0.132479
     11          6           0        3.116235    0.896832   -0.359937
     12          6           0        3.731163    2.072768    0.399683
     13          6           0        3.655897    3.385184   -0.381147
     14          1           0        3.632163    0.781555   -1.323225
     15          1           0        2.067533    1.127046   -0.592685
     16          1           0        4.778468    1.839649    0.630817
     17          1           0        3.215147    2.184926    1.361849
     18          1           0        2.614852    3.644529   -0.599242
     19          1           0        4.187056    3.297290   -1.334429
     20          1           0        4.101150    4.212465    0.180294
     21          6           0       -3.322336    0.470465    0.205850
     22          6           0       -4.743662    0.898133   -0.161459
     23          6           0       -5.073375    2.316441    0.304895
     24          1           0       -3.195663    0.538600    1.295004
     25          1           0       -2.607956    1.178360   -0.236802
     26          1           0       -5.455087    0.188855    0.280600
     27          1           0       -4.867025    0.828788   -1.249848
     28          1           0       -4.386668    3.039807   -0.146521
     29          1           0       -4.978071    2.396239    1.392622
     30          1           0       -6.094155    2.601684    0.031940
     31          6           0       -2.977797   -0.945115   -0.253666
     32          6           0       -1.556471   -1.372783    0.113643
     33          6           0       -1.226758   -2.791091   -0.352710
     34          1           0       -3.692177   -1.653009    0.188986
     35          1           0       -3.104469   -1.013250   -1.342820
     36          1           0       -1.433107   -1.303438    1.202031
     37          1           0       -0.845046   -0.663505   -0.328416
     38          1           0       -1.322062   -2.870888   -1.440438
     39          1           0       -1.913464   -3.514457    0.098705
     40          1           0       -0.205978   -3.076334   -0.079754
 ---------------------------------------------------------------------

 SCF Done:  E(RHF) =  -470.732352180     A.U. after   11 cycles
 E2 =    -0.1584029261D+01 EUMP2 =    -0.47231638144065D+03

 The electronic state is 1-A.
 Alpha  occ. eigenvalues --  -11.21644 -11.21623 -11.21601 -11.21548 -11.21434
 Alpha  occ. eigenvalues --  -11.21401 -11.21374 -11.21339 -11.21095 -11.21090
 Alpha  occ. eigenvalues --  -11.21074 -11.20990  -1.08478  -1.08408  -1.03624
 Alpha  occ. eigenvalues --   -1.03466  -0.96081  -0.95908  -0.87070  -0.86947
 Alpha  occ. eigenvalues --   -0.79663  -0.79554  -0.78311  -0.78205  -0.65185
 Alpha  occ. eigenvalues --   -0.65000  -0.61179  -0.60871  -0.59617  -0.59094
 Alpha  occ. eigenvalues --   -0.57786  -0.57360  -0.55300  -0.55244  -0.52853
 Alpha  occ. eigenvalues --   -0.52556  -0.52440  -0.52259  -0.49938  -0.49929
 Alpha  occ. eigenvalues --   -0.47988  -0.47856  -0.46793  -0.46525  -0.45929
 Alpha  occ. eigenvalues --   -0.45787  -0.45742  -0.45489  -0.43860  -0.43711
 Alpha virt. eigenvalues --    0.20860   0.23161   0.23439   0.24828   0.25634
 Alpha virt. eigenvalues --    0.26722   0.27022   0.27383   0.28217   0.29083
 Alpha virt. eigenvalues --    0.30970   0.31344   0.31557   0.31708   0.32513

 Mulliken charges:
               1
     1  C   -0.297451
     2  C   -0.308873
     3  C   -0.480230
     4  H    0.149493
     5  H    0.149701
     6  H    0.151780
     7  H    0.162482
     8  H    0.155467
     9  H    0.157074
    10  H    0.160831
    11  C   -0.298665
    12  C   -0.299662
    13  C   -0.475696
    14  H    0.149527
    15  H    0.149171
    16  H    0.152017
    17  H    0.152131
    18  H    0.155053
    19  H    0.155127
    20  H    0.160306
    21  C   -0.298291
    22  C   -0.299670
    23  C   -0.475728
    24  H    0.149553
    25  H    0.149154
    26  H    0.152044
    27  H    0.152057
    28  H    0.155155
    29  H    0.155165
    30  H    0.160377
    31  C   -0.297841
    32  C   -0.302751
    33  C   -0.485471
    34  H    0.149845
    35  H    0.149879
    36  H    0.151619
    37  H    0.152876
    38  H    0.154665
    39  H    0.155240
    40  H    0.172539
 Sum of Mulliken charges =  -0.00000

 Dipole moment (field-independent basis, Debye):
    X=              0.0043    Y=             -0.0155    Z=              0.0037  Tot=              0.0165
 Quadrupole moment (field-independent basis, Debye-Ang):
   XX=            -84.0333   YY=            -86.6532   ZZ=            -84.0783
   XY=              0.2758   XZ=             -0.5857   YZ=             -0.0830

 Normal termination of Gaussian 16 at Wed May  5 15:17:12 2021.
