 Gaussian 16, Revision A.03,
 Gaussian 16:  EM64L-G16RevA.03 25-Dec-2016

 -------------
 #p 6-31g* mp2
 -------------

 ------------------------------------------------------
 Input file generated by CHIRIPA (05-May-2021 14:57:24)
 ------------------------------------------------------
 Symbolic Z-matrix:
 Charge =  0 Multiplicity = 1

                         Standard orientation:
 ---------------------------------------------------------------------
 Center     Atomic      Atomic             Coordinates (Angstroms)
 Number     Number       Type             X           Y           Z
 ---------------------------------------------------------------------
      1          6           0       -5.173257    0.185814    0.885632
      2          6           0       -4.176994   -0.635135    1.424170
      3          6           0       -2.931036   -0.742794    0.799233
      4          6           0       -2.714527   -0.012151   -0.368061
      5          6           0       -3.686952    0.814219   -0.929124
      6          6           0       -4.925493    0.906601   -0.287228
      7          1           0       -6.138266    0.263512    1.377685
      8          1           0       -4.366604   -1.196064    2.334912
      9          1           0       -2.141959   -1.370900    1.194529
     10          1           0       -3.468367    1.361193   -1.838221
     11          1           0       -5.697338    1.544941   -0.707730
     12          7           0       -1.399413   -0.118038   -1.038631
     13          8           0       -1.233635    0.535949   -2.065985
     14          8           0       -0.559306   -0.853014   -0.524172
     15          6           0        3.270381    2.468179    0.622001
     16          6           0        2.549670    1.715473    1.555023
     17          6           0        2.355567    0.344296    1.363330
     18          6           0        2.898490   -0.244427    0.222309
     19          6           0        3.621243    0.478547   -0.725439
     20          6           0        3.802928    1.848407   -0.513250
     21          1           0        3.416343    3.532830    0.778874
     22          1           0        2.134947    2.194135    2.437594
     23          1           0        1.801756   -0.262218    2.069626
     24          1           0        4.022641   -0.026646   -1.595540
     25          1           0        4.363075    2.430474   -1.239527
     26          7           0        2.699575   -1.695334    0.008523
     27          8           0        3.188038   -2.190325   -1.004898
     28          8           0        2.058967   -2.310087    0.858427
 ---------------------------------------------------------------------

 SCF Done:  E(RHF) =  -868.338157702     A.U. after   16 cycles
 E2 =    -0.2600906215D+01 EUMP2 =    -0.87093906391647D+03

 The electronic state is 1-A.
 Alpha  occ. eigenvalues --  -20.60732 -20.60689 -20.59414 -20.59404 -15.85741
 Alpha  occ. eigenvalues --  -15.84470 -11.31136 -11.29966 -11.27727 -11.27668
 Alpha  occ. eigenvalues --  -11.27470 -11.26746 -11.26714 -11.26617 -11.26573
 Alpha  occ. eigenvalues --  -11.26443 -11.25731 -11.25676  -1.59778  -1.58438
 Alpha  occ. eigenvalues --   -1.39330  -1.38009  -1.19315  -1.18173  -1.08711
 Alpha  occ. eigenvalues --   -1.07552  -1.04717  -1.03645  -0.95539  -0.94374
 Alpha  occ. eigenvalues --   -0.86114  -0.85038  -0.82368  -0.81240  -0.77404
 Alpha  occ. eigenvalues --   -0.76237  -0.72042  -0.71099  -0.70738  -0.70422
 Alpha  occ. eigenvalues --   -0.69599  -0.69359  -0.64961  -0.64719  -0.63869
 Alpha  occ. eigenvalues --   -0.63702  -0.62055  -0.61017  -0.55225  -0.54193
 Alpha  occ. eigenvalues --   -0.53056  -0.52805  -0.51921  -0.51781  -0.48747
 Alpha  occ. eigenvalues --   -0.48722  -0.47486  -0.47455  -0.44733  -0.43385
 Alpha  occ. eigenvalues --   -0.37310  -0.36328  -0.36129  -0.35238
 Alpha virt. eigenvalues --    0.05109   0.06388   0.11326   0.12415   0.16605
 Alpha virt. eigenvalues --    0.17809   0.21457   0.22330   0.27346   0.28060
 Alpha virt. eigenvalues --    0.28423   0.29271   0.30969   0.31749   0.32632

 Mulliken charges:
               1
     1  C   -0.170998
     2  C   -0.219093
     3  C   -0.172951
     4  C    0.157472
     5  C   -0.171295
     6  C   -0.218884
     7  H    0.225249
     8  H    0.224035
     9  H    0.281226
    10  H    0.274876
    11  H    0.222806
    12  N    0.490185
    13  O   -0.461926
    14  O   -0.459768
    15  C   -0.171469
    16  C   -0.220758
    17  C   -0.165620
    18  C    0.172234
    19  C   -0.167644
    20  C   -0.217940
    21  H    0.220316
    22  H    0.216505
    23  H    0.269861
    24  H    0.274333
    25  H    0.219708
    26  N    0.496039
    27  O   -0.463366
    28  O   -0.463133
 Sum of Mulliken charges =  -0.00000

 Dipole moment (field-independent basis, Debye):
    X=             -4.0847    Y=              5.2571    Z=              2.9923  Tot=              7.2991
 Quadrupole moment (field-independent basis, Debye-Ang):
   XX=            -75.6985   YY=           -106.9211   ZZ=           -100.9623
   XY=             12.5201   XZ=             -4.2464   YZ=             -2.2612

 Normal termination of Gaussian 16 at Fri May  7 04:56:08 2021.
