 Gaussian 16, Revision A.03,
 Gaussian 16:  EM64L-G16RevA.03 25-Dec-2016

 -------------
 #p 6-31g* mp2
 -------------

 ------------------------------------------------------
 Input file generated by CHIRIPA (05-May-2021 14:51:12)
 ------------------------------------------------------
 Symbolic Z-matrix:
 Charge =  0 Multiplicity = 1

                         Standard orientation:
 ---------------------------------------------------------------------
 Center     Atomic      Atomic             Coordinates (Angstroms)
 Number     Number       Type             X           Y           Z
 ---------------------------------------------------------------------
      1          6           0        2.857317   -1.123197    0.301204
      2          6           0        1.483078   -0.635502    0.761213
      3          6           0        0.535007   -1.783079    1.110531
      4          1           0        2.733556   -1.777385   -0.572676
      5          1           0        3.303553   -1.740562    1.093118
      6          1           0        1.040157   -0.018101   -0.030781
      7          1           0        1.610140    0.017755    1.633982
      8          1           0        0.951967   -2.395462    1.916591
      9          1           0        0.378746   -2.431522    0.242369
     10          1           0       -0.441506   -1.411889    1.436875
     11          6           0        3.816293    0.012421   -0.051591
     12          6           0        5.190531   -0.475273   -0.511599
     13          6           0        6.138603    0.672303   -0.860918
     14          1           0        3.370057    0.629787   -0.843505
     15          1           0        3.940053    0.666610    0.822289
     16          1           0        5.063469   -1.128530   -1.384369
     17          1           0        5.633452   -1.092674    0.280394
     18          1           0        6.294864    1.320747    0.007244
     19          1           0        5.721643    1.284687   -1.666977
     20          1           0        7.115116    0.301114   -1.187262
     21          6           0       -3.183539    1.303288   -0.149025
     22          6           0       -1.804797    1.658087    0.408805
     23          6           0       -1.512799    3.157911    0.353543
     24          1           0       -3.253018    1.653782   -1.187906
     25          1           0       -3.951691    1.848424    0.416804
     26          1           0       -1.039565    1.111378   -0.157009
     27          1           0       -1.738523    1.306536    1.446416
     28          1           0       -2.254510    3.716415    0.933662
     29          1           0       -1.551581    3.520147   -0.678873
     30          1           0       -0.522140    3.389186    0.757237
     31          6           0       -3.490071   -0.192512   -0.100588
     32          6           0       -4.868812   -0.547311   -0.658419
     33          6           0       -5.160812   -2.047137   -0.603156
     34          1           0       -2.721918   -0.737649   -0.666417
     35          1           0       -3.420591   -0.543007    0.938292
     36          1           0       -4.935086   -0.195762   -1.696030
     37          1           0       -5.634045   -0.000602   -0.092605
     38          1           0       -5.122029   -2.409373    0.429260
     39          1           0       -4.419099   -2.605640   -1.183276
     40          1           0       -6.151469   -2.278412   -1.006850
 ---------------------------------------------------------------------

 SCF Done:  E(RHF) =  -470.733027320     A.U. after   11 cycles
 E2 =    -0.1583494977D+01 EUMP2 =    -0.47231652229693D+03

 The electronic state is 1-A.
 Alpha  occ. eigenvalues --  -11.21602 -11.21595 -11.21562 -11.21545 -11.21403
 Alpha  occ. eigenvalues --  -11.21387 -11.21342 -11.21325 -11.21067 -11.21063
 Alpha  occ. eigenvalues --  -11.21057 -11.20995  -1.08446  -1.08392  -1.03553
 Alpha  occ. eigenvalues --   -1.03471  -0.95971  -0.95950  -0.86988  -0.86965
 Alpha  occ. eigenvalues --   -0.79688  -0.79479  -0.78320  -0.78145  -0.65135
 Alpha  occ. eigenvalues --   -0.64978  -0.61031  -0.60807  -0.59464  -0.59203
 Alpha  occ. eigenvalues --   -0.57620  -0.57518  -0.55263  -0.55240  -0.52719
 Alpha  occ. eigenvalues --   -0.52593  -0.52399  -0.52362  -0.49966  -0.49856
 Alpha  occ. eigenvalues --   -0.48048  -0.47787  -0.46835  -0.46428  -0.45918
 Alpha  occ. eigenvalues --   -0.45751  -0.45726  -0.45390  -0.43776  -0.43743
 Alpha virt. eigenvalues --    0.21228   0.23173   0.23714   0.24449   0.25354
 Alpha virt. eigenvalues --    0.26256   0.26997   0.27248   0.28272   0.29503
 Alpha virt. eigenvalues --    0.30438   0.31104   0.31550   0.31775   0.32228

 Mulliken charges:
               1
     1  C   -0.297760
     2  C   -0.302367
     3  C   -0.479301
     4  H    0.149245
     5  H    0.149403
     6  H    0.154815
     7  H    0.151704
     8  H    0.154647
     9  H    0.154179
    10  H    0.164969
    11  C   -0.298227
    12  C   -0.299589
    13  C   -0.475694
    14  H    0.149209
    15  H    0.149577
    16  H    0.151854
    17  H    0.151962
    18  H    0.155172
    19  H    0.155124
    20  H    0.160225
    21  C   -0.297818
    22  C   -0.305773
    23  C   -0.475820
    24  H    0.149304
    25  H    0.149346
    26  H    0.158960
    27  H    0.152009
    28  H    0.155052
    29  H    0.154750
    30  H    0.160757
    31  C   -0.299590
    32  C   -0.299712
    33  C   -0.475657
    34  H    0.150799
    35  H    0.149642
    36  H    0.151880
    37  H    0.151946
    38  H    0.155313
    39  H    0.155279
    40  H    0.160185
 Sum of Mulliken charges =  -0.00000

 Dipole moment (field-independent basis, Debye):
    X=             -0.0146    Y=              0.0074    Z=              0.0017  Tot=              0.0165
 Quadrupole moment (field-independent basis, Debye-Ang):
   XX=            -85.3887   YY=            -86.4749   ZZ=            -83.0229
   XY=             -0.9381   XZ=              0.1675   YZ=              0.3154

 Normal termination of Gaussian 16 at Thu May  6 02:18:02 2021.
