 Gaussian 16, Revision A.03,
 Gaussian 16:  EM64L-G16RevA.03 25-Dec-2016

 -------------
 #p 6-31g* mp2
 -------------

 ------------------------------------------------------
 Input file generated by CHIRIPA (05-May-2021 14:51:12)
 ------------------------------------------------------
 Symbolic Z-matrix:
 Charge =  0 Multiplicity = 1

                         Standard orientation:
 ---------------------------------------------------------------------
 Center     Atomic      Atomic             Coordinates (Angstroms)
 Number     Number       Type             X           Y           Z
 ---------------------------------------------------------------------
      1          6           0        2.179083    1.070645   -0.297699
      2          6           0        2.871379    1.984711    0.713832
      3          6           0        2.228188    3.369371    0.796388
      4          1           0        2.201407    1.546494   -1.287656
      5          1           0        1.119856    0.968204   -0.023951
      6          1           0        3.929299    2.084287    0.439046
      7          1           0        2.847574    1.506544    1.701458
      8          1           0        1.177410    3.288974    1.093041
      9          1           0        2.265281    3.869999   -0.176543
     10          1           0        2.738733    4.006372    1.525383
     11          6           0        2.810673   -0.317158   -0.391635
     12          6           0        2.118377   -1.231224   -1.403166
     13          6           0        2.761569   -2.615883   -1.485723
     14          1           0        3.869901   -0.214717   -0.665383
     15          1           0        2.788349   -0.793007    0.598321
     16          1           0        2.142183   -0.753057   -2.390793
     17          1           0        1.060458   -1.330799   -1.128381
     18          1           0        2.724476   -3.116512   -0.512791
     19          1           0        3.812347   -2.535486   -1.782376
     20          1           0        2.251024   -3.252884   -2.214718
     21          6           0       -3.175652   -0.048736    0.233353
     22          6           0       -3.285744    0.680192   -1.106247
     23          6           0       -4.653457    1.331230   -1.314343
     24          1           0       -3.960805   -0.814901    0.292266
     25          1           0       -3.371673    0.662924    1.047300
     26          1           0       -3.088211   -0.032325   -1.917368
     27          1           0       -2.500117    1.444582   -1.162057
     28          1           0       -4.855768    2.063057   -0.525610
     29          1           0       -5.447205    0.577759   -1.285211
     30          1           0       -4.710239    1.846736   -2.278132
     31          6           0       -1.814105   -0.704751    0.455982
     32          6           0       -1.704012   -1.433680    1.795581
     33          6           0       -0.336300   -2.084717    2.003676
     34          1           0       -1.618084   -1.416412   -0.357965
     35          1           0       -1.028951    0.061414    0.397068
     36          1           0       -2.489640   -2.198069    1.851392
     37          1           0       -1.901545   -0.721163    2.606703
     38          1           0        0.457448   -1.331247    1.974547
     39          1           0       -0.133988   -2.816544    1.214944
     40          1           0       -0.279518   -2.600223    2.967466
 ---------------------------------------------------------------------

 SCF Done:  E(RHF) =  -470.732910730     A.U. after   11 cycles
 E2 =    -0.1584872336D+01 EUMP2 =    -0.47231778306566D+03

 The electronic state is 1-A.
 Alpha  occ. eigenvalues --  -11.21692 -11.21630 -11.21613 -11.21482 -11.21475
 Alpha  occ. eigenvalues --  -11.21412 -11.21368 -11.21299 -11.21172 -11.21102
 Alpha  occ. eigenvalues --  -11.21091 -11.21004  -1.08521  -1.08382  -1.03600
 Alpha  occ. eigenvalues --   -1.03490  -0.96048  -0.95954  -0.87068  -0.86966
 Alpha  occ. eigenvalues --   -0.79663  -0.79558  -0.78450  -0.78097  -0.65261
 Alpha  occ. eigenvalues --   -0.64934  -0.61013  -0.60884  -0.59412  -0.59311
 Alpha  occ. eigenvalues --   -0.57669  -0.57553  -0.55360  -0.55234  -0.52739
 Alpha  occ. eigenvalues --   -0.52650  -0.52478  -0.52381  -0.50089  -0.49810
 Alpha  occ. eigenvalues --   -0.48044  -0.47845  -0.46796  -0.46551  -0.46374
 Alpha  occ. eigenvalues --   -0.45711  -0.45701  -0.45084  -0.43850  -0.43748
 Alpha virt. eigenvalues --    0.19697   0.22765   0.23382   0.24609   0.25526
 Alpha virt. eigenvalues --    0.25808   0.26537   0.27706   0.28706   0.30186
 Alpha virt. eigenvalues --    0.30850   0.31261   0.31687   0.31855   0.32393

 Mulliken charges:
               1
     1  C   -0.307657
     2  C   -0.299137
     3  C   -0.475486
     4  H    0.149869
     5  H    0.156875
     6  H    0.152319
     7  H    0.151293
     8  H    0.154027
     9  H    0.155410
    10  H    0.160435
    11  C   -0.299472
    12  C   -0.305380
    13  C   -0.476500
    14  H    0.149419
    15  H    0.151341
    16  H    0.151106
    17  H    0.159352
    18  H    0.156025
    19  H    0.154877
    20  H    0.159406
    21  C   -0.297495
    22  C   -0.299941
    23  C   -0.475755
    24  H    0.149904
    25  H    0.149493
    26  H    0.152177
    27  H    0.152318
    28  H    0.155222
    29  H    0.155196
    30  H    0.160512
    31  C   -0.309273
    32  C   -0.299081
    33  C   -0.480659
    34  H    0.151159
    35  H    0.158121
    36  H    0.152467
    37  H    0.151948
    38  H    0.157905
    39  H    0.156825
    40  H    0.160834
 Sum of Mulliken charges =  -0.00000

 Dipole moment (field-independent basis, Debye):
    X=             -0.0472    Y=             -0.0083    Z=              0.0104  Tot=              0.0490
 Quadrupole moment (field-independent basis, Debye-Ang):
   XX=            -85.3037   YY=            -85.3037   ZZ=            -84.1868
   XY=              1.4149   XZ=             -0.4905   YZ=              0.0445

 Normal termination of Gaussian 16 at Wed May  5 23:08:12 2021.
