 Gaussian 16, Revision A.03,
 Gaussian 16:  EM64L-G16RevA.03 25-Dec-2016

 -------------
 #p 6-31g* mp2
 -------------

 ------------------------------------------------------
 Input file generated by CHIRIPA (05-May-2021 14:55:20)
 ------------------------------------------------------
 Symbolic Z-matrix:
 Charge =  0 Multiplicity = 1

                         Standard orientation:
 ---------------------------------------------------------------------
 Center     Atomic      Atomic             Coordinates (Angstroms)
 Number     Number       Type             X           Y           Z
 ---------------------------------------------------------------------
      1          6           0        1.830400    2.279365    0.195925
      2          6           0        2.229842    1.573873    1.335771
      3          6           0        2.618082    0.234103    1.241772
      4          6           0        2.594784   -0.371699   -0.013517
      5          6           0        2.201864    0.304437   -1.167529
      6          6           0        1.817708    1.643516   -1.049890
      7          1           0        1.530393    3.319862    0.278128
      8          1           0        2.240684    2.065118    2.304587
      9          1           0        2.931776   -0.335680    2.108006
     10          1           0        2.201438   -0.212266   -2.119598
     11          1           0        1.507964    2.188936   -1.936807
     12          7           0        3.003634   -1.789688   -0.125542
     13          8           0        2.974344   -2.300601   -1.243016
     14          8           0        3.345639   -2.363344    0.906246
     15          6           0       -2.974563    0.819557    0.313388
     16          6           0       -2.234182    1.728241   -0.668506
     17          6           0       -1.719014    3.010443   -0.014018
     18          1           0       -3.816303    1.372871    0.751867
     19          1           0       -2.302105    0.563780    1.143914
     20          1           0       -2.907396    1.981105   -1.497638
     21          1           0       -1.394223    1.172638   -1.104842
     22          1           0       -1.026629    2.775670    0.800896
     23          1           0       -2.548400    3.588731    0.405869
     24          1           0       -1.192984    3.645260   -0.733851
     25          6           0       -3.495583   -0.466284   -0.326050
     26          6           0       -4.235964   -1.374968    0.655843
     27          6           0       -4.751131   -2.657169    0.001356
     28          1           0       -4.168041   -0.210507   -1.156576
     29          1           0       -2.653844   -1.019597   -0.764530
     30          1           0       -5.075923   -0.819365    1.092180
     31          1           0       -3.562750   -1.627832    1.484976
     32          1           0       -3.921746   -3.235457   -0.418531
     33          1           0       -5.443517   -2.422396   -0.813559
     34          1           0       -5.277162   -3.291985    0.721189
 ---------------------------------------------------------------------

 SCF Done:  E(RHF) =  -669.535188153     A.U. after   15 cycles
 E2 =    -0.2092835541D+01 EUMP2 =    -0.67162802369424D+03

 The electronic state is 1-A.
 Alpha  occ. eigenvalues --  -20.60815 -20.60810 -15.85871 -11.31240 -11.27840
 Alpha  occ. eigenvalues --  -11.27833 -11.27539 -11.26829 -11.26818 -11.22063
 Alpha  occ. eigenvalues --  -11.21812 -11.21702 -11.21690 -11.21541 -11.21073
 Alpha  occ. eigenvalues --   -1.59892  -1.39445  -1.19433  -1.08836  -1.08689
 Alpha  occ. eigenvalues --   -1.04838  -1.03840  -0.96324  -0.95639  -0.87337
 Alpha  occ. eigenvalues --   -0.86228  -0.82482  -0.79919  -0.78490  -0.77527
 Alpha  occ. eigenvalues --   -0.72088  -0.71218  -0.70535  -0.65341  -0.65080
 Alpha  occ. eigenvalues --   -0.64827  -0.62185  -0.61249  -0.59719  -0.57908
 Alpha  occ. eigenvalues --   -0.55745  -0.55227  -0.53157  -0.52985  -0.52917
 Alpha  occ. eigenvalues --   -0.52719  -0.50229  -0.48847  -0.48843  -0.48231
 Alpha  occ. eigenvalues --   -0.46932  -0.46040  -0.45938  -0.44850  -0.44093
 Alpha  occ. eigenvalues --   -0.37340  -0.36430
 Alpha virt. eigenvalues --    0.04997   0.11120   0.16432   0.20530   0.22783
 Alpha virt. eigenvalues --    0.24181   0.26374   0.26458   0.26792   0.27746
 Alpha virt. eigenvalues --    0.29105   0.30542   0.30744   0.31452   0.32099

 Mulliken charges:
               1
     1  C   -0.167099
     2  C   -0.221506
     3  C   -0.170379
     4  C    0.158024
     5  C   -0.172321
     6  C   -0.218062
     7  H    0.229003
     8  H    0.223890
     9  H    0.275861
    10  H    0.275997
    11  H    0.224453
    12  N    0.488103
    13  O   -0.460414
    14  O   -0.460393
    15  C   -0.298501
    16  C   -0.301425
    17  C   -0.477034
    18  H    0.149464
    19  H    0.150712
    20  H    0.152312
    21  H    0.153815
    22  H    0.154234
    23  H    0.157542
    24  H    0.149946
    25  C   -0.299145
    26  C   -0.299969
    27  C   -0.476268
    28  H    0.149289
    29  H    0.152076
    30  H    0.151203
    31  H    0.153042
    32  H    0.157863
    33  H    0.154684
    34  H    0.161003
 Sum of Mulliken charges =  -0.00000

 Dipole moment (field-independent basis, Debye):
    X=             -1.4398    Y=              4.9234    Z=              0.4127  Tot=              5.1462
 Quadrupole moment (field-independent basis, Debye-Ang):
   XX=           -102.2152   YY=           -100.0598   ZZ=            -90.0117
   XY=             13.0466   XZ=              2.0506   YZ=             -0.7287

 Normal termination of Gaussian 16 at Thu May  6 06:08:32 2021.
