 Gaussian 16, Revision A.03,
 Gaussian 16:  EM64L-G16RevA.03 25-Dec-2016

 -------------
 #p 6-31g* mp2
 -------------

 ------------------------------------------------------
 Input file generated by CHIRIPA (05-May-2021 14:55:25)
 ------------------------------------------------------
 Symbolic Z-matrix:
 Charge =  0 Multiplicity = 1

                         Standard orientation:
 ---------------------------------------------------------------------
 Center     Atomic      Atomic             Coordinates (Angstroms)
 Number     Number       Type             X           Y           Z
 ---------------------------------------------------------------------
      1          6           0       -1.314459    1.239809   -0.453853
      2          6           0       -1.248794   -0.007171    0.176425
      3          6           0       -2.408089   -0.761390    0.380719
      4          6           0       -3.621738   -0.235847   -0.059909
      5          6           0       -3.719687    1.003258   -0.691030
      6          6           0       -2.547522    1.740161   -0.884809
      7          1           0       -0.408891    1.818979   -0.608469
      8          1           0       -0.292557   -0.398251    0.512152
      9          1           0       -2.385953   -1.729665    0.865870
     10          1           0       -4.687416    1.366765   -1.014731
     11          1           0       -2.601527    2.708278   -1.374583
     12          7           0       -4.855844   -1.025139    0.150802
     13          8           0       -5.912824   -0.539897   -0.246652
     14          8           0       -4.742789   -2.114083    0.709422
     15          6           0        3.821429    0.421347    0.562364
     16          6           0        3.342413    1.802851    0.115180
     17          6           0        2.233875    2.361680    1.007732
     18          1           0        2.968773   -0.271397    0.567661
     19          1           0        4.180328    0.483223    1.599068
     20          1           0        2.985808    1.738680   -0.920837
     21          1           0        4.196346    2.492339    0.110763
     22          1           0        2.581751    2.454423    2.041649
     23          1           0        1.364335    1.696483    1.004188
     24          1           0        1.906413    3.349903    0.670028
     25          6           0        4.929527   -0.150595   -0.320095
     26          6           0        5.408544   -1.532099    0.127089
     27          6           0        6.517080   -2.090929   -0.765463
     28          1           0        4.570627   -0.212472   -1.356799
     29          1           0        5.782183    0.542149   -0.325392
     30          1           0        4.554610   -2.221587    0.131506
     31          1           0        5.765147   -1.467929    1.163106
     32          1           0        7.386620   -1.425731   -0.761918
     33          1           0        6.169205   -2.183673   -1.799380
     34          1           0        6.844543   -3.079152   -0.427759
 ---------------------------------------------------------------------

 SCF Done:  E(RHF) =  -669.535148873     A.U. after   15 cycles
 E2 =    -0.2091676296D+01 EUMP2 =    -0.67162682516952D+03

 The electronic state is 1-A.
 Alpha  occ. eigenvalues --  -20.60738 -20.60733 -15.85792 -11.31153 -11.27734
 Alpha  occ. eigenvalues --  -11.27726 -11.27417 -11.26739 -11.26720 -11.22701
 Alpha  occ. eigenvalues --  -11.22372 -11.22350 -11.22227 -11.22124 -11.21570
 Alpha  occ. eigenvalues --   -1.59814  -1.39367  -1.19328  -1.09316  -1.08720
 Alpha  occ. eigenvalues --   -1.04735  -1.04413  -0.96876  -0.95554  -0.87888
 Alpha  occ. eigenvalues --   -0.86133  -0.82391  -0.80485  -0.79085  -0.77441
 Alpha  occ. eigenvalues --   -0.72010  -0.71137  -0.70458  -0.65968  -0.64981
 Alpha  occ. eigenvalues --   -0.64749  -0.62121  -0.61774  -0.60259  -0.58454
 Alpha  occ. eigenvalues --   -0.56275  -0.55127  -0.53547  -0.53293  -0.53043
 Alpha  occ. eigenvalues --   -0.52826  -0.50794  -0.48800  -0.48766  -0.48753
 Alpha  occ. eigenvalues --   -0.47522  -0.46633  -0.46533  -0.44774  -0.44653
 Alpha  occ. eigenvalues --   -0.37291  -0.36340
 Alpha virt. eigenvalues --    0.05094   0.11256   0.16577   0.18691   0.22700
 Alpha virt. eigenvalues --    0.23889   0.24261   0.26032   0.26748   0.28006
 Alpha virt. eigenvalues --    0.29465   0.29889   0.30716   0.31120   0.31414

 Mulliken charges:
               1
     1  C   -0.173489
     2  C   -0.222576
     3  C   -0.170927
     4  C    0.158178
     5  C   -0.170668
     6  C   -0.219778
     7  H    0.232768
     8  H    0.224431
     9  H    0.275609
    10  H    0.275481
    11  H    0.223475
    12  N    0.488103
    13  O   -0.460507
    14  O   -0.460545
    15  C   -0.298026
    16  C   -0.301947
    17  C   -0.482395
    18  H    0.143517
    19  H    0.153190
    20  H    0.149727
    21  H    0.157523
    22  H    0.163146
    23  H    0.148719
    24  H    0.160767
    25  C   -0.298935
    26  C   -0.300195
    27  C   -0.476230
    28  H    0.150147
    29  H    0.152028
    30  H    0.151588
    31  H    0.153302
    32  H    0.156199
    33  H    0.155930
    34  H    0.162391
 Sum of Mulliken charges =  -0.00000

 Dipole moment (field-independent basis, Debye):
    X=              4.5986    Y=              2.8110    Z=             -0.7197  Tot=              5.4376
 Quadrupole moment (field-independent basis, Debye-Ang):
   XX=           -124.3177   YY=            -93.7007   ZZ=            -94.2898
   XY=            -12.6039   XZ=              4.8079   YZ=             -1.7963

 Normal termination of Gaussian 16 at Thu May  6 17:43:42 2021.
