 Gaussian 16, Revision A.03,
 Gaussian 16:  EM64L-G16RevA.03 25-Dec-2016

 -------------
 #p 6-31g* mp2
 -------------

 ------------------------------------------------------
 Input file generated by CHIRIPA (05-May-2021 14:53:18)
 ------------------------------------------------------
 Symbolic Z-matrix:
 Charge =  0 Multiplicity = 1

                         Standard orientation:
 ---------------------------------------------------------------------
 Center     Atomic      Atomic             Coordinates (Angstroms)
 Number     Number       Type             X           Y           Z
 ---------------------------------------------------------------------
      1          6           0        3.251897    1.193911   -0.297468
      2          6           0        1.839964    1.343029    0.270154
      3          6           0        1.288004    2.760680    0.117187
      4          1           0        3.919995    1.905445    0.206823
      5          1           0        3.243569    1.472438   -1.360364
      6          1           0        1.850675    1.062977    1.331320
      7          1           0        1.175190    0.630924   -0.235412
      8          1           0        1.248424    3.046813   -0.938826
      9          1           0        1.927747    3.481321    0.636808
     10          1           0        0.277698    2.844810    0.529573
     11          6           0        3.817361   -0.217758   -0.151973
     12          6           0        5.229294   -0.366876   -0.719595
     13          6           0        5.781253   -1.784527   -0.566628
     14          1           0        3.825688   -0.496285    0.910923
     15          1           0        3.149263   -0.929292   -0.656264
     16          1           0        5.894068    0.345229   -0.214029
     17          1           0        5.218583   -0.086824   -1.780761
     18          1           0        5.141511   -2.505168   -1.086249
     19          1           0        5.820834   -2.070660    0.489385
     20          1           0        6.791560   -1.868657   -0.979014
     21          6           0       -0.884045   -0.981768    1.750619
     22          6           0       -1.347897    0.336188    1.684622
     23          6           0       -2.387562    0.680302    0.815581
     24          6           0       -2.942927   -0.323260    0.023293
     25          6           0       -2.502708   -1.645247    0.066262
     26          6           0       -1.461912   -1.966542    0.942654
     27          1           0       -0.075969   -1.240221    2.428566
     28          1           0       -0.901001    1.103049    2.310923
     29          1           0       -2.766007    1.692788    0.744383
     30          1           0       -2.968055   -2.387856   -0.570449
     31          1           0       -1.103708   -2.990905    0.991802
     32          7           0       -4.044173    0.028960   -0.900613
     33          8           0       -4.516684   -0.873615   -1.588166
     34          8           0       -4.413966    1.200934   -0.919722
 ---------------------------------------------------------------------

 SCF Done:  E(RHF) =  -669.534932080     A.U. after   15 cycles
 E2 =    -0.2092977362D+01 EUMP2 =    -0.67162790944225D+03

 The electronic state is 1-A.
 Alpha  occ. eigenvalues --  -20.60771 -20.60766 -15.85826 -11.31197 -11.27768
 Alpha  occ. eigenvalues --  -11.27757 -11.27492 -11.26783 -11.26760 -11.22155
 Alpha  occ. eigenvalues --  -11.22041 -11.21927 -11.21851 -11.21642 -11.21497
 Alpha  occ. eigenvalues --   -1.59847  -1.39400  -1.19376  -1.08954  -1.08755
 Alpha  occ. eigenvalues --   -1.04789  -1.04030  -0.96488  -0.95597  -0.87502
 Alpha  occ. eigenvalues --   -0.86174  -0.82431  -0.80104  -0.78768  -0.77478
 Alpha  occ. eigenvalues --   -0.72043  -0.71171  -0.70471  -0.65575  -0.65024
 Alpha  occ. eigenvalues --   -0.64789  -0.62162  -0.61422  -0.59869  -0.58121
 Alpha  occ. eigenvalues --   -0.55764  -0.55267  -0.53293  -0.53005  -0.52976
 Alpha  occ. eigenvalues --   -0.52765  -0.50415  -0.48802  -0.48798  -0.48422
 Alpha  occ. eigenvalues --   -0.47125  -0.46307  -0.46218  -0.44805  -0.44302
 Alpha  occ. eigenvalues --   -0.37297  -0.36349
 Alpha virt. eigenvalues --    0.05032   0.11231   0.16434   0.20106   0.22626
 Alpha virt. eigenvalues --    0.23934   0.25673   0.26094   0.26668   0.28421
 Alpha virt. eigenvalues --    0.28486   0.30647   0.31096   0.31415   0.31982

 Mulliken charges:
               1
     1  C   -0.298946
     2  C   -0.299774
     3  C   -0.476346
     4  H    0.149969
     5  H    0.152626
     6  H    0.139847
     7  H    0.159942
     8  H    0.160963
     9  H    0.155678
    10  H    0.153015
    11  C   -0.298068
    12  C   -0.299902
    13  C   -0.475919
    14  H    0.145190
    15  H    0.149651
    16  H    0.152768
    17  H    0.154003
    18  H    0.155075
    19  H    0.153905
    20  H    0.162104
    21  C   -0.169148
    22  C   -0.213811
    23  C   -0.172464
    24  C    0.157983
    25  C   -0.171288
    26  C   -0.219661
    27  H    0.226009
    28  H    0.224594
    29  H    0.275555
    30  H    0.275584
    31  H    0.223587
    32  N    0.488112
    33  O   -0.460546
    34  O   -0.460286
 Sum of Mulliken charges =  -0.00000

 Dipole moment (field-independent basis, Debye):
    X=              3.9345    Y=             -1.2549    Z=              3.1733  Tot=              5.2082
 Quadrupole moment (field-independent basis, Debye-Ang):
   XX=           -118.4457   YY=            -90.4007   ZZ=            -93.9746
   XY=              3.3245   XZ=             -9.3975   YZ=              0.6913

 Normal termination of Gaussian 16 at Thu May  6 17:20:24 2021.
