 Gaussian 16, Revision A.03,
 Gaussian 16:  EM64L-G16RevA.03 25-Dec-2016

 -------------
 #p 6-31g* mp2
 -------------

 ------------------------------------------------------
 Input file generated by CHIRIPA (05-May-2021 14:51:10)
 ------------------------------------------------------
 Symbolic Z-matrix:
 Charge =  0 Multiplicity = 1

                         Standard orientation:
 ---------------------------------------------------------------------
 Center     Atomic      Atomic             Coordinates (Angstroms)
 Number     Number       Type             X           Y           Z
 ---------------------------------------------------------------------
      1          6           0       -1.625375    1.280071    0.086518
      2          6           0       -1.675940    2.724230    0.586352
      3          6           0       -0.286411    3.335012    0.770603
      4          1           0       -1.047661    0.672936    0.796855
      5          1           0       -1.080496    1.248356   -0.867157
      6          1           0       -2.221762    2.753407    1.538111
      7          1           0       -2.253763    3.327958   -0.125159
      8          1           0        0.262981    3.335184   -0.176376
      9          1           0        0.295164    2.757369    1.496344
     10          1           0       -0.345993    4.367610    1.128444
     11          6           0       -3.006740    0.655729   -0.102574
     12          6           0       -2.956175   -0.788430   -0.602409
     13          6           0       -4.345704   -1.399212   -0.786659
     14          1           0       -3.551619    0.687444    0.851101
     15          1           0       -3.584454    1.262864   -0.812911
     16          1           0       -2.378352   -1.392158    0.109103
     17          1           0       -2.410354   -0.817607   -1.554167
     18          1           0       -4.927279   -0.821569   -1.512400
     19          1           0       -4.895096   -1.399384    0.160320
     20          1           0       -4.286122   -2.431810   -1.144500
     21          6           0        2.837910   -0.437843    0.181644
     22          6           0        3.266382    0.407197   -1.018484
     23          6           0        4.310767    1.463183   -0.655238
     24          1           0        2.437267    0.222665    0.962770
     25          1           0        3.722744   -0.928253    0.610551
     26          1           0        2.380802    0.894771   -1.445843
     27          1           0        3.665874   -0.255418   -1.796920
     28          1           0        5.211055    0.990854   -0.249051
     29          1           0        3.918681    2.147577    0.104021
     30          1           0        4.602800    2.055801   -1.527808
     31          6           0        1.794206   -1.497956   -0.165587
     32          6           0        1.365733   -2.342997    1.034540
     33          6           0        0.321348   -3.398983    0.671294
     34          1           0        0.909372   -1.007546   -0.594495
     35          1           0        2.194848   -2.158465   -0.946714
     36          1           0        0.966241   -1.680382    1.812976
     37          1           0        2.251314   -2.830570    1.461899
     38          1           0        0.713434   -4.083377   -0.087965
     39          1           0       -0.578939   -2.926653    0.265107
     40          1           0        0.029315   -3.991601    1.543865
 ---------------------------------------------------------------------

 SCF Done:  E(RHF) =  -470.733354512     A.U. after   11 cycles
 E2 =    -0.1584362841D+01 EUMP2 =    -0.47231771735269D+03

 The electronic state is 1-A.
 Alpha  occ. eigenvalues --  -11.21699 -11.21679 -11.21567 -11.21551 -11.21513
 Alpha  occ. eigenvalues --  -11.21447 -11.21331 -11.21262 -11.21171 -11.21123
 Alpha  occ. eigenvalues --  -11.21017 -11.21003  -1.08537  -1.08361  -1.03622
 Alpha  occ. eigenvalues --   -1.03475  -0.96068  -0.95920  -0.87086  -0.86936
 Alpha  occ. eigenvalues --   -0.79708  -0.79528  -0.78397  -0.78137  -0.65210
 Alpha  occ. eigenvalues --   -0.64955  -0.61062  -0.60851  -0.59440  -0.59283
 Alpha  occ. eigenvalues --   -0.57717  -0.57506  -0.55359  -0.55204  -0.52755
 Alpha  occ. eigenvalues --   -0.52623  -0.52504  -0.52337  -0.50082  -0.49815
 Alpha  occ. eigenvalues --   -0.48095  -0.47775  -0.46788  -0.46553  -0.46139
 Alpha  occ. eigenvalues --   -0.45818  -0.45639  -0.45312  -0.43871  -0.43727
 Alpha virt. eigenvalues --    0.19555   0.21949   0.23625   0.24411   0.25064
 Alpha virt. eigenvalues --    0.25785   0.27031   0.27728   0.28599   0.30048
 Alpha virt. eigenvalues --    0.30890   0.31342   0.31620   0.31845   0.32310

 Mulliken charges:
               1
     1  C   -0.301764
     2  C   -0.299809
     3  C   -0.476961
     4  H    0.151609
     5  H    0.150272
     6  H    0.152388
     7  H    0.152514
     8  H    0.155836
     9  H    0.155133
    10  H    0.160992
    11  C   -0.297637
    12  C   -0.307779
    13  C   -0.475416
    14  H    0.149840
    15  H    0.150135
    16  H    0.158802
    17  H    0.152290
    18  H    0.155439
    19  H    0.155381
    20  H    0.160938
    21  C   -0.298528
    22  C   -0.299819
    23  C   -0.476086
    24  H    0.149969
    25  H    0.149148
    26  H    0.152005
    27  H    0.151583
    28  H    0.154943
    29  H    0.156091
    30  H    0.159840
    31  C   -0.302388
    32  C   -0.299481
    33  C   -0.483147
    34  H    0.154888
    35  H    0.149075
    36  H    0.150702
    37  H    0.151869
    38  H    0.155217
    39  H    0.162389
    40  H    0.159529
 Sum of Mulliken charges =  -0.00000

 Dipole moment (field-independent basis, Debye):
    X=             -0.0683    Y=              0.0342    Z=             -0.0120  Tot=              0.0773
 Quadrupole moment (field-independent basis, Debye-Ang):
   XX=            -85.6163   YY=            -85.2227   ZZ=            -83.8699
   XY=             -1.6402   XZ=             -0.3814   YZ=             -0.3175

 Normal termination of Gaussian 16 at Thu May  6 05:23:43 2021.
