 Gaussian 16, Revision A.03,
 Gaussian 16:  EM64L-G16RevA.03 25-Dec-2016

 -------------
 #p 6-31g* mp2
 -------------

 ------------------------------------------------------
 Input file generated by CHIRIPA (05-May-2021 14:51:10)
 ------------------------------------------------------
 Symbolic Z-matrix:
 Charge =  0 Multiplicity = 1

                         Standard orientation:
 ---------------------------------------------------------------------
 Center     Atomic      Atomic             Coordinates (Angstroms)
 Number     Number       Type             X           Y           Z
 ---------------------------------------------------------------------
      1          6           0       -2.777137   -0.928163    0.194866
      2          6           0       -3.127848    0.449657   -0.367807
      3          6           0       -4.508619    0.934926    0.074664
      4          1           0       -3.540605   -1.651790   -0.122032
      5          1           0       -2.819095   -0.889914    1.292213
      6          1           0       -3.083890    0.409179   -1.463729
      7          1           0       -2.363353    1.170049   -0.049692
      8          1           0       -4.561307    1.003689    1.166037
      9          1           0       -5.285938    0.238496   -0.256034
     10          1           0       -4.738920    1.921709   -0.338955
     11          6           0       -1.399790   -1.426901   -0.238613
     12          6           0       -1.049078   -2.804720    0.324060
     13          6           0        0.331693   -3.289989   -0.118411
     14          1           0       -1.357831   -1.465149   -1.335960
     15          1           0       -0.636321   -0.703274    0.078285
     16          1           0       -1.813574   -3.525112    0.005944
     17          1           0       -1.093036   -2.764242    1.419982
     18          1           0        1.109012   -2.593560    0.212287
     19          1           0        0.384381   -3.358753   -1.209785
     20          1           0        0.561994   -4.276772    0.295208
     21          6           0        1.703031    1.728205   -0.340941
     22          6           0        0.910511    2.635186    0.601016
     23          6           0        0.144743    3.731901   -0.139666
     24          1           0        2.406384    2.339559   -0.922737
     25          1           0        1.013884    1.270912   -1.064372
     26          1           0        1.600753    3.089555    1.323325
     27          1           0        0.209098    2.021577    1.180773
     28          1           0       -0.566076    3.294247   -0.848042
     29          1           0        0.833485    4.368294   -0.704680
     30          1           0       -0.414774    4.368569    0.552762
     31          6           0        2.473895    0.626859    0.384687
     32          6           0        3.266415   -0.280123   -0.557268
     33          6           0        4.032183   -1.376838    0.183413
     34          1           0        3.163042    1.084151    1.108120
     35          1           0        1.770543    0.015505    0.966484
     36          1           0        3.967828    0.333486   -1.137026
     37          1           0        2.576174   -0.734492   -1.279578
     38          1           0        3.343441   -2.013230    0.748427
     39          1           0        4.743002   -0.939184    0.891789
     40          1           0        4.591700   -2.013506   -0.509015
 ---------------------------------------------------------------------

 SCF Done:  E(RHF) =  -470.732686337     A.U. after   11 cycles
 E2 =    -0.1585535710D+01 EUMP2 =    -0.47231822204766D+03

 The electronic state is 1-A.
 Alpha  occ. eigenvalues --  -11.21661 -11.21654 -11.21640 -11.21578 -11.21471
 Alpha  occ. eigenvalues --  -11.21421 -11.21410 -11.21355 -11.21103 -11.21100
 Alpha  occ. eigenvalues --  -11.21083 -11.21038  -1.08533  -1.08414  -1.03623
 Alpha  occ. eigenvalues --   -1.03506  -0.96075  -0.95949  -0.87060  -0.86995
 Alpha  occ. eigenvalues --   -0.79659  -0.79596  -0.78322  -0.78261  -0.65474
 Alpha  occ. eigenvalues --   -0.64770  -0.61308  -0.60685  -0.59382  -0.59355
 Alpha  occ. eigenvalues --   -0.57657  -0.57600  -0.55613  -0.55017  -0.52721
 Alpha  occ. eigenvalues --   -0.52675  -0.52507  -0.52323  -0.50057  -0.49840
 Alpha  occ. eigenvalues --   -0.48108  -0.47771  -0.46801  -0.46528  -0.46175
 Alpha  occ. eigenvalues --   -0.45884  -0.45636  -0.45362  -0.43839  -0.43789
 Alpha virt. eigenvalues --    0.18908   0.21371   0.23722   0.25036   0.25974
 Alpha virt. eigenvalues --    0.26063   0.26717   0.27797   0.28618   0.30125
 Alpha virt. eigenvalues --    0.30789   0.31379   0.31749   0.31888   0.32555

 Mulliken charges:
               1
     1  C   -0.297677
     2  C   -0.305162
     3  C   -0.475514
     4  H    0.150152
     5  H    0.149471
     6  H    0.151790
     7  H    0.156834
     8  H    0.155292
     9  H    0.155322
    10  H    0.160664
    11  C   -0.306611
    12  C   -0.299096
    13  C   -0.484347
    14  H    0.149389
    15  H    0.157092
    16  H    0.152383
    17  H    0.151698
    18  H    0.164137
    19  H    0.155287
    20  H    0.160612
    21  C   -0.300506
    22  C   -0.301550
    23  C   -0.477792
    24  H    0.150196
    25  H    0.152329
    26  H    0.152291
    27  H    0.151853
    28  H    0.157621
    29  H    0.155388
    30  H    0.160185
    31  C   -0.301697
    32  C   -0.302074
    33  C   -0.478648
    34  H    0.150002
    35  H    0.150199
    36  H    0.152569
    37  H    0.154434
    38  H    0.157692
    39  H    0.155027
    40  H    0.160763
 Sum of Mulliken charges =  -0.00000

 Dipole moment (field-independent basis, Debye):
    X=             -0.0026    Y=             -0.0051    Z=             -0.0181  Tot=              0.0189
 Quadrupole moment (field-independent basis, Debye-Ang):
   XX=            -85.2276   YY=            -85.1158   ZZ=            -84.3020
   XY=              1.6482   XZ=              0.3662   YZ=              0.6124

 Normal termination of Gaussian 16 at Thu May  6 02:11:03 2021.
