 Gaussian 16, Revision A.03,
 Gaussian 16:  EM64L-G16RevA.03 25-Dec-2016

 -------------
 #p 6-31g* mp2
 -------------

 ------------------------------------------------------
 Input file generated by CHIRIPA (05-May-2021 14:55:18)
 ------------------------------------------------------
 Symbolic Z-matrix:
 Charge =  0 Multiplicity = 1

                         Standard orientation:
 ---------------------------------------------------------------------
 Center     Atomic      Atomic             Coordinates (Angstroms)
 Number     Number       Type             X           Y           Z
 ---------------------------------------------------------------------
      1          6           0       -0.709053   -2.089926    0.635665
      2          6           0       -0.869982   -0.992053    1.487311
      3          6           0       -1.826454   -0.011285    1.208379
      4          6           0       -2.608424   -0.160694    0.064050
      5          6           0       -2.471941   -1.242995   -0.803872
      6          6           0       -1.509136   -2.211678   -0.505196
      7          1           0        0.036417   -2.847116    0.860015
      8          1           0       -0.250031   -0.894900    2.374027
      9          1           0       -1.972089    0.848830    1.850571
     10          1           0       -3.104726   -1.312452   -1.680329
     11          1           0       -1.386362   -3.063232   -1.168390
     12          7           0       -3.624350    0.871205   -0.241693
     13          8           0       -4.300783    0.716451   -1.256153
     14          8           0       -3.724964    1.815221    0.538914
     15          6           0        3.229453    1.112740   -0.458232
     16          6           0        2.655347    2.252757    0.383639
     17          6           0        2.873230    3.625634   -0.253175
     18          1           0        4.304401    1.282141   -0.609021
     19          1           0        2.766978    1.133278   -1.454771
     20          1           0        3.117754    2.229228    1.378748
     21          1           0        1.581680    2.080524    0.532603
     22          1           0        2.396953    3.673545   -1.237789
     23          1           0        3.941756    3.823094   -0.386836
     24          1           0        2.455085    4.425976    0.365263
     25          6           0        3.019472   -0.265986    0.165266
     26          6           0        3.593580   -1.406004   -0.676605
     27          6           0        3.375696   -2.778880   -0.039791
     28          1           0        3.481949   -0.286524    1.161804
     29          1           0        1.944526   -0.435386    0.316055
     30          1           0        4.667247   -1.233770   -0.825568
     31          1           0        3.131172   -1.382474   -1.671714
     32          1           0        2.307172   -2.976340    0.093870
     33          1           0        3.851974   -2.826792    0.944824
     34          1           0        3.793842   -3.579223   -0.658229
 ---------------------------------------------------------------------

 SCF Done:  E(RHF) =  -669.535320156     A.U. after   15 cycles
 E2 =    -0.2092985125D+01 EUMP2 =    -0.67162830528067D+03

 The electronic state is 1-A.
 Alpha  occ. eigenvalues --  -20.60834 -20.60829 -15.85889 -11.31286 -11.27851
 Alpha  occ. eigenvalues --  -11.27848 -11.27578 -11.26873 -11.26863 -11.22247
 Alpha  occ. eigenvalues --  -11.22015 -11.21895 -11.21869 -11.21726 -11.21223
 Alpha  occ. eigenvalues --   -1.59909  -1.39462  -1.19464  -1.08925  -1.08828
 Alpha  occ. eigenvalues --   -1.04864  -1.04025  -0.96483  -0.95681  -0.87505
 Alpha  occ. eigenvalues --   -0.86256  -0.82508  -0.80101  -0.78704  -0.77545
 Alpha  occ. eigenvalues --   -0.72105  -0.71233  -0.70586  -0.65540  -0.65109
 Alpha  occ. eigenvalues --   -0.64846  -0.62202  -0.61428  -0.59868  -0.58099
 Alpha  occ. eigenvalues --   -0.55920  -0.55251  -0.53247  -0.53146  -0.52949
 Alpha  occ. eigenvalues --   -0.52889  -0.50427  -0.48866  -0.48859  -0.48411
 Alpha  occ. eigenvalues --   -0.47122  -0.46247  -0.46139  -0.44860  -0.44250
 Alpha  occ. eigenvalues --   -0.37384  -0.36447
 Alpha virt. eigenvalues --    0.04934   0.11102   0.16291   0.20200   0.22748
 Alpha virt. eigenvalues --    0.23874   0.25825   0.26377   0.26588   0.27991
 Alpha virt. eigenvalues --    0.28794   0.30365   0.31126   0.31630   0.32129

 Mulliken charges:
               1
     1  C   -0.172664
     2  C   -0.219005
     3  C   -0.172262
     4  C    0.158707
     5  C   -0.170830
     6  C   -0.220061
     7  H    0.231691
     8  H    0.226036
     9  H    0.276289
    10  H    0.276017
    11  H    0.224172
    12  N    0.488018
    13  O   -0.460133
    14  O   -0.460032
    15  C   -0.297762
    16  C   -0.300661
    17  C   -0.475974
    18  H    0.150316
    19  H    0.151661
    20  H    0.150062
    21  H    0.151932
    22  H    0.157510
    23  H    0.155082
    24  H    0.162208
    25  C   -0.306808
    26  C   -0.298835
    27  C   -0.477923
    28  H    0.146664
    29  H    0.154270
    30  H    0.154905
    31  H    0.153619
    32  H    0.143611
    33  H    0.156622
    34  H    0.163558
 Sum of Mulliken charges =  -0.00000

 Dipole moment (field-independent basis, Debye):
    X=              3.5627    Y=             -3.5715    Z=              1.0316  Tot=              5.1490
 Quadrupole moment (field-independent basis, Debye-Ang):
   XX=           -112.8975   YY=            -93.8810   ZZ=            -91.2876
   XY=              9.8446   XZ=             -1.0709   YZ=              2.3678

 Normal termination of Gaussian 16 at Wed May  5 23:41:41 2021.
