 Gaussian 16, Revision A.03,
 Gaussian 16:  EM64L-G16RevA.03 25-Dec-2016

 -------------
 #p 6-31g* mp2
 -------------

 ------------------------------------------------------
 Input file generated by CHIRIPA (05-May-2021 14:55:24)
 ------------------------------------------------------
 Symbolic Z-matrix:
 Charge =  0 Multiplicity = 1

                         Standard orientation:
 ---------------------------------------------------------------------
 Center     Atomic      Atomic             Coordinates (Angstroms)
 Number     Number       Type             X           Y           Z
 ---------------------------------------------------------------------
      1          6           0       -1.009557    1.326716   -1.281755
      2          6           0       -2.342932    1.749343   -1.277400
      3          6           0       -3.334871    0.963584   -0.683103
      4          6           0       -2.956366   -0.244586   -0.099709
      5          6           0       -1.636470   -0.692944   -0.087902
      6          6           0       -0.661196    0.109068   -0.688039
      7          1           0       -0.245468    1.943425   -1.745688
      8          1           0       -2.616380    2.694521   -1.737735
      9          1           0       -4.374694    1.266693   -0.665483
     10          1           0       -1.394508   -1.640020    0.378917
     11          1           0        0.373527   -0.221673   -0.689928
     12          7           0       -3.997666   -1.085037    0.532538
     13          8           0       -3.638348   -2.145322    1.039810
     14          8           0       -5.153438   -0.667584    0.508850
     15          6           0        3.818302   -0.567858    0.415647
     16          6           0        4.414354   -1.278273   -0.800090
     17          6           0        4.917778   -2.684884   -0.474817
     18          1           0        4.576628   -0.513181    1.208678
     19          1           0        2.991259   -1.171059    0.815074
     20          1           0        5.239131   -0.673232   -1.197937
     21          1           0        3.654582   -1.331094   -1.590389
     22          1           0        4.100763   -3.309060   -0.098663
     23          1           0        5.694316   -2.647460    0.296019
     24          1           0        5.339792   -3.174478   -1.358028
     25          6           0        3.310651    0.839397    0.106365
     26          6           0        2.714599    1.549813    1.322103
     27          6           0        2.211175    2.956424    0.996830
     28          1           0        4.137694    1.442599   -0.293060
     29          1           0        2.552325    0.784720   -0.686665
     30          1           0        3.474372    1.602633    2.112402
     31          1           0        1.889821    0.944772    1.719951
     32          1           0        1.434637    2.918999    0.225994
     33          1           0        3.028190    3.580599    0.620675
     34          1           0        1.789162    3.446016    1.880042
 ---------------------------------------------------------------------

 SCF Done:  E(RHF) =  -669.535278372     A.U. after   15 cycles
 E2 =    -0.2092606367D+01 EUMP2 =    -0.67162788473877D+03

 The electronic state is 1-A.
 Alpha  occ. eigenvalues --  -20.60782 -20.60777 -15.85836 -11.31215 -11.27781
 Alpha  occ. eigenvalues --  -11.27777 -11.27527 -11.26799 -11.26779 -11.22477
 Alpha  occ. eigenvalues --  -11.22417 -11.22390 -11.22266 -11.21910 -11.21672
 Alpha  occ. eigenvalues --   -1.59857  -1.39411  -1.19387  -1.09348  -1.08779
 Alpha  occ. eigenvalues --   -1.04792  -1.04333  -0.96796  -0.95614  -0.87806
 Alpha  occ. eigenvalues --   -0.86192  -0.82445  -0.80399  -0.79163  -0.77492
 Alpha  occ. eigenvalues --   -0.72055  -0.71180  -0.70507  -0.66148  -0.65038
 Alpha  occ. eigenvalues --   -0.64694  -0.62161  -0.61685  -0.60150  -0.58400
 Alpha  occ. eigenvalues --   -0.56157  -0.55261  -0.53436  -0.53241  -0.53087
 Alpha  occ. eigenvalues --   -0.52865  -0.50730  -0.48813  -0.48809  -0.48705
 Alpha  occ. eigenvalues --   -0.47444  -0.46689  -0.46627  -0.44813  -0.44622
 Alpha  occ. eigenvalues --   -0.37353  -0.36386
 Alpha virt. eigenvalues --    0.05013   0.11181   0.16403   0.18352   0.22339
 Alpha virt. eigenvalues --    0.23780   0.25163   0.25515   0.26585   0.28563
 Alpha virt. eigenvalues --    0.29080   0.30984   0.31285   0.31465   0.32055

 Mulliken charges:
               1
     1  C   -0.172728
     2  C   -0.218808
     3  C   -0.171020
     4  C    0.159115
     5  C   -0.172219
     6  C   -0.223165
     7  H    0.226404
     8  H    0.223828
     9  H    0.275784
    10  H    0.275688
    11  H    0.231516
    12  N    0.487970
    13  O   -0.460353
    14  O   -0.460268
    15  C   -0.300256
    16  C   -0.299799
    17  C   -0.476137
    18  H    0.155002
    19  H    0.147140
    20  H    0.154358
    21  H    0.147936
    22  H    0.156001
    23  H    0.157473
    24  H    0.162742
    25  C   -0.300956
    26  C   -0.301424
    27  C   -0.476321
    28  H    0.154567
    29  H    0.137027
    30  H    0.156734
    31  H    0.153960
    32  H    0.148255
    33  H    0.156526
    34  H    0.165429
 Sum of Mulliken charges =  -0.00000

 Dipole moment (field-independent basis, Debye):
    X=              3.8333    Y=              2.9596    Z=             -2.1300  Tot=              5.2906
 Quadrupole moment (field-independent basis, Debye-Ang):
   XX=           -112.6935   YY=            -94.9995   ZZ=            -94.6220
   XY=            -11.7952   XZ=              7.7269   YZ=             -0.4330

 Normal termination of Gaussian 16 at Wed May  5 22:25:50 2021.
