 Gaussian 16, Revision A.03,
 Gaussian 16:  EM64L-G16RevA.03 25-Dec-2016

 -------------
 #p 6-31g* mp2
 -------------

 ------------------------------------------------------
 Input file generated by CHIRIPA (05-May-2021 14:55:24)
 ------------------------------------------------------
 Symbolic Z-matrix:
 Charge =  0 Multiplicity = 1

                         Standard orientation:
 ---------------------------------------------------------------------
 Center     Atomic      Atomic             Coordinates (Angstroms)
 Number     Number       Type             X           Y           Z
 ---------------------------------------------------------------------
      1          6           0        5.270097   -0.147253   -0.763641
      2          6           0        5.011138    0.140869    0.580400
      3          6           0        3.703233    0.112210    1.073462
      4          6           0        2.673614   -0.209939    0.190629
      5          6           0        2.899540   -0.501776   -1.153647
      6          6           0        4.215331   -0.467092   -1.624857
      7          1           0        6.289173   -0.122650   -1.138176
      8          1           0        5.828316    0.389583    1.251524
      9          1           0        3.474448    0.331053    2.109408
     10          1           0        2.064207   -0.746310   -1.798504
     11          1           0        4.413475   -0.691293   -2.669135
     12          7           0        1.284818   -0.243469    0.701045
     13          8           0        0.395224   -0.530150   -0.097123
     14          8           0        1.112173    0.017567    1.889611
     15          6           0       -4.131720   -0.314313   -0.415998
     16          6           0       -4.018173   -1.599235    0.405017
     17          6           0       -4.857103   -2.742361   -0.167043
     18          1           0       -5.186009   -0.009100   -0.463589
     19          1           0       -3.818557   -0.518754   -1.449211
     20          1           0       -4.330140   -1.392099    1.436709
     21          1           0       -2.964008   -1.901319    0.450820
     22          1           0       -4.541986   -2.977573   -1.188795
     23          1           0       -5.915881   -2.465460   -0.197305
     24          1           0       -4.761187   -3.651146    0.435262
     25          6           0       -3.298690    0.837611    0.143342
     26          6           0       -3.412237    2.122533   -0.677673
     27          6           0       -2.573307    3.265659   -0.105613
     28          1           0       -3.611853    1.042052    1.176554
     29          1           0       -2.244401    0.532397    0.190933
     30          1           0       -4.466402    2.424617   -0.723477
     31          1           0       -3.100269    1.915397   -1.709365
     32          1           0       -1.514529    2.988758   -0.075352
     33          1           0       -2.888424    3.500871    0.916139
     34          1           0       -2.669222    4.174443   -0.707918
 ---------------------------------------------------------------------

 SCF Done:  E(RHF) =  -669.536716729     A.U. after   15 cycles
 E2 =    -0.2091358194D+01 EUMP2 =    -0.67162807492362D+03

 The electronic state is 1-A.
 Alpha  occ. eigenvalues --  -20.61119 -20.61103 -15.86123 -11.31390 -11.27944
 Alpha  occ. eigenvalues --  -11.27938 -11.27670 -11.26936 -11.26926 -11.20403
 Alpha  occ. eigenvalues --  -11.20269 -11.20069 -11.20059 -11.20021 -11.19673
 Alpha  occ. eigenvalues --   -1.60158  -1.39716  -1.19550  -1.08965  -1.07065
 Alpha  occ. eigenvalues --   -1.04936  -1.02326  -0.95815  -0.94778  -0.86340
 Alpha  occ. eigenvalues --   -0.85806  -0.82651  -0.78375  -0.77711  -0.76840
 Alpha  occ. eigenvalues --   -0.72339  -0.71465  -0.70657  -0.65206  -0.64939
 Alpha  occ. eigenvalues --   -0.63683  -0.62284  -0.59730  -0.58157  -0.56391
 Alpha  occ. eigenvalues --   -0.55444  -0.54068  -0.53271  -0.53027  -0.51542
 Alpha  occ. eigenvalues --   -0.51217  -0.49171  -0.49092  -0.48691  -0.46705
 Alpha  occ. eigenvalues --   -0.45416  -0.45128  -0.44424  -0.44145  -0.42522
 Alpha  occ. eigenvalues --   -0.37525  -0.36534
 Alpha virt. eigenvalues --    0.04800   0.11122   0.16306   0.21258   0.24198
 Alpha virt. eigenvalues --    0.25423   0.27186   0.27904   0.28204   0.28860
 Alpha virt. eigenvalues --    0.29275   0.30860   0.32387   0.32493   0.32901

 Mulliken charges:
               1
     1  C   -0.170349
     2  C   -0.218592
     3  C   -0.170463
     4  C    0.157722
     5  C   -0.170670
     6  C   -0.218534
     7  H    0.226382
     8  H    0.224205
     9  H    0.276174
    10  H    0.275758
    11  H    0.224171
    12  N    0.489129
    13  O   -0.461180
    14  O   -0.457299
    15  C   -0.295655
    16  C   -0.301966
    17  C   -0.474883
    18  H    0.142860
    19  H    0.146226
    20  H    0.149452
    21  H    0.164714
    22  H    0.152441
    23  H    0.151440
    24  H    0.157049
    25  C   -0.312674
    26  C   -0.297586
    27  C   -0.474515
    28  H    0.145012
    29  H    0.182173
    30  H    0.146212
    31  H    0.148121
    32  H    0.157379
    33  H    0.154121
    34  H    0.153624
 Sum of Mulliken charges =  -0.00000

 Dipole moment (field-independent basis, Debye):
    X=              5.3722    Y=              0.0278    Z=             -1.7000  Tot=              5.6348
 Quadrupole moment (field-independent basis, Debye-Ang):
   XX=            -69.8064   YY=            -96.9541   ZZ=            -91.2038
   XY=             -0.8349   XZ=             -3.1611   YZ=              1.7721

 Normal termination of Gaussian 16 at Wed May  5 22:22:19 2021.
