 Gaussian 16, Revision A.03,
 Gaussian 16:  EM64L-G16RevA.03 25-Dec-2016

 -------------
 #p 6-31g* mp2
 -------------

 ------------------------------------------------------
 Input file generated by CHIRIPA (05-May-2021 14:57:27)
 ------------------------------------------------------
 Symbolic Z-matrix:
 Charge =  0 Multiplicity = 1

                         Standard orientation:
 ---------------------------------------------------------------------
 Center     Atomic      Atomic             Coordinates (Angstroms)
 Number     Number       Type             X           Y           Z
 ---------------------------------------------------------------------
      1          6           0       -2.063778    2.166193   -0.445244
      2          6           0       -3.416364    2.435156   -0.211380
      3          6           0       -4.330721    1.389819   -0.050847
      4          6           0       -3.855888    0.081586   -0.130533
      5          6           0       -2.514470   -0.218622   -0.362399
      6          6           0       -1.617934    0.842496   -0.519875
      7          1           0       -1.360406    2.984366   -0.568762
      8          1           0       -3.765445    3.462176   -0.152927
      9          1           0       -5.383315    1.569598    0.131206
     10          1           0       -2.196336   -1.252737   -0.415475
     11          1           0       -0.568071    0.630635   -0.701392
     12          7           0       -4.814443   -1.033419    0.037798
     13          8           0       -4.370916   -2.177254   -0.036790
     14          8           0       -5.991136   -0.742413    0.241136
     15          6           0        5.991663    0.486885   -0.575715
     16          6           0        5.415366    1.024047    0.580078
     17          6           0        4.145024    0.614635    0.996207
     18          6           0        3.476155   -0.338076    0.229235
     19          6           0        4.023674   -0.891872   -0.926974
     20          6           0        5.295206   -0.467678   -1.324234
     21          1           0        6.978957    0.810667   -0.891644
     22          1           0        5.953929    1.765526    1.163348
     23          1           0        3.675351    1.014071    1.886868
     24          1           0        3.462417   -1.629400   -1.487742
     25          1           0        5.740300   -0.886567   -2.222269
     26          7           0        2.130671   -0.779326    0.659785
     27          8           0        1.561988   -1.620029   -0.033365
     28          8           0        1.670241   -0.276121    1.682244
 ---------------------------------------------------------------------

 SCF Done:  E(RHF) =  -868.339159999     A.U. after   16 cycles
 E2 =    -0.2598941760D+01 EUMP2 =    -0.87093810175913D+03

 The electronic state is 1-A.
 Alpha  occ. eigenvalues --  -20.61741 -20.61725 -20.59886 -20.59865 -15.86755
 Alpha  occ. eigenvalues --  -15.84925 -11.31923 -11.30167 -11.28463 -11.28457
 Alpha  occ. eigenvalues --  -11.28155 -11.27422 -11.27409 -11.26798 -11.26597
 Alpha  occ. eigenvalues --  -11.26516 -11.25835 -11.25629  -1.60815  -1.58956
 Alpha  occ. eigenvalues --   -1.40364  -1.38511  -1.20076  -1.18339  -1.09507
 Alpha  occ. eigenvalues --   -1.07780  -1.05440  -1.03701  -0.96370  -0.94626
 Alpha  occ. eigenvalues --   -0.86846  -0.85130  -0.83200  -0.81443  -0.78279
 Alpha  occ. eigenvalues --   -0.76492  -0.72958  -0.72150  -0.71166  -0.71151
 Alpha  occ. eigenvalues --   -0.70276  -0.69483  -0.65721  -0.65430  -0.63993
 Alpha  occ. eigenvalues --   -0.63713  -0.62783  -0.61036  -0.55937  -0.54287
 Alpha  occ. eigenvalues --   -0.53790  -0.53520  -0.52068  -0.51795  -0.49740
 Alpha  occ. eigenvalues --   -0.49705  -0.47911  -0.47895  -0.45802  -0.43943
 Alpha  occ. eigenvalues --   -0.38046  -0.37036  -0.36361  -0.35285
 Alpha virt. eigenvalues --    0.04202   0.06014   0.10621   0.12345   0.15738
 Alpha virt. eigenvalues --    0.17519   0.20811   0.22366   0.26750   0.27587
 Alpha virt. eigenvalues --    0.28256   0.29263   0.30423   0.31764   0.31940

 Mulliken charges:
               1
     1  C   -0.171538
     2  C   -0.219016
     3  C   -0.172536
     4  C    0.157406
     5  C   -0.169781
     6  C   -0.213886
     7  H    0.220162
     8  H    0.218777
     9  H    0.272131
    10  H    0.284115
    11  H    0.226972
    12  N    0.488037
    13  O   -0.459185
    14  O   -0.464552
    15  C   -0.169959
    16  C   -0.218667
    17  C   -0.171598
    18  C    0.155919
    19  C   -0.171419
    20  C   -0.218543
    21  H    0.228104
    22  H    0.225487
    23  H    0.276364
    24  H    0.276759
    25  H    0.225986
    26  N    0.484924
    27  O   -0.463608
    28  O   -0.456854
 Sum of Mulliken charges =  -0.00000

 Dipole moment (field-independent basis, Debye):
    X=              8.6033    Y=              5.3329    Z=             -2.0750  Tot=             10.3326
 Quadrupole moment (field-independent basis, Debye-Ang):
   XX=            -96.0735   YY=           -102.3610   ZZ=           -103.2513
   XY=            -13.1090   XZ=             -2.9109   YZ=              3.7394

 Normal termination of Gaussian 16 at Fri May  7 09:44:12 2021.
