 Gaussian 16, Revision A.03,
 Gaussian 16:  EM64L-G16RevA.03 25-Dec-2016

 -------------
 #p 6-31g* mp2
 -------------

 ------------------------------------------------------
 Input file generated by CHIRIPA (05-May-2021 14:55:24)
 ------------------------------------------------------
 Symbolic Z-matrix:
 Charge =  0 Multiplicity = 1

                         Standard orientation:
 ---------------------------------------------------------------------
 Center     Atomic      Atomic             Coordinates (Angstroms)
 Number     Number       Type             X           Y           Z
 ---------------------------------------------------------------------
      1          6           0        4.588163   -1.100790   -1.042593
      2          6           0        3.483725   -1.928662   -0.815950
      3          6           0        2.387880   -1.465356   -0.081772
      4          6           0        2.430158   -0.162899    0.413313
      5          6           0        3.515953    0.686035    0.204385
      6          6           0        4.600730    0.201619   -0.532601
      7          1           0        5.435143   -1.468897   -1.614012
      8          1           0        3.471213   -2.940577   -1.210811
      9          1           0        1.519993   -2.084996    0.108584
     10          1           0        3.499425    1.690052    0.610704
     11          1           0        5.457102    0.846784   -0.707054
     12          7           0        1.275895    0.338756    1.192041
     13          8           0        1.337627    1.490199    1.617488
     14          8           0        0.331307   -0.428989    1.362217
     15          6           0       -4.050549    0.019375   -0.471505
     16          6           0       -4.284387   -1.278666    0.302055
     17          6           0       -5.682157   -1.856564    0.078298
     18          1           0       -4.806556    0.758259   -0.172424
     19          1           0       -4.203566   -0.168076   -1.543347
     20          1           0       -4.129622   -1.089146    1.371982
     21          1           0       -3.527619   -2.014483    0.001237
     22          1           0       -5.843965   -2.073720   -0.982486
     23          1           0       -6.449389   -1.143127    0.396049
     24          1           0       -5.827790   -2.784206    0.640554
     25          6           0       -2.657662    0.609304   -0.258016
     26          6           0       -2.423823    1.907345   -1.031576
     27          6           0       -1.026053    2.485243   -0.807819
     28          1           0       -2.504646    0.796754    0.813825
     29          1           0       -1.901655   -0.129580   -0.557098
     30          1           0       -3.180592    2.643161   -0.730758
     31          1           0       -2.578588    1.717825   -2.101503
     32          1           0       -0.258823    1.771805   -1.125569
     33          1           0       -0.864246    2.702400    0.252964
     34          1           0       -0.880422    3.412884   -1.370076
 ---------------------------------------------------------------------

 SCF Done:  E(RHF) =  -669.535710334     A.U. after   15 cycles
 E2 =    -0.2093226618D+01 EUMP2 =    -0.67162893695231D+03

 The electronic state is 1-A.
 Alpha  occ. eigenvalues --  -20.60956 -20.60937 -15.85932 -11.31289 -11.27851
 Alpha  occ. eigenvalues --  -11.27842 -11.27585 -11.26856 -11.26844 -11.20694
 Alpha  occ. eigenvalues --  -11.20484 -11.20384 -11.20367 -11.19935 -11.19863
 Alpha  occ. eigenvalues --   -1.59986  -1.39545  -1.19453  -1.08856  -1.07327
 Alpha  occ. eigenvalues --   -1.04849  -1.02522  -0.95697  -0.94958  -0.86250
 Alpha  occ. eigenvalues --   -0.85977  -0.82535  -0.78599  -0.77591  -0.77076
 Alpha  occ. eigenvalues --   -0.72179  -0.71281  -0.70560  -0.65109  -0.64853
 Alpha  occ. eigenvalues --   -0.63974  -0.62196  -0.59935  -0.58341  -0.56563
 Alpha  occ. eigenvalues --   -0.55353  -0.54253  -0.53179  -0.52941  -0.51709
 Alpha  occ. eigenvalues --   -0.51394  -0.49068  -0.48983  -0.48783  -0.46874
 Alpha  occ. eigenvalues --   -0.45667  -0.45050  -0.44495  -0.44388  -0.42737
 Alpha  occ. eigenvalues --   -0.37426  -0.36449
 Alpha virt. eigenvalues --    0.04904   0.11202   0.16367   0.21315   0.23855
 Alpha virt. eigenvalues --    0.25197   0.27173   0.27577   0.28123   0.28699
 Alpha virt. eigenvalues --    0.28937   0.30990   0.32185   0.32390   0.32675

 Mulliken charges:
               1
     1  C   -0.170542
     2  C   -0.218554
     3  C   -0.171413
     4  C    0.157403
     5  C   -0.170442
     6  C   -0.218592
     7  H    0.225989
     8  H    0.223768
     9  H    0.275631
    10  H    0.276268
    11  H    0.223889
    12  N    0.489722
    13  O   -0.458156
    14  O   -0.457684
    15  C   -0.298620
    16  C   -0.297602
    17  C   -0.475099
    18  H    0.146520
    19  H    0.143659
    20  H    0.155801
    21  H    0.149972
    22  H    0.152138
    23  H    0.153960
    24  H    0.157601
    25  C   -0.297160
    26  C   -0.300022
    27  C   -0.477078
    28  H    0.164302
    29  H    0.150523
    30  H    0.148511
    31  H    0.144340
    32  H    0.140781
    33  H    0.177959
    34  H    0.152227
 Sum of Mulliken charges =  -0.00000

 Dipole moment (field-independent basis, Debye):
    X=              4.3386    Y=             -1.7637    Z=             -2.4593  Tot=              5.2898
 Quadrupole moment (field-independent basis, Debye-Ang):
   XX=            -76.2189   YY=            -90.7085   ZZ=            -97.4165
   XY=             -3.5627   XZ=             -5.8151   YZ=              1.2253

 Normal termination of Gaussian 16 at Wed May  5 19:07:16 2021.
