 Gaussian 16, Revision A.03,
 Gaussian 16:  EM64L-G16RevA.03 25-Dec-2016

 -------------
 #p 6-31g* mp2
 -------------

 ------------------------------------------------------
 Input file generated by CHIRIPA (05-May-2021 14:51:07)
 ------------------------------------------------------
 Symbolic Z-matrix:
 Charge =  0 Multiplicity = 1

                         Standard orientation:
 ---------------------------------------------------------------------
 Center     Atomic      Atomic             Coordinates (Angstroms)
 Number     Number       Type             X           Y           Z
 ---------------------------------------------------------------------
      1          6           0       -3.822533   -0.166541   -0.209497
      2          6           0       -3.297715   -1.466551    0.400851
      3          6           0       -4.084981   -2.694677   -0.057094
      4          1           0       -4.881480   -0.045248    0.056707
      5          1           0       -3.782241   -0.241513   -1.305010
      6          1           0       -3.337693   -1.388620    1.494901
      7          1           0       -2.239843   -1.584668    0.133324
      8          1           0       -4.035125   -2.800343   -1.145648
      9          1           0       -5.139213   -2.603181    0.223665
     10          1           0       -3.692970   -3.612944    0.391205
     11          6           0       -3.045696    1.070095    0.238815
     12          6           0       -3.570514    2.370106   -0.371533
     13          6           0       -2.783248    3.598231    0.086412
     14          1           0       -3.085989    1.145068    1.334329
     15          1           0       -1.986749    0.948802   -0.027389
     16          1           0       -4.628386    2.488222   -0.104006
     17          1           0       -3.530537    2.292174   -1.465583
     18          1           0       -1.729017    3.506736   -0.194347
     19          1           0       -2.833104    3.703898    1.174966
     20          1           0       -3.175260    4.516499   -0.361887
     21          6           0        3.115647   -1.131761   -0.154776
     22          6           0        1.618124   -1.174568    0.151125
     23          6           0        0.995310   -2.541484   -0.134243
     24          1           0        3.275789   -1.396383   -1.208946
     25          1           0        3.626718   -1.900284    0.441525
     26          1           0        1.110215   -0.405268   -0.444545
     27          1           0        1.461514   -0.909627    1.204640
     28          1           0        1.475509   -3.317468    0.470622
     29          1           0        1.122215   -2.810243   -1.187934
     30          1           0       -0.075621   -2.549697    0.091368
     31          6           0        3.752582    0.228206    0.125458
     32          6           0        5.250106    0.271014   -0.180443
     33          6           0        5.872920    1.637930    0.104925
     34          1           0        3.241511    0.996729   -0.470843
     35          1           0        3.592440    0.492829    1.179628
     36          1           0        5.406716    0.006072   -1.233959
     37          1           0        5.758015   -0.498286    0.415227
     38          1           0        5.746014    1.906688    1.158616
     39          1           0        5.392720    2.413913   -0.499940
     40          1           0        6.943851    1.646143   -0.120687
 ---------------------------------------------------------------------

 SCF Done:  E(RHF) =  -470.733384515     A.U. after   11 cycles
 E2 =    -0.1582667393D+01 EUMP2 =    -0.47231605190740D+03

 The electronic state is 1-A.
 Alpha  occ. eigenvalues --  -11.21634 -11.21613 -11.21599 -11.21596 -11.21424
 Alpha  occ. eigenvalues --  -11.21401 -11.21364 -11.21341 -11.21078 -11.21077
 Alpha  occ. eigenvalues --  -11.21070 -11.21067  -1.08452  -1.08426  -1.03558
 Alpha  occ. eigenvalues --   -1.03519  -0.96002  -0.95970  -0.87024  -0.86982
 Alpha  occ. eigenvalues --   -0.79638  -0.79567  -0.78269  -0.78234  -0.65094
 Alpha  occ. eigenvalues --   -0.65052  -0.60967  -0.60934  -0.59465  -0.59252
 Alpha  occ. eigenvalues --   -0.57666  -0.57529  -0.55280  -0.55263  -0.52733
 Alpha  occ. eigenvalues --   -0.52652  -0.52448  -0.52375  -0.49941  -0.49907
 Alpha  occ. eigenvalues --   -0.48030  -0.47813  -0.46651  -0.46600  -0.45819
 Alpha  occ. eigenvalues --   -0.45772  -0.45740  -0.45669  -0.43807  -0.43749
 Alpha virt. eigenvalues --    0.20998   0.23118   0.23572   0.24491   0.25992
 Alpha virt. eigenvalues --    0.26706   0.27064   0.27253   0.28046   0.29010
 Alpha virt. eigenvalues --    0.30245   0.31434   0.31586   0.31835   0.32045

 Mulliken charges:
               1
     1  C   -0.297504
     2  C   -0.308505
     3  C   -0.475450
     4  H    0.149713
     5  H    0.149416
     6  H    0.151949
     7  H    0.159574
     8  H    0.155266
     9  H    0.155320
    10  H    0.160372
    11  C   -0.299210
    12  C   -0.299674
    13  C   -0.475660
    14  H    0.149580
    15  H    0.150532
    16  H    0.151968
    17  H    0.151797
    18  H    0.155178
    19  H    0.155246
    20  H    0.160189
    21  C   -0.298295
    22  C   -0.299861
    23  C   -0.483414
    24  H    0.149623
    25  H    0.149786
    26  H    0.151336
    27  H    0.152676
    28  H    0.155588
    29  H    0.155031
    30  H    0.167268
    31  C   -0.298264
    32  C   -0.299682
    33  C   -0.475721
    34  H    0.149329
    35  H    0.149856
    36  H    0.151920
    37  H    0.151984
    38  H    0.155264
    39  H    0.155187
    40  H    0.160292
 Sum of Mulliken charges =  -0.00000

 Dipole moment (field-independent basis, Debye):
    X=              0.0041    Y=             -0.0050    Z=              0.0099  Tot=              0.0118
 Quadrupole moment (field-independent basis, Debye-Ang):
   XX=            -84.9050   YY=            -86.5228   ZZ=            -83.2911
   XY=             -1.1408   XZ=             -0.5053   YZ=             -0.5805

 Normal termination of Gaussian 16 at Thu May  6 11:31:33 2021.
