 Gaussian 16, Revision A.03,
 Gaussian 16:  EM64L-G16RevA.03 25-Dec-2016

 -------------
 #p 6-31g* mp2
 -------------

 ------------------------------------------------------
 Input file generated by CHIRIPA (05-May-2021 14:57:21)
 ------------------------------------------------------
 Symbolic Z-matrix:
 Charge =  0 Multiplicity = 1

                         Standard orientation:
 ---------------------------------------------------------------------
 Center     Atomic      Atomic             Coordinates (Angstroms)
 Number     Number       Type             X           Y           Z
 ---------------------------------------------------------------------
      1          6           0        4.481009   -2.345560   -0.281750
      2          6           0        5.448241   -1.335184   -0.292854
      3          6           0        5.072053    0.008779   -0.210431
      4          6           0        3.713659    0.307836   -0.117581
      5          6           0        2.726322   -0.676173   -0.104117
      6          6           0        3.125526   -2.013416   -0.187583
      7          1           0        4.782180   -3.386973   -0.346184
      8          1           0        6.501657   -1.590185   -0.365896
      9          1           0        5.799975    0.810967   -0.216907
     10          1           0        1.683917   -0.390920   -0.030358
     11          1           0        2.372173   -2.795992   -0.178738
     12          7           0        3.303222    1.727072   -0.029771
     13          8           0        2.099982    1.964322    0.051230
     14          8           0        4.192535    2.575346   -0.043609
     15          6           0       -1.431692   -0.133676    1.049484
     16          6           0       -2.166171   -1.317896    0.928310
     17          6           0       -3.468874   -1.296690    0.421296
     18          6           0       -4.008456   -0.068153    0.043360
     19          6           0       -3.302027    1.128701    0.151939
     20          6           0       -2.000960    1.083697    0.661595
     21          1           0       -0.420357   -0.159393    1.444371
     22          1           0       -1.726623   -2.264771    1.228761
     23          1           0       -4.059853   -2.198487    0.316769
     24          1           0       -3.767084    2.057352   -0.155872
     25          1           0       -1.432899    2.004950    0.754577
     26          7           0       -5.386702   -0.033106   -0.494792
     27          8           0       -5.839369    1.062106   -0.820741
     28          8           0       -5.988209   -1.101510   -0.580456
 ---------------------------------------------------------------------

 SCF Done:  E(RHF) =  -868.338551374     A.U. after   16 cycles
 E2 =    -0.2599680668D+01 EUMP2 =    -0.87093823204261D+03

 The electronic state is 1-A.
 Alpha  occ. eigenvalues --  -20.61712 -20.61657 -20.60662 -20.60648 -15.86736
 Alpha  occ. eigenvalues --  -15.85706 -11.32014 -11.31078 -11.28629 -11.28517
 Alpha  occ. eigenvalues --  -11.28253 -11.27663 -11.27590 -11.27529 -11.27508
 Alpha  occ. eigenvalues --  -11.27371 -11.26764 -11.26486  -1.60750  -1.59731
 Alpha  occ. eigenvalues --   -1.40312  -1.39285  -1.20168  -1.19229  -1.09569
 Alpha  occ. eigenvalues --   -1.08635  -1.05566  -1.04612  -0.96427  -0.95473
 Alpha  occ. eigenvalues --   -0.86965  -0.86008  -0.83269  -0.82293  -0.78341
 Alpha  occ. eigenvalues --   -0.77330  -0.72965  -0.72064  -0.71924  -0.71296
 Alpha  occ. eigenvalues --   -0.71053  -0.70347  -0.65824  -0.65564  -0.64876
 Alpha  occ. eigenvalues --   -0.64589  -0.62927  -0.61937  -0.56057  -0.55152
 Alpha  occ. eigenvalues --   -0.53883  -0.53637  -0.52953  -0.52683  -0.49726
 Alpha  occ. eigenvalues --   -0.49689  -0.48682  -0.48680  -0.45736  -0.44689
 Alpha  occ. eigenvalues --   -0.38120  -0.37237  -0.37162  -0.36204
 Alpha virt. eigenvalues --    0.04188   0.05122   0.10460   0.11438   0.15732
 Alpha virt. eigenvalues --    0.16446   0.19717   0.22006   0.25831   0.26806
 Alpha virt. eigenvalues --    0.27710   0.29271   0.30334   0.30956   0.32699

 Mulliken charges:
               1
     1  C   -0.169879
     2  C   -0.218094
     3  C   -0.169665
     4  C    0.159075
     5  C   -0.176870
     6  C   -0.219120
     7  H    0.228324
     8  H    0.226476
     9  H    0.277724
    10  H    0.273421
    11  H    0.222732
    12  N    0.489175
    13  O   -0.469393
    14  O   -0.455092
    15  C   -0.177744
    16  C   -0.219699
    17  C   -0.171908
    18  C    0.159456
    19  C   -0.171901
    20  C   -0.218039
    21  H    0.225412
    22  H    0.217405
    23  H    0.274074
    24  H    0.277287
    25  H    0.239697
    26  N    0.487951
    27  O   -0.459121
    28  O   -0.461684
 Sum of Mulliken charges =  -0.00000

 Dipole moment (field-independent basis, Debye):
    X=              6.5645    Y=             -4.9565    Z=              1.5374  Tot=              8.3680
 Quadrupole moment (field-independent basis, Debye-Ang):
   XX=           -127.6965   YY=           -102.7987   ZZ=           -106.2746
   XY=            -16.8157   XZ=             -9.1781   YZ=             -0.1723

 Normal termination of Gaussian 16 at Thu May  6 12:49:56 2021.
