 Gaussian 16, Revision A.03,
 Gaussian 16:  EM64L-G16RevA.03 25-Dec-2016

 -------------
 #p 6-31g* mp2
 -------------

 ------------------------------------------------------
 Input file generated by CHIRIPA (05-May-2021 14:51:14)
 ------------------------------------------------------
 Symbolic Z-matrix:
 Charge =  0 Multiplicity = 1

                         Standard orientation:
 ---------------------------------------------------------------------
 Center     Atomic      Atomic             Coordinates (Angstroms)
 Number     Number       Type             X           Y           Z
 ---------------------------------------------------------------------
      1          6           0       -4.560175   -0.226984   -0.436430
      2          6           0       -6.029359   -0.277578   -0.015806
      3          6           0       -6.987128   -0.039057   -1.183531
      4          1           0       -4.349196    0.750282   -0.891823
      5          1           0       -4.383248   -0.980156   -1.216701
      6          1           0       -6.203147    0.474523    0.764423
      7          1           0       -6.236818   -1.254767    0.438812
      8          1           0       -6.842738   -0.796188   -1.961030
      9          1           0       -6.808875    0.942927   -1.633569
     10          1           0       -8.032034   -0.079548   -0.860435
     11          6           0       -3.590444   -0.463614    0.720011
     12          6           0       -2.121260   -0.413021    0.299388
     13          6           0       -1.163491   -0.651542    1.467113
     14          1           0       -3.767371    0.289558    1.500283
     15          1           0       -3.801423   -1.440880    1.175405
     16          1           0       -1.913801    0.564169   -0.155230
     17          1           0       -1.947472   -1.165121   -0.480841
     18          1           0       -1.341743   -1.633526    1.917151
     19          1           0       -1.307881    0.105590    2.244612
     20          1           0       -0.118584   -0.611051    1.144017
     21          6           0        3.590615    0.862886   -0.425707
     22          6           0        2.547814    1.336805    0.587187
     23          6           0        1.585376    2.372078    0.004334
     24          1           0        4.158871    1.729611   -0.790149
     25          1           0        3.076693    0.436678   -1.298418
     26          1           0        3.063569    1.760733    1.458334
     27          1           0        1.982103    0.468826    0.949402
     28          1           0        1.044824    1.956316   -0.852140
     29          1           0        2.132434    3.255562   -0.340316
     30          1           0        0.848413    2.697076    0.745360
     31          6           0        4.560004   -0.172287    0.142124
     32          6           0        5.602804   -0.646206   -0.870768
     33          6           0        6.565242   -1.681480   -0.287915
     34          1           0        5.073925    0.253921    1.014836
     35          1           0        3.991748   -1.039012    0.506566
     36          1           0        6.168515    0.221771   -1.232984
     37          1           0        5.087050   -1.070135   -1.741917
     38          1           0        6.018185   -2.564965    0.056735
     39          1           0        7.105795   -1.265718    0.568558
     40          1           0        7.302205   -2.006478   -1.028942
 ---------------------------------------------------------------------

 SCF Done:  E(RHF) =  -470.733297305     A.U. after   11 cycles
 E2 =    -0.1582676633D+01 EUMP2 =    -0.47231597393889D+03

 The electronic state is 1-A.
 Alpha  occ. eigenvalues --  -11.21602 -11.21601 -11.21599 -11.21583 -11.21406
 Alpha  occ. eigenvalues --  -11.21401 -11.21346 -11.21342 -11.21071 -11.21070
 Alpha  occ. eigenvalues --  -11.21068 -11.21067  -1.08439  -1.08419  -1.03559
 Alpha  occ. eigenvalues --   -1.03499  -0.96012  -0.95946  -0.87006  -0.86988
 Alpha  occ. eigenvalues --   -0.79643  -0.79543  -0.78253  -0.78230  -0.65091
 Alpha  occ. eigenvalues --   -0.65042  -0.61026  -0.60887  -0.59447  -0.59233
 Alpha  occ. eigenvalues --   -0.57660  -0.57510  -0.55314  -0.55207  -0.52713
 Alpha  occ. eigenvalues --   -0.52646  -0.52416  -0.52390  -0.49941  -0.49899
 Alpha  occ. eigenvalues --   -0.47988  -0.47847  -0.46671  -0.46566  -0.45794
 Alpha  occ. eigenvalues --   -0.45778  -0.45719  -0.45684  -0.43805  -0.43718
 Alpha virt. eigenvalues --    0.20915   0.23064   0.23552   0.25362   0.26099
 Alpha virt. eigenvalues --    0.26452   0.27047   0.27443   0.27878   0.29068
 Alpha virt. eigenvalues --    0.30156   0.31122   0.31396   0.32041   0.32189

 Mulliken charges:
               1
     1  C   -0.298284
     2  C   -0.299643
     3  C   -0.475711
     4  H    0.149793
     5  H    0.149419
     6  H    0.151964
     7  H    0.151912
     8  H    0.155146
     9  H    0.155232
    10  H    0.160255
    11  C   -0.298498
    12  C   -0.300244
    13  C   -0.481776
    14  H    0.149577
    15  H    0.149612
    16  H    0.153512
    17  H    0.151359
    18  H    0.154951
    19  H    0.155246
    20  H    0.166274
    21  C   -0.297990
    22  C   -0.306431
    23  C   -0.476073
    24  H    0.149670
    25  H    0.149378
    26  H    0.152228
    27  H    0.157770
    28  H    0.155604
    29  H    0.155119
    30  H    0.160648
    31  C   -0.298301
    32  C   -0.299647
    33  C   -0.475719
    34  H    0.149647
    35  H    0.149488
    36  H    0.151954
    37  H    0.151907
    38  H    0.155213
    39  H    0.155205
    40  H    0.160234
 Sum of Mulliken charges =  -0.00000

 Dipole moment (field-independent basis, Debye):
    X=              0.0012    Y=              0.0071    Z=              0.0039  Tot=              0.0082
 Quadrupole moment (field-independent basis, Debye-Ang):
   XX=            -85.6834   YY=            -83.7824   ZZ=            -85.3098
   XY=              1.1953   XZ=             -0.6082   YZ=              0.7542

 Normal termination of Gaussian 16 at Wed May  5 23:15:52 2021.
