 Gaussian 16, Revision A.03,
 Gaussian 16:  EM64L-G16RevA.03 25-Dec-2016

 -------------
 #p 6-31g* mp2
 -------------

 ------------------------------------------------------
 Input file generated by CHIRIPA (05-May-2021 14:51:11)
 ------------------------------------------------------
 Symbolic Z-matrix:
 Charge =  0 Multiplicity = 1

                         Standard orientation:
 ---------------------------------------------------------------------
 Center     Atomic      Atomic             Coordinates (Angstroms)
 Number     Number       Type             X           Y           Z
 ---------------------------------------------------------------------
      1          6           0        3.481838    0.785895   -0.276433
      2          6           0        3.570792    2.050264    0.578812
      3          6           0        3.414880    3.331063   -0.241578
      4          1           0        4.257068    0.821592   -1.054050
      5          1           0        2.515331    0.772343   -0.798999
      6          1           0        4.536274    2.060740    1.100685
      7          1           0        2.795384    2.011464    1.354604
      8          1           0        2.445525    3.347164   -0.750196
      9          1           0        4.196306    3.396720   -1.005557
     10          1           0        3.481698    4.222721    0.389565
     11          6           0        3.635859   -0.502710    0.529484
     12          6           0        3.546905   -1.767079   -0.325761
     13          6           0        3.702817   -3.047878    0.494629
     14          1           0        4.602366   -0.489157    1.052051
     15          1           0        2.860630   -0.538407    1.307102
     16          1           0        4.322314   -1.728279   -1.101552
     17          1           0        2.581424   -1.777555   -0.847634
     18          1           0        2.921391   -3.113534    1.258608
     19          1           0        4.672172   -3.063978    1.003247
     20          1           0        3.636000   -3.939536   -0.136513
     21          6           0       -4.122389    0.336762    0.065908
     22          6           0       -5.491794   -0.339132    0.142612
     23          6           0       -6.608947    0.630770    0.528686
     24          1           0       -3.892131    0.795627    1.037180
     25          1           0       -4.166235    1.156492   -0.664514
     26          1           0       -5.444998   -1.158226    0.871659
     27          1           0       -5.718734   -0.796604   -0.828899
     28          1           0       -6.684570    1.442042   -0.202559
     29          1           0       -6.409279    1.078366    1.507661
     30          1           0       -7.579163    0.126643    0.577659
     31          6           0       -2.995308   -0.619947   -0.318959
     32          6           0       -1.625904    0.055946   -0.395663
     33          6           0       -0.508749   -0.913956   -0.781738
     34          1           0       -2.951463   -1.439677    0.411463
     35          1           0       -3.225567   -1.078812   -1.290232
     36          1           0       -1.398963    0.513418    0.575848
     37          1           0       -1.672700    0.875040   -1.124710
     38          1           0       -0.708419   -1.361551   -1.760712
     39          1           0       -0.433127   -1.725227   -0.050492
     40          1           0        0.461465   -0.409829   -0.830711
 ---------------------------------------------------------------------

 SCF Done:  E(RHF) =  -470.732890884     A.U. after   11 cycles
 E2 =    -0.1583371113D+01 EUMP2 =    -0.47231626199704D+03

 The electronic state is 1-A.
 Alpha  occ. eigenvalues --  -11.21675 -11.21630 -11.21598 -11.21501 -11.21449
 Alpha  occ. eigenvalues --  -11.21389 -11.21388 -11.21320 -11.21138 -11.21093
 Alpha  occ. eigenvalues --  -11.21067 -11.21014  -1.08482  -1.08403  -1.03586
 Alpha  occ. eigenvalues --   -1.03490  -0.96042  -0.95947  -0.87061  -0.86963
 Alpha  occ. eigenvalues --   -0.79665  -0.79547  -0.78293  -0.78217  -0.65129
 Alpha  occ. eigenvalues --   -0.65068  -0.60995  -0.60881  -0.59424  -0.59296
 Alpha  occ. eigenvalues --   -0.57687  -0.57528  -0.55315  -0.55246  -0.52797
 Alpha  occ. eigenvalues --   -0.52601  -0.52471  -0.52356  -0.49982  -0.49884
 Alpha  occ. eigenvalues --   -0.47984  -0.47870  -0.46678  -0.46591  -0.45828
 Alpha  occ. eigenvalues --   -0.45764  -0.45749  -0.45692  -0.43785  -0.43704
 Alpha virt. eigenvalues --    0.20825   0.23063   0.23997   0.24717   0.25976
 Alpha virt. eigenvalues --    0.26543   0.27167   0.27417   0.27843   0.29116
 Alpha virt. eigenvalues --    0.30521   0.31279   0.31759   0.31951   0.32269

 Mulliken charges:
               1
     1  C   -0.304548
     2  C   -0.299237
     3  C   -0.475785
     4  H    0.150115
     5  H    0.153654
     6  H    0.152072
     7  H    0.151868
     8  H    0.155207
     9  H    0.155191
    10  H    0.160269
    11  C   -0.298285
    12  C   -0.305036
    13  C   -0.475367
    14  H    0.149620
    15  H    0.149851
    16  H    0.151274
    17  H    0.159065
    18  H    0.154804
    19  H    0.154743
    20  H    0.160123
    21  C   -0.298285
    22  C   -0.299668
    23  C   -0.475732
    24  H    0.149674
    25  H    0.149622
    26  H    0.151985
    27  H    0.152021
    28  H    0.155241
    29  H    0.155216
    30  H    0.160363
    31  C   -0.298681
    32  C   -0.299505
    33  C   -0.485189
    34  H    0.149651
    35  H    0.149868
    36  H    0.151748
    37  H    0.151956
    38  H    0.155798
    39  H    0.155562
    40  H    0.168758
 Sum of Mulliken charges =  -0.00000

 Dipole moment (field-independent basis, Debye):
    X=             -0.0266    Y=             -0.0000    Z=             -0.0124  Tot=              0.0294
 Quadrupole moment (field-independent basis, Debye-Ang):
   XX=            -84.6353   YY=            -86.1398   ZZ=            -84.0446
   XY=              0.6537   XZ=              0.1934   YZ=              0.1103

 Normal termination of Gaussian 16 at Thu May  6 05:26:48 2021.
