 Gaussian 16, Revision A.03,
 Gaussian 16:  EM64L-G16RevA.03 25-Dec-2016

 -------------
 #p 6-31g* mp2
 -------------

 ------------------------------------------------------
 Input file generated by CHIRIPA (05-May-2021 14:51:11)
 ------------------------------------------------------
 Symbolic Z-matrix:
 Charge =  0 Multiplicity = 1

                         Standard orientation:
 ---------------------------------------------------------------------
 Center     Atomic      Atomic             Coordinates (Angstroms)
 Number     Number       Type             X           Y           Z
 ---------------------------------------------------------------------
      1          6           0        3.327854    0.409014   -0.474432
      2          6           0        3.350177   -1.114083   -0.341530
      3          6           0        4.486948   -1.760047   -1.134170
      4          1           0        3.234992    0.676772   -1.535859
      5          1           0        4.290528    0.814047   -0.132962
      6          1           0        2.387240   -1.516016   -0.681851
      7          1           0        3.442805   -1.378248    0.719720
      8          1           0        5.457013   -1.386962   -0.790103
      9          1           0        4.395451   -1.525513   -2.199638
     10          1           0        4.484191   -2.849058   -1.025048
     11          6           0        2.197018    1.069270    0.312333
     12          6           0        2.174696    2.592367    0.179431
     13          6           0        1.037925    3.238332    0.972071
     14          1           0        1.234344    0.664237   -0.029137
     15          1           0        2.289881    0.801512    1.373760
     16          1           0        2.082068    2.856532   -0.881820
     17          1           0        3.137632    2.994300    0.519752
     18          1           0        1.129422    3.003797    2.037539
     19          1           0        0.067860    2.865246    0.628004
     20          1           0        1.040682    4.327343    0.862949
     21          6           0       -2.037955   -0.849931    0.296190
     22          6           0       -1.750184   -2.284149    0.741378
     23          6           0       -0.296667   -2.490076    1.168780
     24          1           0       -1.369272   -0.589855   -0.535776
     25          1           0       -1.795700   -0.162561    1.118521
     26          1           0       -1.994219   -2.968723   -0.081070
     27          1           0       -2.419763   -2.540907    1.572255
     28          1           0       -0.043946   -1.830499    2.005256
     29          1           0        0.384016   -2.260746    0.342536
     30          1           0       -0.113019   -3.522219    1.483127
     31          6           0       -3.486917   -0.628353   -0.134091
     32          6           0       -3.774689    0.805865   -0.579279
     33          6           0       -5.228206    1.011791   -1.006682
     34          1           0       -3.729172   -1.315724   -0.956422
     35          1           0       -4.155601   -0.888429    0.697875
     36          1           0       -3.105109    1.062622   -1.410156
     37          1           0       -3.530654    1.490439    0.243170
     38          1           0       -5.908888    0.782461   -0.180437
     39          1           0       -5.480926    0.352214   -1.843157
     40          1           0       -5.411853    2.043935   -1.321029
 ---------------------------------------------------------------------

 SCF Done:  E(RHF) =  -470.733134229     A.U. after   11 cycles
 E2 =    -0.1583716117D+01 EUMP2 =    -0.47231685034601D+03

 The electronic state is 1-A.
 Alpha  occ. eigenvalues --  -11.21631 -11.21592 -11.21564 -11.21563 -11.21431
 Alpha  occ. eigenvalues --  -11.21372 -11.21361 -11.21292 -11.21089 -11.21050
 Alpha  occ. eigenvalues --  -11.21035 -11.20986  -1.08454  -1.08386  -1.03536
 Alpha  occ. eigenvalues --   -1.03492  -0.95977  -0.95945  -0.87011  -0.86946
 Alpha  occ. eigenvalues --   -0.79650  -0.79521  -0.78364  -0.78095  -0.65127
 Alpha  occ. eigenvalues --   -0.64984  -0.60992  -0.60846  -0.59349  -0.59320
 Alpha  occ. eigenvalues --   -0.57586  -0.57556  -0.55297  -0.55209  -0.52676
 Alpha  occ. eigenvalues --   -0.52659  -0.52438  -0.52322  -0.50009  -0.49824
 Alpha  occ. eigenvalues --   -0.48052  -0.47787  -0.46748  -0.46520  -0.46114
 Alpha  occ. eigenvalues --   -0.45762  -0.45663  -0.45215  -0.43791  -0.43746
 Alpha virt. eigenvalues --    0.20842   0.23004   0.23681   0.24144   0.25378
 Alpha virt. eigenvalues --    0.26298   0.26545   0.27706   0.28319   0.29835
 Alpha virt. eigenvalues --    0.30595   0.31438   0.31553   0.31907   0.32135

 Mulliken charges:
               1
     1  C   -0.298151
     2  C   -0.303782
     3  C   -0.475268
     4  H    0.148967
     5  H    0.149412
     6  H    0.155489
     7  H    0.153083
     8  H    0.155164
     9  H    0.154731
    10  H    0.160304
    11  C   -0.302278
    12  C   -0.299455
    13  C   -0.476412
    14  H    0.154334
    15  H    0.149510
    16  H    0.151583
    17  H    0.151729
    18  H    0.154672
    19  H    0.156315
    20  H    0.160004
    21  C   -0.300432
    22  C   -0.299705
    23  C   -0.481216
    24  H    0.149654
    25  H    0.151045
    26  H    0.151484
    27  H    0.151863
    28  H    0.155718
    29  H    0.161742
    30  H    0.159595
    31  C   -0.298245
    32  C   -0.299967
    33  C   -0.475686
    34  H    0.149532
    35  H    0.150016
    36  H    0.151441
    37  H    0.152253
    38  H    0.155355
    39  H    0.155207
    40  H    0.160395
 Sum of Mulliken charges =  -0.00000

 Dipole moment (field-independent basis, Debye):
    X=             -0.0082    Y=             -0.0137    Z=              0.0119  Tot=              0.0199
 Quadrupole moment (field-independent basis, Debye-Ang):
   XX=            -85.9875   YY=            -85.2697   ZZ=            -83.5724
   XY=              0.7095   XZ=              0.3477   YZ=              0.0864

 Normal termination of Gaussian 16 at Wed May  5 15:13:49 2021.
