 Gaussian 16, Revision A.03,
 Gaussian 16:  EM64L-G16RevA.03 25-Dec-2016

 -------------
 #p 6-31g* mp2
 -------------

 ------------------------------------------------------
 Input file generated by CHIRIPA (05-May-2021 14:51:11)
 ------------------------------------------------------
 Symbolic Z-matrix:
 Charge =  0 Multiplicity = 1

                         Standard orientation:
 ---------------------------------------------------------------------
 Center     Atomic      Atomic             Coordinates (Angstroms)
 Number     Number       Type             X           Y           Z
 ---------------------------------------------------------------------
      1          6           0       -2.259826   -0.400185   -0.510512
      2          6           0       -2.680255   -1.838448   -0.814853
      3          6           0       -1.545471   -2.672723   -1.409870
      4          1           0       -1.900214    0.073255   -1.434352
      5          1           0       -1.409515   -0.413558    0.185325
      6          1           0       -3.530405   -1.822335   -1.508828
      7          1           0       -3.039088   -2.308458    0.109780
      8          1           0       -0.697686   -2.718563   -0.718669
      9          1           0       -1.191795   -2.229678   -2.346473
     10          1           0       -1.867880   -3.697354   -1.619737
     11          6           0       -3.383507    0.446365    0.084821
     12          6           0       -2.963078    1.884628    0.389162
     13          6           0       -4.097862    2.718903    0.984179
     14          1           0       -4.233817    0.459738   -0.611016
     15          1           0       -3.743119   -0.027075    1.008661
     16          1           0       -2.604245    2.354638   -0.535471
     17          1           0       -2.112928    1.868514    1.083137
     18          1           0       -4.451538    2.275858    1.920782
     19          1           0       -4.945647    2.764743    0.292978
     20          1           0       -3.775453    3.743534    1.194046
     21          6           0        2.827844   -0.576122    0.739675
     22          6           0        1.802856   -1.678995    0.473110
     23          6           0        1.827331   -2.778151    1.535678
     24          1           0        3.831442   -1.020585    0.786455
     25          1           0        2.634348   -0.136423    1.727916
     26          1           0        1.997372   -2.115545   -0.514921
     27          1           0        0.801602   -1.231828    0.426769
     28          1           0        1.611249   -2.362335    2.525125
     29          1           0        2.813813   -3.251072    1.578086
     30          1           0        1.086842   -3.556218    1.325564
     31          6           0        2.815489    0.529942   -0.313984
     32          6           0        3.840477    1.632815   -0.047418
     33          6           0        3.816002    2.731971   -1.109987
     34          1           0        3.008984    0.090244   -1.302225
     35          1           0        1.811891    0.974404   -0.360763
     36          1           0        4.841731    1.185648   -0.001077
     37          1           0        3.645961    2.069365    0.940612
     38          1           0        2.829519    3.204893   -1.152395
     39          1           0        4.032083    2.316155   -2.099434
     40          1           0        4.556490    3.510039   -0.899873
 ---------------------------------------------------------------------

 SCF Done:  E(RHF) =  -470.732322008     A.U. after   11 cycles
 E2 =    -0.1584181843D+01 EUMP2 =    -0.47231650385102D+03

 The electronic state is 1-A.
 Alpha  occ. eigenvalues --  -11.21643 -11.21590 -11.21587 -11.21573 -11.21428
 Alpha  occ. eigenvalues --  -11.21394 -11.21368 -11.21333 -11.21112 -11.21101
 Alpha  occ. eigenvalues --  -11.21060 -11.20957  -1.08473  -1.08407  -1.03590
 Alpha  occ. eigenvalues --   -1.03485  -0.96020  -0.95947  -0.87002  -0.86996
 Alpha  occ. eigenvalues --   -0.79748  -0.79491  -0.78398  -0.78105  -0.65208
 Alpha  occ. eigenvalues --   -0.64957  -0.61082  -0.60831  -0.59456  -0.59258
 Alpha  occ. eigenvalues --   -0.57746  -0.57460  -0.55276  -0.55245  -0.52687
 Alpha  occ. eigenvalues --   -0.52668  -0.52443  -0.52367  -0.49953  -0.49899
 Alpha  occ. eigenvalues --   -0.48204  -0.47731  -0.46876  -0.46523  -0.46114
 Alpha  occ. eigenvalues --   -0.45771  -0.45711  -0.45107  -0.43799  -0.43772
 Alpha virt. eigenvalues --    0.21133   0.23183   0.23393   0.24928   0.25192
 Alpha virt. eigenvalues --    0.26492   0.26875   0.27214   0.28677   0.29606
 Alpha virt. eigenvalues --    0.30610   0.30882   0.31654   0.31782   0.32044

 Mulliken charges:
               1
     1  C   -0.304959
     2  C   -0.299369
     3  C   -0.484305
     4  H    0.149987
     5  H    0.154650
     6  H    0.151840
     7  H    0.151411
     8  H    0.166895
     9  H    0.154698
    10  H    0.159319
    11  C   -0.297589
    12  C   -0.299671
    13  C   -0.475694
    14  H    0.149869
    15  H    0.149651
    16  H    0.152006
    17  H    0.151128
    18  H    0.155266
    19  H    0.155401
    20  H    0.160272
    21  C   -0.296787
    22  C   -0.310657
    23  C   -0.478090
    24  H    0.149560
    25  H    0.148886
    26  H    0.153391
    27  H    0.160499
    28  H    0.154946
    29  H    0.156011
    30  H    0.161290
    31  C   -0.298931
    32  C   -0.299622
    33  C   -0.475726
    34  H    0.149617
    35  H    0.150487
    36  H    0.151901
    37  H    0.151789
    38  H    0.155323
    39  H    0.155131
    40  H    0.160176
 Sum of Mulliken charges =  -0.00000

 Dipole moment (field-independent basis, Debye):
    X=              0.0090    Y=              0.0011    Z=             -0.0050  Tot=              0.0104
 Quadrupole moment (field-independent basis, Debye-Ang):
   XX=            -84.8099   YY=            -85.7866   ZZ=            -84.2928
   XY=             -0.0942   XZ=              0.2132   YZ=              0.2648

 Normal termination of Gaussian 16 at Wed May  5 18:17:23 2021.
