 Gaussian 16, Revision A.03,
 Gaussian 16:  EM64L-G16RevA.03 25-Dec-2016

 -------------
 #p 6-31g* mp2
 -------------

 ------------------------------------------------------
 Input file generated by CHIRIPA (05-May-2021 14:57:24)
 ------------------------------------------------------
 Symbolic Z-matrix:
 Charge =  0 Multiplicity = 1

                         Standard orientation:
 ---------------------------------------------------------------------
 Center     Atomic      Atomic             Coordinates (Angstroms)
 Number     Number       Type             X           Y           Z
 ---------------------------------------------------------------------
      1          6           0       -2.902511   -2.331259    0.578771
      2          6           0       -1.901530   -1.599196   -0.068255
      3          6           0       -2.115767   -0.264323   -0.424296
      4          6           0       -3.348385    0.309541   -0.116686
      5          6           0       -4.365397   -0.393570    0.527217
      6          6           0       -4.129087   -1.727174    0.873921
      7          1           0       -2.727513   -3.367728    0.851726
      8          1           0       -0.947980   -2.065746   -0.298726
      9          1           0       -1.358234    0.325588   -0.925860
     10          1           0       -5.305663    0.098799    0.743761
     11          1           0       -4.908285   -2.293275    1.376341
     12          7           0       -3.586872    1.722040   -0.488668
     13          8           0       -4.681489    2.204577   -0.206519
     14          8           0       -2.674665    2.319874   -1.055334
     15          6           0        4.050212    2.164864    0.945231
     16          6           0        3.326309    1.291459    1.763553
     17          6           0        2.910522    0.046925    1.281053
     18          6           0        3.237430   -0.293455   -0.030649
     19          6           0        3.957362    0.554901   -0.870459
     20          6           0        4.362877    1.794450   -0.366850
     21          1           0        4.369215    3.129712    1.328247
     22          1           0        3.082066    1.576475    2.782943
     23          1           0        2.348946   -0.648507    1.892955
     24          1           0        4.185836    0.242839   -1.882306
     25          1           0        4.924949    2.470728   -1.004634
     26          7           0        2.802692   -1.608349   -0.552624
     27          8           0        3.103360   -1.884633   -1.711891
     28          8           0        2.169508   -2.337781    0.207405
 ---------------------------------------------------------------------

 SCF Done:  E(RHF) =  -868.340173602     A.U. after   16 cycles
 E2 =    -0.2598430424D+01 EUMP2 =    -0.87093860402546D+03

 The electronic state is 1-A.
 Alpha  occ. eigenvalues --  -20.61580 -20.61529 -20.60514 -20.60508 -15.86572
 Alpha  occ. eigenvalues --  -15.85558 -11.31628 -11.30766 -11.28171 -11.28141
 Alpha  occ. eigenvalues --  -11.27817 -11.27318 -11.27249 -11.27091 -11.27073
 Alpha  occ. eigenvalues --  -11.26935 -11.26312 -11.26083  -1.60624  -1.59593
 Alpha  occ. eigenvalues --   -1.40183  -1.39151  -1.19767  -1.18895  -1.09216
 Alpha  occ. eigenvalues --   -1.08309  -1.05118  -1.04257  -0.96102  -0.95182
 Alpha  occ. eigenvalues --   -0.86531  -0.85650  -0.82944  -0.82009  -0.78033
 Alpha  occ. eigenvalues --   -0.77088  -0.72794  -0.71936  -0.71780  -0.70914
 Alpha  occ. eigenvalues --   -0.70860  -0.69989  -0.65418  -0.65111  -0.64532
 Alpha  occ. eigenvalues --   -0.64206  -0.62471  -0.61590  -0.55617  -0.54735
 Alpha  occ. eigenvalues --   -0.53466  -0.53202  -0.52619  -0.52308  -0.49572
 Alpha  occ. eigenvalues --   -0.49524  -0.48546  -0.48519  -0.45639  -0.44592
 Alpha  occ. eigenvalues --   -0.37720  -0.36862  -0.36705  -0.35866
 Alpha virt. eigenvalues --    0.04439   0.05410   0.10952   0.11792   0.15988
 Alpha virt. eigenvalues --    0.16964   0.21123   0.22077   0.27057   0.27697
 Alpha virt. eigenvalues --    0.28229   0.28839   0.30701   0.31655   0.32262

 Mulliken charges:
               1
     1  C   -0.172499
     2  C   -0.225635
     3  C   -0.174353
     4  C    0.158079
     5  C   -0.172980
     6  C   -0.218711
     7  H    0.228142
     8  H    0.243152
     9  H    0.273027
    10  H    0.273341
    11  H    0.221659
    12  N    0.488077
    13  O   -0.462021
    14  O   -0.462780
    15  C   -0.168737
    16  C   -0.217505
    17  C   -0.171609
    18  C    0.155777
    19  C   -0.170299
    20  C   -0.217730
    21  H    0.228716
    22  H    0.225682
    23  H    0.274086
    24  H    0.276436
    25  H    0.226125
    26  N    0.487027
    27  O   -0.456193
    28  O   -0.468275
 Sum of Mulliken charges =  -0.00000

 Dipole moment (field-independent basis, Debye):
    X=              2.7255    Y=             -0.3220    Z=              3.1481  Tot=              4.1765
 Quadrupole moment (field-independent basis, Debye-Ang):
   XX=            -96.0726   YY=           -111.3635   ZZ=           -101.3452
   XY=             33.4122   XZ=             -2.8243   YZ=             -0.6572

 Normal termination of Gaussian 16 at Thu May  6 00:17:11 2021.
