 Gaussian 16, Revision A.03,
 Gaussian 16:  EM64L-G16RevA.03 25-Dec-2016

 -------------
 #p 6-31g* mp2
 -------------

 ------------------------------------------------------
 Input file generated by CHIRIPA (05-May-2021 14:53:12)
 ------------------------------------------------------
 Symbolic Z-matrix:
 Charge =  0 Multiplicity = 1

                         Standard orientation:
 ---------------------------------------------------------------------
 Center     Atomic      Atomic             Coordinates (Angstroms)
 Number     Number       Type             X           Y           Z
 ---------------------------------------------------------------------
      1          6           0       -4.076173   -0.077507   -0.310861
      2          6           0       -5.603347   -0.146905   -0.280731
      3          6           0       -6.239564    0.250372   -1.613095
      4          1           0       -3.767004    0.942628   -0.576723
      5          1           0       -3.701841   -0.735197   -1.107551
      6          1           0       -5.974621    0.509660    0.516574
      7          1           0       -5.908915   -1.166946   -0.014723
      8          1           0       -5.897383   -0.410887   -2.415747
      9          1           0       -5.963462    1.275245   -1.881432
     10          1           0       -7.331681    0.193668   -1.569217
     11          6           0       -3.425564   -0.471808    1.013889
     12          6           0       -1.898389   -0.402410    0.983759
     13          6           0       -1.262173   -0.799687    2.316123
     14          1           0       -3.799896    0.185882    1.810579
     15          1           0       -3.734733   -1.491943    1.279751
     16          1           0       -1.592822    0.617631    0.717751
     17          1           0       -1.527116   -1.058975    0.186454
     18          1           0       -1.538275   -1.824560    2.584460
     19          1           0       -1.604354   -0.138428    3.118775
     20          1           0       -0.170056   -0.742983    2.272245
     21          6           0        4.217008   -1.934820   -0.575570
     22          6           0        2.848402   -1.892373   -0.861293
     23          6           0        2.125469   -0.706913   -0.698199
     24          6           0        2.805979    0.422372   -0.245526
     25          6           0        4.168800    0.411821    0.047553
     26          6           0        4.871685   -0.784615   -0.122859
     27          1           0        4.770813   -2.859978   -0.705108
     28          1           0        2.337359   -2.784093   -1.213024
     29          1           0        1.065274   -0.646044   -0.911977
     30          1           0        4.650712    1.317001    0.396593
     31          1           0        5.934493   -0.814645    0.099814
     32          7           0        2.051253    1.683176   -0.068993
     33          8           0        2.674018    2.664342    0.331150
     34          8           0        0.851225    1.666354   -0.334111
 ---------------------------------------------------------------------

 SCF Done:  E(RHF) =  -669.536087468     A.U. after   15 cycles
 E2 =    -0.2091818538D+01 EUMP2 =    -0.67162790600635D+03

 The electronic state is 1-A.
 Alpha  occ. eigenvalues --  -20.60883 -20.60878 -15.85918 -11.31243 -11.27807
 Alpha  occ. eigenvalues --  -11.27789 -11.27546 -11.26818 -11.26805 -11.21251
 Alpha  occ. eigenvalues --  -11.20989 -11.20951 -11.20890 -11.20761 -11.20669
 Alpha  occ. eigenvalues --   -1.59946  -1.39501  -1.19411  -1.08816  -1.07984
 Alpha  occ. eigenvalues --   -1.04806  -1.03103  -0.95665  -0.95570  -0.86595
 Alpha  occ. eigenvalues --   -0.86206  -0.82493  -0.79166  -0.77831  -0.77487
 Alpha  occ. eigenvalues --   -0.72143  -0.71261  -0.70518  -0.65070  -0.64814
 Alpha  occ. eigenvalues --   -0.64606  -0.62157  -0.60495  -0.58940  -0.57179
 Alpha  occ. eigenvalues --   -0.55311  -0.54869  -0.53141  -0.52897  -0.52279
 Alpha  occ. eigenvalues --   -0.52000  -0.49522  -0.48908  -0.48899  -0.47475
 Alpha  occ. eigenvalues --   -0.46191  -0.45368  -0.45291  -0.44772  -0.43360
 Alpha  occ. eigenvalues --   -0.37391  -0.36404
 Alpha virt. eigenvalues --    0.04958   0.11192   0.16442   0.20906   0.23261
 Alpha virt. eigenvalues --    0.24254   0.26107   0.27400   0.27656   0.28281
 Alpha virt. eigenvalues --    0.29004   0.30616   0.31525   0.31898   0.32146

 Mulliken charges:
               1
     1  C   -0.298326
     2  C   -0.299320
     3  C   -0.475498
     4  H    0.155633
     5  H    0.145579
     6  H    0.152295
     7  H    0.149820
     8  H    0.153587
     9  H    0.156777
    10  H    0.158978
    11  C   -0.298113
    12  C   -0.306666
    13  C   -0.475013
    14  H    0.150380
    15  H    0.145234
    16  H    0.180162
    17  H    0.137337
    18  H    0.149857
    19  H    0.157371
    20  H    0.156658
    21  C   -0.170481
    22  C   -0.219445
    23  C   -0.173573
    24  C    0.156876
    25  C   -0.170609
    26  C   -0.218641
    27  H    0.225834
    28  H    0.223827
    29  H    0.281674
    30  H    0.275656
    31  H    0.223648
    32  N    0.490220
    33  O   -0.459501
    34  O   -0.462217
 Sum of Mulliken charges =  -0.00000

 Dipole moment (field-independent basis, Debye):
    X=              2.7709    Y=             -4.2459    Z=             -0.6421  Tot=              5.1105
 Quadrupole moment (field-independent basis, Debye-Ang):
   XX=            -77.1676   YY=            -97.1917   ZZ=            -95.6695
   XY=             -9.7215   XZ=             -1.5560   YZ=              2.4279

 Normal termination of Gaussian 16 at Thu May  6 13:41:05 2021.
