 Gaussian 16, Revision A.03,
 Gaussian 16:  EM64L-G16RevA.03 25-Dec-2016

 -------------
 #p 6-31g* mp2
 -------------

 ------------------------------------------------------
 Input file generated by CHIRIPA (05-May-2021 14:53:18)
 ------------------------------------------------------
 Symbolic Z-matrix:
 Charge =  0 Multiplicity = 1

                         Standard orientation:
 ---------------------------------------------------------------------
 Center     Atomic      Atomic             Coordinates (Angstroms)
 Number     Number       Type             X           Y           Z
 ---------------------------------------------------------------------
      1          6           0       -4.063817    0.409168    0.341885
      2          6           0       -3.488586    1.810736    0.135247
      3          6           0       -2.242849    2.069398    0.983202
      4          1           0       -4.306968    0.272525    1.404501
      5          1           0       -3.292971   -0.335398    0.099372
      6          1           0       -4.260724    2.552419    0.376750
      7          1           0       -3.246953    1.944127   -0.927032
      8          1           0       -1.453499    1.351790    0.737100
      9          1           0       -2.473030    1.963539    2.048290
     10          1           0       -1.848194    3.077092    0.819922
     11          6           0       -5.309491    0.135523   -0.499032
     12          6           0       -5.884722   -1.266045   -0.292393
     13          6           0       -7.130459   -1.524707   -1.140349
     14          1           0       -6.080338    0.880089   -0.256519
     15          1           0       -5.066340    0.272166   -1.561647
     16          1           0       -6.126355   -1.399436    0.769886
     17          1           0       -5.112584   -2.007729   -0.533896
     18          1           0       -6.900278   -1.418849   -2.205436
     19          1           0       -7.919809   -0.807099   -0.894246
     20          1           0       -7.525114   -2.532401   -0.977068
     21          6           0        1.667990   -0.633908    1.549568
     22          6           0        2.699682   -1.575739    1.478232
     23          6           0        3.808970   -1.352883    0.657036
     24          6           0        3.854169   -0.172055   -0.082487
     25          6           0        2.842227    0.785440   -0.032820
     26          6           0        1.742424    0.541602    0.795145
     27          1           0        0.809952   -0.815178    2.190121
     28          1           0        2.644553   -2.489547    2.063005
     29          1           0        4.621752   -2.065140    0.582921
     30          1           0        2.925407    1.686978   -0.627570
     31          1           0        0.942675    1.274809    0.848565
     32          7           0        5.023502    0.074978   -0.955433
     33          8           0        5.039493    1.123217   -1.596975
     34          8           0        5.901893   -0.784314   -0.981575
 ---------------------------------------------------------------------

 SCF Done:  E(RHF) =  -669.535636260     A.U. after   15 cycles
 E2 =    -0.2090805138D+01 EUMP2 =    -0.67162644139747D+03

 The electronic state is 1-A.
 Alpha  occ. eigenvalues --  -20.60733 -20.60728 -15.85786 -11.31145 -11.27716
 Alpha  occ. eigenvalues --  -11.27702 -11.27447 -11.26729 -11.26674 -11.22418
 Alpha  occ. eigenvalues --  -11.22206 -11.22100 -11.22080 -11.21919 -11.21456
 Alpha  occ. eigenvalues --   -1.59809  -1.39362  -1.19314  -1.09087  -1.08710
 Alpha  occ. eigenvalues --   -1.04716  -1.04215  -0.96690  -0.95547  -0.87718
 Alpha  occ. eigenvalues --   -0.86113  -0.82378  -0.80292  -0.78873  -0.77428
 Alpha  occ. eigenvalues --   -0.72004  -0.71132  -0.70421  -0.65723  -0.64965
 Alpha  occ. eigenvalues --   -0.64735  -0.62114  -0.61569  -0.60063  -0.58276
 Alpha  occ. eigenvalues --   -0.55999  -0.55207  -0.53406  -0.53174  -0.53041
 Alpha  occ. eigenvalues --   -0.52740  -0.50612  -0.48771  -0.48760  -0.48588
 Alpha  occ. eigenvalues --   -0.47299  -0.46423  -0.46321  -0.44769  -0.44455
 Alpha  occ. eigenvalues --   -0.37296  -0.36318
 Alpha virt. eigenvalues --    0.05106   0.11271   0.16597   0.20315   0.22399
 Alpha virt. eigenvalues --    0.23786   0.25512   0.26219   0.26956   0.28079
 Alpha virt. eigenvalues --    0.28756   0.30411   0.31031   0.31101   0.31666

 Mulliken charges:
               1
     1  C   -0.299162
     2  C   -0.299218
     3  C   -0.482281
     4  H    0.149404
     5  H    0.148414
     6  H    0.155635
     7  H    0.155033
     8  H    0.148079
     9  H    0.157251
    10  H    0.162861
    11  C   -0.298876
    12  C   -0.300079
    13  C   -0.476077
    14  H    0.150940
    15  H    0.151433
    16  H    0.151815
    17  H    0.151914
    18  H    0.156297
    19  H    0.155941
    20  H    0.161344
    21  C   -0.172722
    22  C   -0.218559
    23  C   -0.171254
    24  C    0.158796
    25  C   -0.171855
    26  C   -0.225153
    27  H    0.225962
    28  H    0.223217
    29  H    0.275428
    30  H    0.275778
    31  H    0.232779
    32  N    0.488003
    33  O   -0.460495
    34  O   -0.460592
 Sum of Mulliken charges =  -0.00000

 Dipole moment (field-independent basis, Debye):
    X=             -4.3366    Y=             -0.8480    Z=              3.0499  Tot=              5.3691
 Quadrupole moment (field-independent basis, Debye-Ang):
   XX=           -126.0918   YY=            -90.6778   ZZ=            -95.3148
   XY=             -5.3065   XZ=             12.0689   YZ=             -1.8650

 Normal termination of Gaussian 16 at Wed May  5 17:18:16 2021.
