 Gaussian 16, Revision A.03,
 Gaussian 16:  EM64L-G16RevA.03 25-Dec-2016

 -------------
 #p 6-31g* mp2
 -------------

 ------------------------------------------------------
 Input file generated by CHIRIPA (05-May-2021 14:53:14)
 ------------------------------------------------------
 Symbolic Z-matrix:
 Charge =  0 Multiplicity = 1

                         Standard orientation:
 ---------------------------------------------------------------------
 Center     Atomic      Atomic             Coordinates (Angstroms)
 Number     Number       Type             X           Y           Z
 ---------------------------------------------------------------------
      1          6           0        4.245486   -0.008824    0.557679
      2          6           0        3.020115   -0.770248    0.051040
      3          6           0        1.817397   -0.644372    0.986678
      4          1           0        4.514563   -0.382059    1.555296
      5          1           0        3.984703    1.051507    0.680505
      6          1           0        3.283525   -1.828579   -0.072112
      7          1           0        2.754040   -0.395289   -0.945567
      8          1           0        1.526718    0.404888    1.101399
      9          1           0        2.059211   -1.036546    1.979818
     10          1           0        0.952601   -1.196241    0.605328
     11          6           0        5.455980   -0.125109   -0.366934
     12          6           0        6.681351    0.636316    0.139706
     13          6           0        7.884069    0.510439   -0.795933
     14          1           0        5.716764   -1.185439   -0.489759
     15          1           0        5.186904    0.248126   -1.364550
     16          1           0        6.947426    0.261356    1.136313
     17          1           0        6.417942    1.694647    0.262857
     18          1           0        7.642256    0.902614   -1.789072
     19          1           0        8.174749   -0.538820   -0.910654
     20          1           0        8.748866    1.062308   -0.414583
     21          6           0       -3.365490   -2.433736   -0.149109
     22          6           0       -2.308440   -1.550230    0.092930
     23          6           0       -2.531812   -0.170825    0.136458
     24          6           0       -3.830640    0.292660   -0.067298
     25          6           0       -4.904543   -0.562221   -0.310614
     26          6           0       -4.657890   -1.937785   -0.349755
     27          1           0       -3.182927   -3.503799   -0.181218
     28          1           0       -1.303712   -1.932557    0.249110
     29          1           0       -1.731776    0.535548    0.321925
     30          1           0       -5.895211   -0.151235   -0.462553
     31          1           0       -5.480727   -2.621580   -0.537926
     32          7           0       -4.079437    1.750941   -0.023539
     33          8           0       -5.232905    2.134059   -0.206214
     34          8           0       -3.116265    2.483211    0.192605
 ---------------------------------------------------------------------

 SCF Done:  E(RHF) =  -669.535525060     A.U. after   15 cycles
 E2 =    -0.2090866621D+01 EUMP2 =    -0.67162639168106D+03

 The electronic state is 1-A.
 Alpha  occ. eigenvalues --  -20.60723 -20.60718 -15.85776 -11.31128 -11.27704
 Alpha  occ. eigenvalues --  -11.27680 -11.27447 -11.26720 -11.26690 -11.22205
 Alpha  occ. eigenvalues --  -11.21966 -11.21820 -11.21789 -11.21669 -11.21243
 Alpha  occ. eigenvalues --   -1.59799  -1.39352  -1.19303  -1.08825  -1.08702
 Alpha  occ. eigenvalues --   -1.04705  -1.03974  -0.96443  -0.95537  -0.87468
 Alpha  occ. eigenvalues --   -0.86105  -0.82372  -0.80040  -0.78601  -0.77419
 Alpha  occ. eigenvalues --   -0.71995  -0.71121  -0.70414  -0.65445  -0.64957
 Alpha  occ. eigenvalues --   -0.64735  -0.62106  -0.61355  -0.59830  -0.58036
 Alpha  occ. eigenvalues --   -0.55709  -0.55215  -0.53266  -0.53037  -0.52928
 Alpha  occ. eigenvalues --   -0.52631  -0.50361  -0.48754  -0.48750  -0.48350
 Alpha  occ. eigenvalues --   -0.47046  -0.46153  -0.46050  -0.44761  -0.44225
 Alpha  occ. eigenvalues --   -0.37289  -0.36306
 Alpha virt. eigenvalues --    0.05116   0.11346   0.16607   0.19763   0.22671
 Alpha virt. eigenvalues --    0.23807   0.25770   0.26192   0.26842   0.27847
 Alpha virt. eigenvalues --    0.28920   0.29468   0.31154   0.31632   0.32342

 Mulliken charges:
               1
     1  C   -0.299635
     2  C   -0.298963
     3  C   -0.482161
     4  H    0.150420
     5  H    0.152590
     6  H    0.151865
     7  H    0.154152
     8  H    0.160938
     9  H    0.159493
    10  H    0.149711
    11  C   -0.298719
    12  C   -0.300138
    13  C   -0.475974
    14  H    0.149258
    15  H    0.150811
    16  H    0.152180
    17  H    0.153454
    18  H    0.155842
    19  H    0.154971
    20  H    0.161301
    21  C   -0.171428
    22  C   -0.224236
    23  C   -0.173448
    24  C    0.158556
    25  C   -0.170968
    26  C   -0.218640
    27  H    0.225831
    28  H    0.230628
    29  H    0.276928
    30  H    0.275378
    31  H    0.223143
    32  N    0.488135
    33  O   -0.460724
    34  O   -0.460551
 Sum of Mulliken charges =  -0.00000

 Dipole moment (field-independent basis, Debye):
    X=              1.0753    Y=             -5.0927    Z=             -0.1395  Tot=              5.2068
 Quadrupole moment (field-independent basis, Debye-Ang):
   XX=            -96.9249   YY=            -97.6311   ZZ=            -95.4840
   XY=             20.8992   XZ=              2.3269   YZ=              0.0681

 Normal termination of Gaussian 16 at Thu May  6 17:08:44 2021.
