 Gaussian 16, Revision A.03,
 Gaussian 16:  EM64L-G16RevA.03 25-Dec-2016

 -------------
 #p 6-31g* mp2
 -------------

 ------------------------------------------------------
 Input file generated by CHIRIPA (05-May-2021 14:51:11)
 ------------------------------------------------------
 Symbolic Z-matrix:
 Charge =  0 Multiplicity = 1

                         Standard orientation:
 ---------------------------------------------------------------------
 Center     Atomic      Atomic             Coordinates (Angstroms)
 Number     Number       Type             X           Y           Z
 ---------------------------------------------------------------------
      1          6           0        2.288537    1.646788   -0.133184
      2          6           0        1.079217    2.059961    0.706351
      3          6           0        0.569873    3.459524    0.360538
      4          1           0        3.095092    2.378394    0.012305
      5          1           0        2.018260    1.687036   -1.197480
      6          1           0        1.351279    2.017613    1.768803
      7          1           0        0.275515    1.327182    0.558995
      8          1           0        0.271551    3.511862   -0.691539
      9          1           0        1.353428    4.206216    0.525143
     10          1           0       -0.294847    3.734613    0.972457
     11          6           0        2.809248    0.250021    0.200926
     12          6           0        4.018568   -0.163152   -0.638609
     13          6           0        4.527911   -1.562715   -0.292796
     14          1           0        3.079525    0.209774    1.265221
     15          1           0        2.002693   -0.481585    0.055437
     16          1           0        4.822270    0.569627   -0.491253
     17          1           0        3.746505   -0.120804   -1.701061
     18          1           0        3.744356   -2.309406   -0.457401
     19          1           0        4.826233   -1.615052    0.759281
     20          1           0        5.392631   -1.837803   -0.904716
     21          6           0       -1.873458   -1.267518   -0.193202
     22          6           0       -1.613236   -2.557157    0.585966
     23          6           0       -0.258024   -3.183716    0.256395
     24          1           0       -1.817985   -1.479520   -1.269734
     25          1           0       -1.072707   -0.547465    0.025239
     26          1           0       -2.414984   -3.274063    0.367194
     27          1           0       -1.669525   -2.342100    1.660768
     28          1           0        0.554923   -2.489179    0.491634
     29          1           0       -0.194771   -3.426438   -0.809290
     30          1           0       -0.092635   -4.104483    0.824458
     31          6           0       -3.224327   -0.629291    0.125460
     32          6           0       -3.484548    0.660347   -0.653708
     33          6           0       -4.839761    1.286906   -0.324137
     34          1           0       -4.025078   -1.349345   -0.092981
     35          1           0       -3.279801   -0.417289    1.201993
     36          1           0       -3.428260    0.445290   -1.728509
     37          1           0       -2.682801    1.377254   -0.434935
     38          1           0       -4.903014    1.529629    0.741548
     39          1           0       -5.652708    0.592370   -0.559377
     40          1           0       -5.005149    2.207673   -0.892200
 ---------------------------------------------------------------------

 SCF Done:  E(RHF) =  -470.733099831     A.U. after   11 cycles
 E2 =    -0.1584346871D+01 EUMP2 =    -0.47231744670205D+03

 The electronic state is 1-A.
 Alpha  occ. eigenvalues --  -11.21643 -11.21631 -11.21622 -11.21601 -11.21435
 Alpha  occ. eigenvalues --  -11.21428 -11.21375 -11.21368 -11.21116 -11.21098
 Alpha  occ. eigenvalues --  -11.21082 -11.21049  -1.08488  -1.08433  -1.03561
 Alpha  occ. eigenvalues --   -1.03546  -0.96014  -0.95991  -0.87042  -0.86996
 Alpha  occ. eigenvalues --   -0.79627  -0.79619  -0.78403  -0.78159  -0.65299
 Alpha  occ. eigenvalues --   -0.64902  -0.61000  -0.60912  -0.59388  -0.59358
 Alpha  occ. eigenvalues --   -0.57652  -0.57578  -0.55360  -0.55227  -0.52702
 Alpha  occ. eigenvalues --   -0.52687  -0.52496  -0.52369  -0.50068  -0.49833
 Alpha  occ. eigenvalues --   -0.47989  -0.47919  -0.46829  -0.46684  -0.46183
 Alpha  occ. eigenvalues --   -0.45783  -0.45768  -0.45059  -0.43811  -0.43801
 Alpha virt. eigenvalues --    0.19873   0.22068   0.23621   0.24396   0.25453
 Alpha virt. eigenvalues --    0.26881   0.27148   0.27247   0.27626   0.29828
 Alpha virt. eigenvalues --    0.31313   0.31548   0.31820   0.31985   0.32028

 Mulliken charges:
               1
     1  C   -0.297046
     2  C   -0.310165
     3  C   -0.475428
     4  H    0.149944
     5  H    0.149837
     6  H    0.151990
     7  H    0.160180
     8  H    0.155688
     9  H    0.155562
    10  H    0.160040
    11  C   -0.307122
    12  C   -0.299148
    13  C   -0.476889
    14  H    0.149275
    15  H    0.157266
    16  H    0.151986
    17  H    0.152091
    18  H    0.156788
    19  H    0.154996
    20  H    0.160273
    21  C   -0.309155
    22  C   -0.298644
    23  C   -0.482855
    24  H    0.149473
    25  H    0.158694
    26  H    0.152186
    27  H    0.152227
    28  H    0.161379
    29  H    0.154810
    30  H    0.160888
    31  C   -0.297563
    32  C   -0.301847
    33  C   -0.475668
    34  H    0.149814
    35  H    0.149740
    36  H    0.151811
    37  H    0.153658
    38  H    0.155256
    39  H    0.155241
    40  H    0.160438
 Sum of Mulliken charges =  -0.00000

 Dipole moment (field-independent basis, Debye):
    X=              0.0013    Y=              0.0001    Z=             -0.0013  Tot=              0.0018
 Quadrupole moment (field-independent basis, Debye-Ang):
   XX=            -85.3067   YY=            -85.6324   ZZ=            -83.7440
   XY=              1.5062   XZ=              0.8026   YZ=              0.7299

 Normal termination of Gaussian 16 at Thu May  6 03:52:50 2021.
