 Gaussian 16, Revision A.03,
 Gaussian 16:  EM64L-G16RevA.03 25-Dec-2016

 -------------
 #p 6-31g* mp2
 -------------

 ------------------------------------------------------
 Input file generated by CHIRIPA (05-May-2021 14:55:23)
 ------------------------------------------------------
 Symbolic Z-matrix:
 Charge =  0 Multiplicity = 1

                         Standard orientation:
 ---------------------------------------------------------------------
 Center     Atomic      Atomic             Coordinates (Angstroms)
 Number     Number       Type             X           Y           Z
 ---------------------------------------------------------------------
      1          6           0        0.658220   -2.814995    0.564270
      2          6           0        0.346691   -1.651858    1.276017
      3          6           0        1.048257   -0.465800    1.040177
      4          6           0        2.059862   -0.478703    0.081126
      5          6           0        2.393694   -1.621334   -0.644297
      6          6           0        1.678928   -2.796054   -0.391930
      7          1           0        0.108099   -3.731950    0.753896
      8          1           0       -0.445509   -1.663629    2.019203
      9          1           0        0.827773    0.448983    1.576812
     10          1           0        3.188614   -1.578635   -1.378939
     11          1           0        1.923033   -3.697861   -0.946188
     12          7           0        2.809566    0.770922   -0.177295
     13          8           0        3.696388    0.733411   -1.027458
     14          8           0        2.496165    1.764227    0.475209
     15          6           0       -2.195682    1.463733    0.239709
     16          6           0       -1.071814    2.203482   -0.486706
     17          6           0       -0.516363    3.375967    0.322335
     18          1           0       -3.005231    2.171091    0.466029
     19          1           0       -1.820391    1.098690    1.205782
     20          1           0       -1.448720    2.565825   -1.451728
     21          1           0       -0.264931    1.494239   -0.711492
     22          1           0       -0.114261    3.027599    1.279181
     23          1           0       -1.304777    4.105273    0.534740
     24          1           0        0.285891    3.890627   -0.215600
     25          6           0       -2.761251    0.288987   -0.556427
     26          6           0       -3.885118   -0.450762    0.169990
     27          6           0       -4.440569   -1.623247   -0.639051
     28          1           0       -3.136541    0.654030   -1.522498
     29          1           0       -1.951702   -0.418371   -0.782746
     30          1           0       -4.692002    0.258480    0.394776
     31          1           0       -3.508213   -0.813105    1.135011
     32          1           0       -3.652156   -2.352553   -0.851457
     33          1           0       -4.842671   -1.274879   -1.595897
     34          1           0       -5.242824   -2.137907   -0.101116
 ---------------------------------------------------------------------

 SCF Done:  E(RHF) =  -669.534735442     A.U. after   15 cycles
 E2 =    -0.2096005508D+01 EUMP2 =    -0.67163074095012D+03

 The electronic state is 1-A.
 Alpha  occ. eigenvalues --  -20.60948 -20.60925 -15.85959 -11.31315 -11.27893
 Alpha  occ. eigenvalues --  -11.27889 -11.27641 -11.26907 -11.26889 -11.21978
 Alpha  occ. eigenvalues --  -11.21529 -11.21484 -11.21465 -11.21254 -11.20345
 Alpha  occ. eigenvalues --   -1.59999  -1.39554  -1.19509  -1.08899  -1.08520
 Alpha  occ. eigenvalues --   -1.04907  -1.03508  -0.95936  -0.95721  -0.86952
 Alpha  occ. eigenvalues --   -0.86299  -0.82562  -0.79603  -0.78308  -0.77621
 Alpha  occ. eigenvalues --   -0.72195  -0.71336  -0.70618  -0.65239  -0.65160
 Alpha  occ. eigenvalues --   -0.64895  -0.62264  -0.60854  -0.59348  -0.57513
 Alpha  occ. eigenvalues --   -0.55402  -0.55240  -0.53226  -0.52977  -0.52565
 Alpha  occ. eigenvalues --   -0.52360  -0.49941  -0.48949  -0.48915  -0.47890
 Alpha  occ. eigenvalues --   -0.46682  -0.45837  -0.45801  -0.44862  -0.43747
 Alpha  occ. eigenvalues --   -0.37456  -0.36450
 Alpha virt. eigenvalues --    0.04880   0.11054   0.16282   0.19620   0.23161
 Alpha virt. eigenvalues --    0.23592   0.25315   0.26796   0.27181   0.28229
 Alpha virt. eigenvalues --    0.29884   0.30538   0.31466   0.31631   0.31928

 Mulliken charges:
               1
     1  C   -0.171470
     2  C   -0.218970
     3  C   -0.171304
     4  C    0.156317
     5  C   -0.170515
     6  C   -0.218678
     7  H    0.226651
     8  H    0.225352
     9  H    0.280022
    10  H    0.276178
    11  H    0.224176
    12  N    0.489906
    13  O   -0.459136
    14  O   -0.459227
    15  C   -0.296044
    16  C   -0.304891
    17  C   -0.469620
    18  H    0.151460
    19  H    0.135860
    20  H    0.152373
    21  H    0.151013
    22  H    0.154261
    23  H    0.147708
    24  H    0.173309
    25  C   -0.301245
    26  C   -0.298203
    27  C   -0.475190
    28  H    0.151420
    29  H    0.152070
    30  H    0.154219
    31  H    0.143256
    32  H    0.151287
    33  H    0.157902
    34  H    0.159755
 Sum of Mulliken charges =  -0.00000

 Dipole moment (field-independent basis, Debye):
    X=             -2.4221    Y=             -4.3345    Z=              0.8232  Tot=              5.0331
 Quadrupole moment (field-independent basis, Debye-Ang):
   XX=           -104.5936   YY=            -89.8711   ZZ=            -92.7725
   XY=            -10.0609   XZ=             -0.2452   YZ=              0.2728

 Normal termination of Gaussian 16 at Thu May  6 04:43:22 2021.
