 Gaussian 16, Revision A.03,
 Gaussian 16:  EM64L-G16RevA.03 25-Dec-2016

 -------------
 #p 6-31g* mp2
 -------------

 ------------------------------------------------------
 Input file generated by CHIRIPA (05-May-2021 14:51:08)
 ------------------------------------------------------
 Symbolic Z-matrix:
 Charge =  0 Multiplicity = 1

                         Standard orientation:
 ---------------------------------------------------------------------
 Center     Atomic      Atomic             Coordinates (Angstroms)
 Number     Number       Type             X           Y           Z
 ---------------------------------------------------------------------
      1          6           0       -4.989323   -0.358314    0.386433
      2          6           0       -5.714723   -0.742472   -0.903607
      3          6           0       -7.086889   -1.366236   -0.646952
      4          1           0       -4.875675   -1.251687    1.015651
      5          1           0       -5.613107    0.346276    0.953743
      6          1           0       -5.089146   -1.445058   -1.468976
      7          1           0       -5.826486    0.151882   -1.529911
      8          1           0       -7.731981   -0.668001   -0.103883
      9          1           0       -6.990451   -2.274014   -0.042601
     10          1           0       -7.587873   -1.633256   -1.582674
     11          6           0       -3.616151    0.266543    0.146264
     12          6           0       -2.890751    0.650701    1.436304
     13          6           0       -1.518584    1.274465    1.179650
     14          1           0       -2.992367   -0.438047   -0.421046
     15          1           0       -3.729798    1.159916   -0.482953
     16          1           0       -2.778987   -0.243653    2.062608
     17          1           0       -3.516328    1.353287    2.001673
     18          1           0       -1.615023    2.182243    0.575298
     19          1           0       -0.873493    0.576230    0.636580
     20          1           0       -1.017600    1.541485    2.115371
     21          6           0        5.030942   -0.141118   -0.401182
     22          6           0        5.582871   -1.175958    0.579872
     23          6           0        7.040770   -1.539845    0.297191
     24          1           0        5.121362   -0.530572   -1.424458
     25          1           0        5.651383    0.764620   -0.355496
     26          1           0        4.960748   -2.078960    0.533353
     27          1           0        5.490949   -0.784075    1.600947
     28          1           0        7.679013   -0.652783    0.363282
     29          1           0        7.145798   -1.955026   -0.710377
     30          1           0        7.415079   -2.280999    1.010244
     31          6           0        3.574533    0.232889   -0.131516
     32          6           0        3.022602    1.267729   -1.112569
     33          6           0        1.564703    1.631616   -0.829889
     34          1           0        2.954091   -0.672848   -0.177202
     35          1           0        3.484111    0.622342    0.891761
     36          1           0        3.114524    0.875845   -2.133644
     37          1           0        3.644726    2.170732   -1.066050
     38          1           0        1.459674    2.046798    0.177680
     39          1           0        0.926461    0.744554   -0.895979
     40          1           0        1.190395    2.372770   -1.542942
 ---------------------------------------------------------------------

 SCF Done:  E(RHF) =  -470.732509399     A.U. after   11 cycles
 E2 =    -0.1582685237D+01 EUMP2 =    -0.47231519463586D+03

 The electronic state is 1-A.
 Alpha  occ. eigenvalues --  -11.21589 -11.21578 -11.21537 -11.21511 -11.21381
 Alpha  occ. eigenvalues --  -11.21364 -11.21321 -11.21304 -11.21062 -11.21053
 Alpha  occ. eigenvalues --  -11.20958 -11.20906  -1.08404  -1.08378  -1.03521
 Alpha  occ. eigenvalues --   -1.03444  -0.96016  -0.95849  -0.87092  -0.86811
 Alpha  occ. eigenvalues --   -0.79694  -0.79406  -0.78242  -0.78162  -0.65042
 Alpha  occ. eigenvalues --   -0.65006  -0.60946  -0.60829  -0.59318  -0.59285
 Alpha  occ. eigenvalues --   -0.57696  -0.57428  -0.55330  -0.55118  -0.52813
 Alpha  occ. eigenvalues --   -0.52621  -0.52525  -0.52025  -0.49999  -0.49745
 Alpha  occ. eigenvalues --   -0.48097  -0.47599  -0.46659  -0.46481  -0.45837
 Alpha  occ. eigenvalues --   -0.45696  -0.45676  -0.45552  -0.43748  -0.43725
 Alpha virt. eigenvalues --    0.22455   0.23019   0.23630   0.24821   0.26121
 Alpha virt. eigenvalues --    0.26554   0.26864   0.27590   0.27672   0.29330
 Alpha virt. eigenvalues --    0.29812   0.31187   0.31499   0.32134   0.32491

 Mulliken charges:
               1
     1  C   -0.298170
     2  C   -0.299581
     3  C   -0.475672
     4  H    0.149498
     5  H    0.149504
     6  H    0.151752
     7  H    0.151909
     8  H    0.155165
     9  H    0.155113
    10  H    0.160142
    11  C   -0.297946
    12  C   -0.300793
    13  C   -0.476357
    14  H    0.148739
    15  H    0.149645
    16  H    0.151271
    17  H    0.151209
    18  H    0.155483
    19  H    0.159951
    20  H    0.158450
    21  C   -0.298173
    22  C   -0.299601
    23  C   -0.475685
    24  H    0.149557
    25  H    0.149535
    26  H    0.151775
    27  H    0.151924
    28  H    0.155184
    29  H    0.155139
    30  H    0.160178
    31  C   -0.298044
    32  C   -0.300555
    33  C   -0.475761
    34  H    0.148764
    35  H    0.149703
    36  H    0.151366
    37  H    0.151501
    38  H    0.158492
    39  H    0.155950
    40  H    0.159438
 Sum of Mulliken charges =  -0.00000

 Dipole moment (field-independent basis, Debye):
    X=              0.0154    Y=              0.0199    Z=             -0.0037  Tot=              0.0254
 Quadrupole moment (field-independent basis, Debye-Ang):
   XX=            -86.9051   YY=            -83.6753   ZZ=            -84.4891
   XY=             -0.2512   XZ=              0.3964   YZ=              0.4294

 Normal termination of Gaussian 16 at Wed May  5 19:41:34 2021.
