 Gaussian 16, Revision A.03,
 Gaussian 16:  EM64L-G16RevA.03 25-Dec-2016

 -------------
 #p 6-31g* mp2
 -------------

 ------------------------------------------------------
 Input file generated by CHIRIPA (05-May-2021 14:53:15)
 ------------------------------------------------------
 Symbolic Z-matrix:
 Charge =  0 Multiplicity = 1

                         Standard orientation:
 ---------------------------------------------------------------------
 Center     Atomic      Atomic             Coordinates (Angstroms)
 Number     Number       Type             X           Y           Z
 ---------------------------------------------------------------------
      1          6           0       -2.697001   -0.698246   -0.313844
      2          6           0       -2.226855   -2.076287    0.153005
      3          6           0       -0.774064   -2.365042   -0.226219
      4          1           0       -2.580175   -0.627880   -1.403957
      5          1           0       -2.043774    0.071011    0.120821
      6          1           0       -2.881619   -2.842628   -0.281302
      7          1           0       -2.344993   -2.143450    1.242110
      8          1           0       -0.104635   -1.622199    0.219483
      9          1           0       -0.644310   -2.325349   -1.312584
     10          1           0       -0.458722   -3.355249    0.117162
     11          6           0       -4.147373   -0.394948    0.057854
     12          6           0       -4.617519    0.983094   -0.408996
     13          6           0       -6.070311    1.271848   -0.029772
     14          1           0       -4.800600   -1.164205   -0.376812
     15          1           0       -4.264199   -0.465314    1.147966
     16          1           0       -4.499381    1.050256   -1.498101
     17          1           0       -3.962755    1.749434    0.025311
     18          1           0       -6.200064    1.232156    1.056594
     19          1           0       -6.739739    0.529005   -0.475474
     20          1           0       -6.385652    2.262055   -0.373152
     21          6           0        1.952592    2.841752    0.223302
     22          6           0        2.888329    2.438673   -0.735053
     23          6           0        3.295110    1.103355   -0.812532
     24          6           0        2.743286    0.193582    0.088075
     25          6           0        1.809118    0.564348    1.054073
     26          6           0        1.416918    1.904956    1.113238
     27          1           0        1.642258    3.881114    0.276377
     28          1           0        3.306017    3.164021   -1.427478
     29          1           0        4.017876    0.764100   -1.544607
     30          1           0        1.410403   -0.181696    1.730728
     31          1           0        0.690039    2.215140    1.858542
     32          7           0        3.166209   -1.222859    0.015746
     33          8           0        2.665145   -2.004967    0.820655
     34          8           0        3.990752   -1.524136   -0.844485
 ---------------------------------------------------------------------

 SCF Done:  E(RHF) =  -669.535329423     A.U. after   15 cycles
 E2 =    -0.2092609495D+01 EUMP2 =    -0.67162793891855D+03

 The electronic state is 1-A.
 Alpha  occ. eigenvalues --  -20.60839 -20.60812 -15.85856 -11.31248 -11.27826
 Alpha  occ. eigenvalues --  -11.27810 -11.27558 -11.26848 -11.26828 -11.21775
 Alpha  occ. eigenvalues --  -11.21459 -11.21385 -11.21327 -11.21239 -11.20473
 Alpha  occ. eigenvalues --   -1.59886  -1.39443  -1.19424  -1.08810  -1.08427
 Alpha  occ. eigenvalues --   -1.04833  -1.03448  -0.95878  -0.95638  -0.86886
 Alpha  occ. eigenvalues --   -0.86227  -0.82478  -0.79528  -0.78242  -0.77518
 Alpha  occ. eigenvalues --   -0.72085  -0.71203  -0.70535  -0.65094  -0.65065
 Alpha  occ. eigenvalues --   -0.64832  -0.62201  -0.60846  -0.59258  -0.57483
 Alpha  occ. eigenvalues --   -0.55355  -0.55155  -0.53161  -0.52930  -0.52510
 Alpha  occ. eigenvalues --   -0.52289  -0.49859  -0.48845  -0.48833  -0.47831
 Alpha  occ. eigenvalues --   -0.46601  -0.45796  -0.45724  -0.44718  -0.43677
 Alpha  occ. eigenvalues --   -0.37388  -0.36413
 Alpha virt. eigenvalues --    0.04988   0.11104   0.16455   0.21057   0.22870
 Alpha virt. eigenvalues --    0.24281   0.26297   0.27166   0.27632   0.27827
 Alpha virt. eigenvalues --    0.28787   0.30531   0.31480   0.31818   0.32096

 Mulliken charges:
               1
     1  C   -0.296832
     2  C   -0.301620
     3  C   -0.475858
     4  H    0.150278
     5  H    0.142728
     6  H    0.151950
     7  H    0.149242
     8  H    0.154033
     9  H    0.153041
    10  H    0.169710
    11  C   -0.297987
    12  C   -0.298641
    13  C   -0.475566
    14  H    0.151000
    15  H    0.148337
    16  H    0.152395
    17  H    0.147628
    18  H    0.154717
    19  H    0.156454
    20  H    0.159408
    21  C   -0.170575
    22  C   -0.218140
    23  C   -0.170786
    24  C    0.161281
    25  C   -0.172620
    26  C   -0.219221
    27  H    0.225959
    28  H    0.223790
    29  H    0.275879
    30  H    0.275758
    31  H    0.223687
    32  N    0.488587
    33  O   -0.458320
    34  O   -0.459695
 Sum of Mulliken charges =  -0.00000

 Dipole moment (field-independent basis, Debye):
    X=             -1.3438    Y=              4.9166    Z=              0.2264  Tot=              5.1019
 Quadrupole moment (field-independent basis, Debye-Ang):
   XX=           -102.7192   YY=            -92.7713   ZZ=            -91.4329
   XY=             14.8431   XZ=             -1.6090   YZ=             -0.2115

 Normal termination of Gaussian 16 at Wed May  5 18:40:52 2021.
