 Gaussian 16, Revision A.03,
 Gaussian 16:  EM64L-G16RevA.03 25-Dec-2016

 -------------
 #p 6-31g* mp2
 -------------

 ------------------------------------------------------
 Input file generated by CHIRIPA (05-May-2021 14:57:23)
 ------------------------------------------------------
 Symbolic Z-matrix:
 Charge =  0 Multiplicity = 1

                         Standard orientation:
 ---------------------------------------------------------------------
 Center     Atomic      Atomic             Coordinates (Angstroms)
 Number     Number       Type             X           Y           Z
 ---------------------------------------------------------------------
      1          6           0        4.779359    1.994525    0.195182
      2          6           0        3.421612    2.207917   -0.064643
      3          6           0        2.566261    1.128258   -0.303931
      4          6           0        3.104721   -0.157259   -0.275672
      5          6           0        4.452962   -0.402267   -0.019728
      6          6           0        5.289800    0.692410    0.216772
      7          1           0        5.436625    2.839064    0.379984
      8          1           0        3.022431    3.218065   -0.082034
      9          1           0        1.511155    1.264870   -0.507661
     10          1           0        4.821751   -1.420744   -0.008969
     11          1           0        6.343827    0.523691    0.418284
     12          7           0        2.208998   -1.308195   -0.527520
     13          8           0        2.707978   -2.431016   -0.497071
     14          8           0        1.024912   -1.065683   -0.750599
     15          6           0       -1.588689   -1.523085    1.407242
     16          6           0       -1.933793   -0.286494    1.962459
     17          6           0       -2.854447    0.547612    1.321200
     18          6           0       -3.413183    0.111681    0.120756
     19          6           0       -3.089673   -1.114750   -0.457601
     20          6           0       -2.166711   -1.932545    0.201110
     21          1           0       -0.872606   -2.164703    1.912165
     22          1           0       -1.486480    0.034085    2.899040
     23          1           0       -3.139550    1.509894    1.728813
     24          1           0       -3.552303   -1.407056   -1.392454
     25          1           0       -1.900579   -2.892379   -0.232408
     26          7           0       -4.389061    0.986077   -0.567354
     27          8           0       -4.867186    0.579004   -1.623916
     28          8           0       -4.657348    2.061946   -0.037103
 ---------------------------------------------------------------------

 SCF Done:  E(RHF) =  -868.338810125     A.U. after   16 cycles
 E2 =    -0.2599901946D+01 EUMP2 =    -0.87093871207146D+03

 The electronic state is 1-A.
 Alpha  occ. eigenvalues --  -20.61488 -20.61450 -20.60125 -20.60105 -15.86483
 Alpha  occ. eigenvalues --  -15.85162 -11.31681 -11.30269 -11.28238 -11.28204
 Alpha  occ. eigenvalues --  -11.27933 -11.27205 -11.27179 -11.26885 -11.26725
 Alpha  occ. eigenvalues --  -11.26440 -11.25851 -11.25610  -1.60552  -1.59200
 Alpha  occ. eigenvalues --   -1.40103  -1.38761  -1.19840  -1.18401  -1.09270
 Alpha  occ. eigenvalues --   -1.07827  -1.05209  -1.03774  -0.96133  -0.94718
 Alpha  occ. eigenvalues --   -0.86614  -0.85180  -0.82962  -0.81571  -0.78033
 Alpha  occ. eigenvalues --   -0.76664  -0.72726  -0.71875  -0.71388  -0.70935
 Alpha  occ. eigenvalues --   -0.70523  -0.69505  -0.65489  -0.65204  -0.64057
 Alpha  occ. eigenvalues --   -0.63779  -0.62551  -0.61148  -0.55714  -0.54258
 Alpha  occ. eigenvalues --   -0.53560  -0.53291  -0.52100  -0.51875  -0.49497
 Alpha  occ. eigenvalues --   -0.49471  -0.48156  -0.48119  -0.45546  -0.44226
 Alpha  occ. eigenvalues --   -0.37820  -0.36810  -0.36252  -0.35337
 Alpha virt. eigenvalues --    0.04435   0.05899   0.10846   0.12323   0.15983
 Alpha virt. eigenvalues --    0.17490   0.21042   0.22372   0.26967   0.27921
 Alpha virt. eigenvalues --    0.28270   0.29222   0.30624   0.31917   0.32129

 Mulliken charges:
               1
     1  C   -0.170243
     2  C   -0.219010
     3  C   -0.171936
     4  C    0.156430
     5  C   -0.171235
     6  C   -0.218719
     7  H    0.227473
     8  H    0.226140
     9  H    0.278399
    10  H    0.275422
    11  H    0.224664
    12  N    0.487954
    13  O   -0.462906
    14  O   -0.461271
    15  C   -0.159862
    16  C   -0.222894
    17  C   -0.175247
    18  C    0.156816
    19  C   -0.173140
    20  C   -0.201289
    21  H    0.225465
    22  H    0.216856
    23  H    0.269743
    24  H    0.273265
    25  H    0.228386
    26  N    0.488028
    27  O   -0.461823
    28  O   -0.465464
 Sum of Mulliken charges =  -0.00000

 Dipole moment (field-independent basis, Debye):
    X=              6.9353    Y=              0.7845    Z=              3.2012  Tot=              7.6786
 Quadrupole moment (field-independent basis, Debye-Ang):
   XX=           -107.4877   YY=           -102.8869   ZZ=           -103.5566
   XY=             21.7928   XZ=             -4.7495   YZ=              0.9838

 Normal termination of Gaussian 16 at Thu May  6 00:14:34 2021.
