 Gaussian 16, Revision A.03,
 Gaussian 16:  EM64L-G16RevA.03 25-Dec-2016

 -------------
 #p 6-31g* mp2
 -------------

 ------------------------------------------------------
 Input file generated by CHIRIPA (05-May-2021 14:55:23)
 ------------------------------------------------------
 Symbolic Z-matrix:
 Charge =  0 Multiplicity = 1

                         Standard orientation:
 ---------------------------------------------------------------------
 Center     Atomic      Atomic             Coordinates (Angstroms)
 Number     Number       Type             X           Y           Z
 ---------------------------------------------------------------------
      1          6           0        3.014909    1.906793    0.989299
      2          6           0        1.829738    1.728597    0.268095
      3          6           0        1.509522    0.480494   -0.274351
      4          6           0        2.401321   -0.572328   -0.075479
      5          6           0        3.589824   -0.426356    0.638273
      6          6           0        3.889628    0.830645    1.171764
      7          1           0        3.255732    2.879806    1.407206
      8          1           0        1.148543    2.562557    0.124811
      9          1           0        0.598785    0.314685   -0.836919
     10          1           0        4.249094   -1.276566    0.764463
     11          1           0        4.810759    0.966115    1.731416
     12          7           0        2.073127   -1.898350   -0.645003
     13          8           0        2.875501   -2.809949   -0.455746
     14          8           0        1.019729   -2.000977   -1.269869
     15          6           0       -2.799207    0.821999   -0.597130
     16          6           0       -2.029511    2.063248   -0.144521
     17          6           0       -1.347357    2.791009   -1.303324
     18          1           0       -2.109031    0.136157   -1.107248
     19          1           0       -3.552771    1.117170   -1.340373
     20          1           0       -1.278552    1.766024    0.598672
     21          1           0       -2.721560    2.746130    0.364748
     22          1           0       -2.086473    3.115505   -2.042926
     23          1           0       -0.635265    2.129832   -1.807674
     24          1           0       -0.802933    3.675156   -0.957280
     25          6           0       -3.486645    0.083688    0.550064
     26          6           0       -4.256340   -1.157560    0.097455
     27          6           0       -4.938495   -1.885322    1.256258
     28          1           0       -2.733080   -0.211484    1.293307
     29          1           0       -4.176821    0.769531    1.060183
     30          1           0       -3.564291   -1.840443   -0.411814
     31          1           0       -5.007299   -0.860337   -0.645738
     32          1           0       -5.650587   -1.224145    1.760608
     33          1           0       -4.199379   -2.209819    1.995860
     34          1           0       -5.482919   -2.769469    0.910215
 ---------------------------------------------------------------------

 SCF Done:  E(RHF) =  -669.534389720     A.U. after   15 cycles
 E2 =    -0.2093907899D+01 EUMP2 =    -0.67162829761869D+03

 The electronic state is 1-A.
 Alpha  occ. eigenvalues --  -20.60797 -20.60791 -15.85845 -11.31171 -11.27738
 Alpha  occ. eigenvalues --  -11.27700 -11.27453 -11.26753 -11.26653 -11.22312
 Alpha  occ. eigenvalues --  -11.22084 -11.21728 -11.21512 -11.21449 -11.20928
 Alpha  occ. eigenvalues --   -1.59869  -1.39424  -1.19339  -1.08770  -1.08721
 Alpha  occ. eigenvalues --   -1.04763  -1.03876  -0.96362  -0.95582  -0.87382
 Alpha  occ. eigenvalues --   -0.86132  -0.82420  -0.79979  -0.78449  -0.77489
 Alpha  occ. eigenvalues --   -0.72067  -0.71190  -0.70481  -0.65504  -0.64951
 Alpha  occ. eigenvalues --   -0.64781  -0.62386  -0.60914  -0.59788  -0.57923
 Alpha  occ. eigenvalues --   -0.55660  -0.55173  -0.53169  -0.53079  -0.52908
 Alpha  occ. eigenvalues --   -0.52558  -0.50312  -0.48822  -0.48814  -0.48264
 Alpha  occ. eigenvalues --   -0.47015  -0.46001  -0.45865  -0.44837  -0.44104
 Alpha  occ. eigenvalues --   -0.37318  -0.36304
 Alpha virt. eigenvalues --    0.05016   0.11297   0.16426   0.19520   0.23006
 Alpha virt. eigenvalues --    0.24076   0.25211   0.26476   0.27165   0.28264
 Alpha virt. eigenvalues --    0.29717   0.30668   0.31379   0.31805   0.32222

 Mulliken charges:
               1
     1  C   -0.172161
     2  C   -0.224320
     3  C   -0.180659
     4  C    0.158606
     5  C   -0.170685
     6  C   -0.218693
     7  H    0.225851
     8  H    0.234695
     9  H    0.283487
    10  H    0.275407
    11  H    0.223342
    12  N    0.488189
    13  O   -0.460068
    14  O   -0.462177
    15  C   -0.304177
    16  C   -0.309631
    17  C   -0.486108
    18  H    0.157930
    19  H    0.152285
    20  H    0.150785
    21  H    0.156688
    22  H    0.166159
    23  H    0.153540
    24  H    0.154707
    25  C   -0.297966
    26  C   -0.302060
    27  C   -0.476038
    28  H    0.150969
    29  H    0.148520
    30  H    0.160817
    31  H    0.151177
    32  H    0.153252
    33  H    0.156442
    34  H    0.161899
 Sum of Mulliken charges =  -0.00000

 Dipole moment (field-independent basis, Debye):
    X=              1.0030    Y=              4.5982    Z=              1.9705  Tot=              5.1021
 Quadrupole moment (field-independent basis, Debye-Ang):
   XX=            -84.8884   YY=           -100.0402   ZZ=            -95.5586
   XY=              8.1431   XZ=              7.4249   YZ=             -1.9321

 Normal termination of Gaussian 16 at Thu May  6 03:07:30 2021.
