 Gaussian 16, Revision A.03,
 Gaussian 16:  EM64L-G16RevA.03 25-Dec-2016

 -------------
 #p 6-31g* mp2
 -------------

 ------------------------------------------------------
 Input file generated by CHIRIPA (05-May-2021 14:51:09)
 ------------------------------------------------------
 Symbolic Z-matrix:
 Charge =  0 Multiplicity = 1

                         Standard orientation:
 ---------------------------------------------------------------------
 Center     Atomic      Atomic             Coordinates (Angstroms)
 Number     Number       Type             X           Y           Z
 ---------------------------------------------------------------------
      1          6           0        3.258939   -0.500281    0.687703
      2          6           0        1.903558    0.141578    0.389471
      3          6           0        0.820266   -0.275275    1.384712
      4          1           0        3.150135   -1.593437    0.676902
      5          1           0        3.570124   -0.227183    1.705532
      6          1           0        1.595670   -0.131518   -0.627997
      7          1           0        2.015642    1.233331    0.400794
      8          1           0        1.101658    0.011757    2.403059
      9          1           0        0.679300   -1.360846    1.368423
     10          1           0       -0.140387    0.195094    1.152851
     11          6           0        4.352178   -0.093206   -0.298626
     12          6           0        5.707560   -0.735066   -0.000394
     13          6           0        6.790852   -0.318212   -0.995635
     14          1           0        4.040994   -0.366305   -1.316456
     15          1           0        4.460983    0.999950   -0.287825
     16          1           0        5.595475   -1.826819   -0.011717
     17          1           0        6.015448   -0.461970    1.017073
     18          1           0        6.931817    0.767359   -0.979346
     19          1           0        6.509459   -0.605245   -2.013983
     20          1           0        7.751504   -0.788582   -0.763774
     21          6           0       -4.158454   -0.273774   -0.559786
     22          6           0       -5.245402   -0.949081    0.277167
     23          6           0       -5.942279   -2.088428   -0.467173
     24          1           0       -4.604613    0.110953   -1.487080
     25          1           0       -3.415491   -1.026004   -0.859034
     26          1           0       -5.985362   -0.195537    0.575909
     27          1           0       -4.796641   -1.332076    1.202665
     28          1           0       -5.220581   -2.860964   -0.751677
     29          1           0       -6.416057   -1.717968   -1.381993
     30          1           0       -6.715527   -2.557109    0.149499
     31          6           0       -3.452663    0.867261    0.170709
     32          6           0       -2.365716    1.542569   -0.666244
     33          6           0       -1.668838    2.681915    0.078097
     34          1           0       -4.195627    1.619492    0.469958
     35          1           0       -3.006505    0.482535    1.098003
     36          1           0       -2.814477    1.925564   -1.591741
     37          1           0       -1.625756    0.789025   -0.964986
     38          1           0       -1.195060    2.311456    0.992916
     39          1           0       -2.390535    3.454452    0.362600
     40          1           0       -0.895590    3.150597   -0.538577
 ---------------------------------------------------------------------

 SCF Done:  E(RHF) =  -470.732965585     A.U. after   11 cycles
 E2 =    -0.1583255914D+01 EUMP2 =    -0.47231622149926D+03

 The electronic state is 1-A.
 Alpha  occ. eigenvalues --  -11.21619 -11.21608 -11.21605 -11.21592 -11.21416
 Alpha  occ. eigenvalues --  -11.21407 -11.21357 -11.21347 -11.21076 -11.21074
 Alpha  occ. eigenvalues --  -11.21065 -11.21056  -1.08458  -1.08419  -1.03592
 Alpha  occ. eigenvalues --   -1.03488  -0.96045  -0.95933  -0.87031  -0.86982
 Alpha  occ. eigenvalues --   -0.79614  -0.79584  -0.78260  -0.78236  -0.65110
 Alpha  occ. eigenvalues --   -0.65071  -0.61106  -0.60939  -0.59352  -0.59270
 Alpha  occ. eigenvalues --   -0.57603  -0.57575  -0.55327  -0.55212  -0.52697
 Alpha  occ. eigenvalues --   -0.52662  -0.52456  -0.52324  -0.49970  -0.49883
 Alpha  occ. eigenvalues --   -0.47996  -0.47823  -0.46657  -0.46610  -0.45797
 Alpha  occ. eigenvalues --   -0.45781  -0.45738  -0.45689  -0.43810  -0.43749
 Alpha virt. eigenvalues --    0.20461   0.23062   0.23644   0.25371   0.26279
 Alpha virt. eigenvalues --    0.26533   0.26955   0.27470   0.27929   0.29026
 Alpha virt. eigenvalues --    0.30761   0.31014   0.31422   0.31600   0.32228

 Mulliken charges:
               1
     1  C   -0.298364
     2  C   -0.299692
     3  C   -0.484896
     4  H    0.149598
     5  H    0.149652
     6  H    0.151700
     7  H    0.153073
     8  H    0.155012
     9  H    0.154701
    10  H    0.169572
    11  C   -0.298282
    12  C   -0.299661
    13  C   -0.475719
    14  H    0.149510
    15  H    0.149754
    16  H    0.151920
    17  H    0.151963
    18  H    0.155221
    19  H    0.155186
    20  H    0.160275
    21  C   -0.298129
    22  C   -0.299750
    23  C   -0.475712
    24  H    0.149599
    25  H    0.149703
    26  H    0.151885
    27  H    0.152268
    28  H    0.155176
    29  H    0.155115
    30  H    0.160265
    31  C   -0.300150
    32  C   -0.303071
    33  C   -0.478735
    34  H    0.149822
    35  H    0.150705
    36  H    0.152949
    37  H    0.153663
    38  H    0.157753
    39  H    0.155383
    40  H    0.160740
 Sum of Mulliken charges =  -0.00000

 Dipole moment (field-independent basis, Debye):
    X=             -0.0016    Y=              0.0122    Z=             -0.0016  Tot=              0.0124
 Quadrupole moment (field-independent basis, Debye-Ang):
   XX=            -85.3834   YY=            -84.4806   ZZ=            -84.8816
   XY=             -0.9309   XZ=              0.7173   YZ=              0.0465

 Normal termination of Gaussian 16 at Thu May  6 00:32:56 2021.
