 Gaussian 16, Revision A.03,
 Gaussian 16:  EM64L-G16RevA.03 25-Dec-2016

 -------------
 #p 6-31g* mp2
 -------------

 ------------------------------------------------------
 Input file generated by CHIRIPA (05-May-2021 14:53:12)
 ------------------------------------------------------
 Symbolic Z-matrix:
 Charge =  0 Multiplicity = 1

                         Standard orientation:
 ---------------------------------------------------------------------
 Center     Atomic      Atomic             Coordinates (Angstroms)
 Number     Number       Type             X           Y           Z
 ---------------------------------------------------------------------
      1          6           0       -3.121204   -0.836240    0.620119
      2          6           0       -1.664053   -0.513615    0.952699
      3          6           0       -0.971621   -1.636349    1.725876
      4          1           0       -3.668439   -1.033165    1.552159
      5          1           0       -3.159221   -1.764432    0.033256
      6          1           0       -1.628692    0.414436    1.537581
      7          1           0       -1.120267   -0.317247    0.019772
      8          1           0       -0.977321   -2.564420    1.145141
      9          1           0       -1.488634   -1.828580    2.671574
     10          1           0        0.069003   -1.384759    1.953174
     11          6           0       -3.826903    0.276602   -0.152733
     12          6           0       -5.284054   -0.046023   -0.485313
     13          6           0       -5.976486    1.076711   -1.258490
     14          1           0       -3.788886    1.204794    0.434130
     15          1           0       -3.279667    0.473527   -1.084773
     16          1           0       -5.827840   -0.242391    0.447613
     17          1           0       -5.319415   -0.974074   -1.070196
     18          1           0       -5.459472    1.268942   -2.204189
     19          1           0       -5.970786    2.004782   -0.677756
     20          1           0       -7.017109    0.825121   -1.485788
     21          6           0        2.453201    2.511208    0.838133
     22          6           0        2.721446    2.379747   -0.528353
     23          6           0        2.867948    1.114451   -1.104645
     24          6           0        2.739328   -0.003031   -0.281250
     25          6           0        2.472348    0.095263    1.083429
     26          6           0        2.329726    1.370557    1.638252
     27          1           0        2.340901    3.498004    1.277471
     28          1           0        2.817855    3.263835   -1.152161
     29          1           0        3.075861    0.983837   -2.159695
     30          1           0        2.381699   -0.804535    1.679723
     31          1           0        2.121429    1.469630    2.699780
     32          7           0        2.892369   -1.347837   -0.879981
     33          8           0        2.774446   -2.316727   -0.132998
     34          8           0        3.127349   -1.407540   -2.084912
 ---------------------------------------------------------------------

 SCF Done:  E(RHF) =  -669.535163623     A.U. after   15 cycles
 E2 =    -0.2092237459D+01 EUMP2 =    -0.67162740108198D+03

 The electronic state is 1-A.
 Alpha  occ. eigenvalues --  -20.60795 -20.60785 -15.85845 -11.31225 -11.27795
 Alpha  occ. eigenvalues --  -11.27791 -11.27532 -11.26811 -11.26799 -11.21615
 Alpha  occ. eigenvalues --  -11.21613 -11.21421 -11.21347 -11.21112 -11.21016
 Alpha  occ. eigenvalues --   -1.59867  -1.39419  -1.19399  -1.08787  -1.08438
 Alpha  occ. eigenvalues --   -1.04809  -1.03536  -0.95991  -0.95618  -0.87007
 Alpha  occ. eigenvalues --   -0.86198  -0.82453  -0.79599  -0.78251  -0.77503
 Alpha  occ. eigenvalues --   -0.72063  -0.71191  -0.70518  -0.65070  -0.65045
 Alpha  occ. eigenvalues --   -0.64817  -0.62202  -0.60924  -0.59365  -0.57620
 Alpha  occ. eigenvalues --   -0.55305  -0.55253  -0.53191  -0.52981  -0.52571
 Alpha  occ. eigenvalues --   -0.52337  -0.49908  -0.48823  -0.48817  -0.47916
 Alpha  occ. eigenvalues --   -0.46626  -0.45791  -0.45716  -0.44820  -0.43797
 Alpha  occ. eigenvalues --   -0.37367  -0.36374
 Alpha virt. eigenvalues --    0.05002   0.11191   0.16495   0.20993   0.22884
 Alpha virt. eigenvalues --    0.24186   0.26445   0.26629   0.27480   0.27832
 Alpha virt. eigenvalues --    0.28690   0.30534   0.31420   0.31557   0.31863

 Mulliken charges:
               1
     1  C   -0.298913
     2  C   -0.298697
     3  C   -0.475960
     4  H    0.148896
     5  H    0.152674
     6  H    0.146581
     7  H    0.153265
     8  H    0.164827
     9  H    0.152847
    10  H    0.152364
    11  C   -0.297993
    12  C   -0.299758
    13  C   -0.475660
    14  H    0.147118
    15  H    0.150159
    16  H    0.151673
    17  H    0.153494
    18  H    0.155310
    19  H    0.153902
    20  H    0.160616
    21  C   -0.170437
    22  C   -0.218147
    23  C   -0.171391
    24  C    0.158242
    25  C   -0.169445
    26  C   -0.218461
    27  H    0.225788
    28  H    0.223599
    29  H    0.275668
    30  H    0.276740
    31  H    0.223853
    32  N    0.487974
    33  O   -0.460130
    34  O   -0.460598
 Sum of Mulliken charges =  -0.00000

 Dipole moment (field-independent basis, Debye):
    X=             -0.5169    Y=              4.6986    Z=              2.0530  Tot=              5.1536
 Quadrupole moment (field-independent basis, Debye-Ang):
   XX=            -98.8014   YY=            -94.5713   ZZ=            -91.7760
   XY=             14.0567   XZ=              4.6302   YZ=             -2.6446

 Normal termination of Gaussian 16 at Thu May  6 00:58:29 2021.
