 Gaussian 16, Revision A.03,
 Gaussian 16:  EM64L-G16RevA.03 25-Dec-2016

 -------------
 #p 6-31g* mp2
 -------------

 ------------------------------------------------------
 Input file generated by CHIRIPA (05-May-2021 14:57:21)
 ------------------------------------------------------
 Symbolic Z-matrix:
 Charge =  0 Multiplicity = 1

                         Standard orientation:
 ---------------------------------------------------------------------
 Center     Atomic      Atomic             Coordinates (Angstroms)
 Number     Number       Type             X           Y           Z
 ---------------------------------------------------------------------
      1          6           0       -2.109164    2.417101   -0.440694
      2          6           0       -1.371931    1.228623   -0.417697
      3          6           0       -2.017626   -0.005140   -0.293375
      4          6           0       -3.408063   -0.013583   -0.193856
      5          6           0       -4.170409    1.153347   -0.213696
      6          6           0       -3.503591    2.375743   -0.338800
      7          1           0       -1.599368    3.371102   -0.537573
      8          1           0       -0.288896    1.257711   -0.496644
      9          1           0       -1.471436   -0.940380   -0.272862
     10          1           0       -5.248927    1.092420   -0.133048
     11          1           0       -4.078709    3.297142   -0.356375
     12          7           0       -4.102812   -1.313695   -0.061828
     13          8           0       -5.328721   -1.294175    0.024203
     14          8           0       -3.408291   -2.327625   -0.046877
     15          6           0        4.878178   -0.175940   -1.747621
     16          6           0        3.698383   -0.924771   -1.809714
     17          6           0        2.813035   -0.945838   -0.727928
     18          6           0        3.140365   -0.203085    0.405414
     19          6           0        4.308025    0.552794    0.497642
     20          6           0        5.178704    0.559157   -0.596170
     21          1           0        5.560241   -0.165286   -2.592649
     22          1           0        3.462409   -1.496615   -2.702662
     23          1           0        1.892795   -1.516910   -0.749208
     24          1           0        4.516057    1.112743    1.401301
     25          1           0        6.094228    1.141616   -0.545139
     26          7           0        2.210851   -0.217603    1.557019
     27          8           0        2.522192    0.445286    2.544076
     28          8           0        1.188558   -0.891598    1.450784
 ---------------------------------------------------------------------

 SCF Done:  E(RHF) =  -868.338562028     A.U. after   16 cycles
 E2 =    -0.2599904919D+01 EUMP2 =    -0.87093846694639D+03

 The electronic state is 1-A.
 Alpha  occ. eigenvalues --  -20.61593 -20.61567 -20.60165 -20.60152 -15.86609
 Alpha  occ. eigenvalues --  -15.85212 -11.31915 -11.30496 -11.28472 -11.28429
 Alpha  occ. eigenvalues --  -11.28135 -11.27426 -11.27416 -11.27123 -11.27003
 Alpha  occ. eigenvalues --  -11.26871 -11.26139 -11.26069  -1.60644  -1.59237
 Alpha  occ. eigenvalues --   -1.40201  -1.38792  -1.20062  -1.18685  -1.09462
 Alpha  occ. eigenvalues --   -1.08111  -1.05440  -1.04071  -0.96308  -0.94947
 Alpha  occ. eigenvalues --   -0.86840  -0.85491  -0.83135  -0.81778  -0.78209
 Alpha  occ. eigenvalues --   -0.76822  -0.72816  -0.71978  -0.71437  -0.71142
 Alpha  occ. eigenvalues --   -0.70555  -0.69813  -0.65702  -0.65420  -0.64345
 Alpha  occ. eigenvalues --   -0.64103  -0.62785  -0.61414  -0.55916  -0.54629
 Alpha  occ. eigenvalues --   -0.53786  -0.53515  -0.52412  -0.52182  -0.49588
 Alpha  occ. eigenvalues --   -0.49561  -0.48196  -0.48185  -0.45601  -0.44214
 Alpha  occ. eigenvalues --   -0.38032  -0.37044  -0.36694  -0.35648
 Alpha virt. eigenvalues --    0.04283   0.05716   0.10549   0.11983   0.15789
 Alpha virt. eigenvalues --    0.17202   0.20422   0.21894   0.25764   0.27090
 Alpha virt. eigenvalues --    0.27983   0.28953   0.30743   0.31080   0.31938

 Mulliken charges:
               1
     1  C   -0.170788
     2  C   -0.215058
     3  C   -0.165332
     4  C    0.157148
     5  C   -0.171228
     6  C   -0.219162
     7  H    0.222624
     8  H    0.217471
     9  H    0.280899
    10  H    0.273537
    11  H    0.220728
    12  N    0.488268
    13  O   -0.463148
    14  O   -0.459859
    15  C   -0.170549
    16  C   -0.218136
    17  C   -0.175831
    18  C    0.155512
    19  C   -0.171453
    20  C   -0.218283
    21  H    0.228332
    22  H    0.226976
    23  H    0.275277
    24  H    0.276974
    25  H    0.225774
    26  N    0.488150
    27  O   -0.455438
    28  O   -0.463404
 Sum of Mulliken charges =  -0.00000

 Dipole moment (field-independent basis, Debye):
    X=              6.0908    Y=              4.5436    Z=             -4.4603  Tot=              8.8111
 Quadrupole moment (field-independent basis, Debye-Ang):
   XX=            -95.3669   YY=           -103.1711   ZZ=           -107.7839
   XY=            -16.2824   XZ=             -9.2256   YZ=              1.9985

 Normal termination of Gaussian 16 at Thu May  6 09:38:32 2021.
