 Gaussian 16, Revision A.03,
 Gaussian 16:  EM64L-G16RevA.03 25-Dec-2016

 -------------
 #p 6-31g* mp2
 -------------

 ------------------------------------------------------
 Input file generated by CHIRIPA (05-May-2021 14:57:25)
 ------------------------------------------------------
 Symbolic Z-matrix:
 Charge =  0 Multiplicity = 1

                         Standard orientation:
 ---------------------------------------------------------------------
 Center     Atomic      Atomic             Coordinates (Angstroms)
 Number     Number       Type             X           Y           Z
 ---------------------------------------------------------------------
      1          6           0       -1.042276   -1.576992    0.452132
      2          6           0       -1.568525   -1.396163   -0.831178
      3          6           0       -2.743036   -0.661696   -1.019935
      4          6           0       -3.368154   -0.119610    0.101965
      5          6           0       -2.868579   -0.282250    1.393191
      6          6           0       -1.692836   -1.020440    1.558270
      7          1           0       -0.129409   -2.148989    0.589566
      8          1           0       -1.065423   -1.827240   -1.692054
      9          1           0       -3.172270   -0.506241   -2.002284
     10          1           0       -3.392560    0.159574    2.232031
     11          1           0       -1.286432   -1.159253    2.556074
     12          7           0       -4.612209    0.659908   -0.085330
     13          8           0       -5.143973    1.127267    0.919379
     14          8           0       -5.031980    0.788775   -1.233295
     15          6           0        3.082327    2.768249   -0.042479
     16          6           0        2.360153    2.079426   -1.022535
     17          6           0        2.397539    0.683142   -1.082062
     18          6           0        3.170929    0.004444   -0.141569
     19          6           0        3.901475    0.662200    0.846839
     20          6           0        3.849331    2.058688    0.887440
     21          1           0        3.047551    3.852995   -0.003588
     22          1           0        1.763635    2.627866   -1.746016
     23          1           0        1.848185    0.124700   -1.830238
     24          1           0        4.487142    0.087952    1.554406
     25          1           0        4.411201    2.590999    1.649669
     26          7           0        3.218321   -1.473848   -0.194569
     27          8           0        3.907252   -2.048536    0.645517
     28          8           0        2.565638   -2.029853   -1.075195
 ---------------------------------------------------------------------

 SCF Done:  E(RHF) =  -868.340004531     A.U. after   16 cycles
 E2 =    -0.2599270742D+01 EUMP2 =    -0.87093927527307D+03

 The electronic state is 1-A.
 Alpha  occ. eigenvalues --  -20.61854 -20.61811 -20.60691 -20.60686 -15.86852
 Alpha  occ. eigenvalues --  -15.85741 -11.31913 -11.30998 -11.28457 -11.28438
 Alpha  occ. eigenvalues --  -11.28099 -11.27567 -11.27552 -11.27374 -11.27355
 Alpha  occ. eigenvalues --  -11.27119 -11.26503 -11.26443  -1.60905  -1.59771
 Alpha  occ. eigenvalues --   -1.40465  -1.39327  -1.20054  -1.19146  -1.09500
 Alpha  occ. eigenvalues --   -1.08527  -1.05405  -1.04535  -0.96386  -0.95386
 Alpha  occ. eigenvalues --   -0.86818  -0.85910  -0.83227  -0.82230  -0.78319
 Alpha  occ. eigenvalues --   -0.77320  -0.73073  -0.72246  -0.71956  -0.71148
 Alpha  occ. eigenvalues --   -0.71097  -0.70143  -0.65704  -0.65396  -0.64774
 Alpha  occ. eigenvalues --   -0.64496  -0.62761  -0.61880  -0.55900  -0.54913
 Alpha  occ. eigenvalues --   -0.53757  -0.53491  -0.52869  -0.52596  -0.49851
 Alpha  occ. eigenvalues --   -0.49798  -0.48723  -0.48704  -0.45922  -0.44758
 Alpha  occ. eigenvalues --   -0.38018  -0.37158  -0.36905  -0.36162
 Alpha virt. eigenvalues --    0.04166   0.05205   0.10631   0.11499   0.15720
 Alpha virt. eigenvalues --    0.16738   0.20663   0.21832   0.26364   0.27196
 Alpha virt. eigenvalues --    0.28157   0.28642   0.30584   0.31084   0.31969

 Mulliken charges:
               1
     1  C   -0.176014
     2  C   -0.224515
     3  C   -0.173421
     4  C    0.157513
     5  C   -0.171849
     6  C   -0.219377
     7  H    0.239261
     8  H    0.230385
     9  H    0.273664
    10  H    0.274008
    11  H    0.223398
    12  N    0.488051
    13  O   -0.461545
    14  O   -0.461867
    15  C   -0.169519
    16  C   -0.217649
    17  C   -0.168829
    18  C    0.155804
    19  C   -0.171489
    20  C   -0.218586
    21  H    0.229179
    22  H    0.227150
    23  H    0.272312
    24  H    0.275913
    25  H    0.225741
    26  N    0.486381
    27  O   -0.456458
    28  O   -0.467641
 Sum of Mulliken charges =  -0.00000

 Dipole moment (field-independent basis, Debye):
    X=              4.5024    Y=              2.5475    Z=              0.8795  Tot=              5.2473
 Quadrupole moment (field-independent basis, Debye-Ang):
   XX=           -135.0320   YY=           -104.7671   ZZ=            -97.0716
   XY=             25.8701   XZ=              1.5313   YZ=             -0.3568

 Normal termination of Gaussian 16 at Fri May  7 11:12:36 2021.
