 Gaussian 16, Revision A.03,
 Gaussian 16:  EM64L-G16RevA.03 25-Dec-2016

 -------------
 #p 6-31g* mp2
 -------------

 ------------------------------------------------------
 Input file generated by CHIRIPA (05-May-2021 14:51:11)
 ------------------------------------------------------
 Symbolic Z-matrix:
 Charge =  0 Multiplicity = 1

                         Standard orientation:
 ---------------------------------------------------------------------
 Center     Atomic      Atomic             Coordinates (Angstroms)
 Number     Number       Type             X           Y           Z
 ---------------------------------------------------------------------
      1          6           0        2.722133   -0.121992   -0.259388
      2          6           0        2.945529   -1.213699    0.787634
      3          6           0        3.063106   -2.608232    0.171803
      4          1           0        1.811326   -0.350559   -0.829592
      5          1           0        3.553065   -0.137530   -0.978210
      6          1           0        2.115126   -1.195198    1.505064
      7          1           0        3.855805   -0.982406    1.355541
      8          1           0        3.902817   -2.650144   -0.529431
      9          1           0        2.152249   -2.864145   -0.379058
     10          1           0        3.222455   -3.373333    0.938020
     11          6           0        2.602584    1.277708    0.340842
     12          6           0        2.379188    2.369415   -0.706180
     13          6           0        2.261611    3.763948   -0.090349
     14          1           0        1.771652    1.293246    1.059664
     15          1           0        3.513390    1.506274    0.911047
     16          1           0        1.468912    2.138122   -1.274086
     17          1           0        3.209591    2.350914   -1.423609
     18          1           0        3.172468    4.019861    0.460512
     19          1           0        1.421899    3.805860    0.610885
     20          1           0        2.102262    4.529049   -0.856566
     21          6           0       -2.972734   -0.031630    0.393709
     22          6           0       -3.968414    0.850335   -0.360441
     23          6           0       -4.580857    1.938406    0.522062
     24          1           0       -3.479451   -0.495119    1.251241
     25          1           0       -2.173797    0.599728    0.806604
     26          1           0       -4.764494    0.217331   -0.772963
     27          1           0       -3.459316    1.311627   -1.216389
     28          1           0       -3.800806    2.593794    0.922795
     29          1           0       -5.113399    1.493280    1.368739
     30          1           0       -5.289608    2.557154   -0.037118
     31          6           0       -2.351984   -1.124086   -0.475164
     32          6           0       -1.356303   -2.006051    0.278986
     33          6           0       -0.743860   -3.094121   -0.603517
     34          1           0       -3.150919   -1.755443   -0.888058
     35          1           0       -1.845267   -0.660597   -1.332696
     36          1           0       -1.865400   -2.467342    1.134934
     37          1           0       -0.560222   -1.373046    0.691510
     38          1           0       -0.211317   -2.648996   -1.450194
     39          1           0       -1.523911   -3.749510   -1.004249
     40          1           0       -0.035108   -3.712869   -0.044337
 ---------------------------------------------------------------------

 SCF Done:  E(RHF) =  -470.732603848     A.U. after   11 cycles
 E2 =    -0.1584098064D+01 EUMP2 =    -0.47231670191169D+03

 The electronic state is 1-A.
 Alpha  occ. eigenvalues --  -11.21687 -11.21650 -11.21643 -11.21579 -11.21477
 Alpha  occ. eigenvalues --  -11.21435 -11.21417 -11.21373 -11.21137 -11.21108
 Alpha  occ. eigenvalues --  -11.21107 -11.20928  -1.08515  -1.08435  -1.03635
 Alpha  occ. eigenvalues --   -1.03496  -0.96094  -0.95937  -0.87131  -0.86936
 Alpha  occ. eigenvalues --   -0.79718  -0.79544  -0.78323  -0.78251  -0.65336
 Alpha  occ. eigenvalues --   -0.64916  -0.61275  -0.60712  -0.59404  -0.59344
 Alpha  occ. eigenvalues --   -0.57681  -0.57573  -0.55499  -0.55109  -0.52818
 Alpha  occ. eigenvalues --   -0.52653  -0.52480  -0.52326  -0.50172  -0.49733
 Alpha  occ. eigenvalues --   -0.47979  -0.47886  -0.46843  -0.46471  -0.45926
 Alpha  occ. eigenvalues --   -0.45848  -0.45716  -0.45622  -0.43828  -0.43785
 Alpha virt. eigenvalues --    0.19196   0.23069   0.23664   0.25004   0.25595
 Alpha virt. eigenvalues --    0.26294   0.26951   0.28183   0.28870   0.29453
 Alpha virt. eigenvalues --    0.30446   0.31009   0.31419   0.31871   0.32244

 Mulliken charges:
               1
     1  C   -0.300488
     2  C   -0.300798
     3  C   -0.483928
     4  H    0.150558
     5  H    0.149913
     6  H    0.152920
     7  H    0.151943
     8  H    0.154318
     9  H    0.166209
    10  H    0.158867
    11  C   -0.298453
    12  C   -0.299542
    13  C   -0.475661
    14  H    0.148828
    15  H    0.150130
    16  H    0.151253
    17  H    0.152209
    18  H    0.155433
    19  H    0.154933
    20  H    0.160374
    21  C   -0.298243
    22  C   -0.299718
    23  C   -0.475736
    24  H    0.149955
    25  H    0.148925
    26  H    0.152144
    27  H    0.151988
    28  H    0.155178
    29  H    0.155281
    30  H    0.160497
    31  C   -0.298569
    32  C   -0.304180
    33  C   -0.480861
    34  H    0.150116
    35  H    0.149458
    36  H    0.152636
    37  H    0.155610
    38  H    0.155525
    39  H    0.156462
    40  H    0.164512
 Sum of Mulliken charges =  -0.00000

 Dipole moment (field-independent basis, Debye):
    X=             -0.0381    Y=             -0.0253    Z=             -0.0094  Tot=              0.0467
 Quadrupole moment (field-independent basis, Debye-Ang):
   XX=            -83.5045   YY=            -86.0927   ZZ=            -85.0815
   XY=              1.2666   XZ=             -0.0300   YZ=             -0.8939

 Normal termination of Gaussian 16 at Wed May  5 16:46:21 2021.
