 Gaussian 16, Revision A.03,
 Gaussian 16:  EM64L-G16RevA.03 25-Dec-2016

 -------------
 #p 6-31g* mp2
 -------------

 ------------------------------------------------------
 Input file generated by CHIRIPA (05-May-2021 14:55:19)
 ------------------------------------------------------
 Symbolic Z-matrix:
 Charge =  0 Multiplicity = 1

                         Standard orientation:
 ---------------------------------------------------------------------
 Center     Atomic      Atomic             Coordinates (Angstroms)
 Number     Number       Type             X           Y           Z
 ---------------------------------------------------------------------
      1          6           0       -0.560400    0.169300    1.310527
      2          6           0       -0.813955   -0.972457    0.543310
      3          6           0       -2.055429   -1.151734   -0.074064
      4          6           0       -3.024849   -0.164799    0.097615
      5          6           0       -2.802570    0.983691    0.855805
      6          6           0       -1.553766    1.142015    1.464055
      7          1           0        0.406854    0.300428    1.786574
      8          1           0       -0.044371   -1.729527    0.422347
      9          1           0       -2.278497   -2.026000   -0.673495
     10          1           0       -3.589507    1.721034    0.958148
     11          1           0       -1.359658    2.029729    2.059312
     12          7           0       -4.343023   -0.343500   -0.551142
     13          8           0       -5.180385    0.540632   -0.384494
     14          8           0       -4.513884   -1.364314   -1.214001
     15          6           0        4.110372   -0.362331   -0.089561
     16          6           0        3.549864   -1.784045   -0.140033
     17          6           0        4.595408   -2.844347    0.206942
     18          1           0        4.958144   -0.284381   -0.783932
     19          1           0        4.510594   -0.168912    0.915329
     20          1           0        3.149569   -1.974245   -1.144126
     21          1           0        2.703206   -1.858568    0.554397
     22          1           0        4.987888   -2.682611    1.216101
     23          1           0        5.436787   -2.798947   -0.492072
     24          1           0        4.173339   -3.853275    0.164739
     25          6           0        3.077081    0.708819   -0.434055
     26          6           0        3.637588    2.130533   -0.383583
     27          6           0        2.592044    3.190835   -0.730559
     28          1           0        2.676859    0.515400   -1.438946
     29          1           0        2.229308    0.630868    0.260315
     30          1           0        4.484247    2.205055   -1.078013
     31          1           0        4.037883    2.320734    0.620510
     32          1           0        1.750665    3.145435   -0.031545
     33          1           0        2.199564    3.029099   -1.739718
     34          1           0        3.014113    4.199764   -0.688355
 ---------------------------------------------------------------------

 SCF Done:  E(RHF) =  -669.535126356     A.U. after   15 cycles
 E2 =    -0.2092505260D+01 EUMP2 =    -0.67162763161586D+03

 The electronic state is 1-A.
 Alpha  occ. eigenvalues --  -20.60746 -20.60740 -15.85799 -11.31167 -11.27735
 Alpha  occ. eigenvalues --  -11.27722 -11.27471 -11.26760 -11.26724 -11.22656
 Alpha  occ. eigenvalues --  -11.22373 -11.22303 -11.22246 -11.21885 -11.21750
 Alpha  occ. eigenvalues --   -1.59821  -1.39374  -1.19339  -1.09335  -1.08735
 Alpha  occ. eigenvalues --   -1.04738  -1.04375  -0.96798  -0.95574  -0.87811
 Alpha  occ. eigenvalues --   -0.86139  -0.82405  -0.80453  -0.79161  -0.77442
 Alpha  occ. eigenvalues --   -0.72017  -0.71144  -0.70488  -0.65986  -0.64990
 Alpha  occ. eigenvalues --   -0.64726  -0.62097  -0.61769  -0.60169  -0.58418
 Alpha  occ. eigenvalues --   -0.56125  -0.55246  -0.53483  -0.53228  -0.53048
 Alpha  occ. eigenvalues --   -0.52829  -0.50736  -0.48809  -0.48772  -0.48719
 Alpha  occ. eigenvalues --   -0.47499  -0.46681  -0.46594  -0.44779  -0.44635
 Alpha  occ. eigenvalues --   -0.37285  -0.36336
 Alpha virt. eigenvalues --    0.05048   0.11261   0.16426   0.18935   0.22717
 Alpha virt. eigenvalues --    0.23107   0.25164   0.25929   0.27072   0.27245
 Alpha virt. eigenvalues --    0.29717   0.30697   0.30984   0.31268   0.31499

 Mulliken charges:
               1
     1  C   -0.169993
     2  C   -0.220712
     3  C   -0.171619
     4  C    0.158972
     5  C   -0.171027
     6  C   -0.219808
     7  H    0.225192
     8  H    0.228359
     9  H    0.275742
    10  H    0.275588
    11  H    0.223279
    12  N    0.487997
    13  O   -0.460454
    14  O   -0.460448
    15  C   -0.298790
    16  C   -0.301729
    17  C   -0.475825
    18  H    0.154193
    19  H    0.149554
    20  H    0.154879
    21  H    0.141816
    22  H    0.156486
    23  H    0.158976
    24  H    0.161750
    25  C   -0.301691
    26  C   -0.300590
    27  C   -0.474869
    28  H    0.154027
    29  H    0.142429
    30  H    0.155353
    31  H    0.150921
    32  H    0.150342
    33  H    0.159038
    34  H    0.162664
 Sum of Mulliken charges =  -0.00000

 Dipole moment (field-independent basis, Debye):
    X=              4.8175    Y=              0.6431    Z=              2.1702  Tot=              5.3228
 Quadrupole moment (field-independent basis, Debye-Ang):
   XX=           -122.5989   YY=            -91.8657   ZZ=            -93.2928
   XY=             -3.7645   XZ=             -7.9031   YZ=              1.8414

 Normal termination of Gaussian 16 at Thu May  6 10:48:27 2021.
