 Gaussian 16, Revision A.03,
 Gaussian 16:  EM64L-G16RevA.03 25-Dec-2016

 -------------
 #p 6-31g* mp2
 -------------

 ------------------------------------------------------
 Input file generated by CHIRIPA (05-May-2021 14:57:25)
 ------------------------------------------------------
 Symbolic Z-matrix:
 Charge =  0 Multiplicity = 1

                         Standard orientation:
 ---------------------------------------------------------------------
 Center     Atomic      Atomic             Coordinates (Angstroms)
 Number     Number       Type             X           Y           Z
 ---------------------------------------------------------------------
      1          6           0       -1.603329   -0.256384    2.323267
      2          6           0       -1.769195    0.969833    1.671040
      3          6           0       -2.561530    1.061862    0.522875
      4          6           0       -3.176114   -0.097497    0.052278
      5          6           0       -3.030169   -1.333688    0.679831
      6          6           0       -2.233235   -1.402211    1.826457
      7          1           0       -0.986038   -0.318745    3.214591
      8          1           0       -1.281204    1.861339    2.054614
      9          1           0       -2.706976    1.998383   -0.001713
     10          1           0       -3.529297   -2.205092    0.273699
     11          1           0       -2.106208   -2.355847    2.330924
     12          7           0       -4.017358   -0.012513   -1.162418
     13          8           0       -4.548106   -1.048509   -1.556950
     14          8           0       -4.130048    1.088485   -1.696966
     15          6           0        2.035163    2.418744   -0.057649
     16          6           0        3.420787    2.247936    0.028343
     17          6           0        3.987123    0.974180   -0.078219
     18          6           0        3.134366   -0.111551   -0.271309
     19          6           0        1.750083    0.026257   -0.361083
     20          6           0        1.205697    1.309314   -0.251746
     21          1           0        1.603745    3.411840    0.026208
     22          1           0        4.067397    3.107719    0.179054
     23          1           0        5.056515    0.813383   -0.015261
     24          1           0        1.131178   -0.849937   -0.511604
     25          1           0        0.129256    1.438972   -0.318908
     26          7           0        3.722302   -1.464944   -0.385591
     27          8           0        2.949352   -2.405331   -0.555462
     28          8           0        4.944945   -1.559718   -0.303128
 ---------------------------------------------------------------------

 SCF Done:  E(RHF) =  -868.336410110     A.U. after   16 cycles
 E2 =    -0.2602362674D+01 EUMP2 =    -0.87093877278413D+03

 The electronic state is 1-A.
 Alpha  occ. eigenvalues --  -20.61418 -20.61398 -20.61044 -20.61036 -15.86471
 Alpha  occ. eigenvalues --  -15.86093 -11.32016 -11.31470 -11.28605 -11.28478
 Alpha  occ. eigenvalues --  -11.28234 -11.28019 -11.27983 -11.27782 -11.27649
 Alpha  occ. eigenvalues --  -11.27507 -11.27069 -11.26916  -1.60485  -1.60118
 Alpha  occ. eigenvalues --   -1.40033  -1.39670  -1.20189  -1.19632  -1.09516
 Alpha  occ. eigenvalues --   -1.09040  -1.05631  -1.05006  -0.96327  -0.95871
 Alpha  occ. eigenvalues --   -0.86964  -0.86434  -0.83169  -0.82684  -0.78214
 Alpha  occ. eigenvalues --   -0.77724  -0.72676  -0.72310  -0.71818  -0.71443
 Alpha  occ. eigenvalues --   -0.71205  -0.70762  -0.65820  -0.65574  -0.65277
 Alpha  occ. eigenvalues --   -0.65040  -0.62939  -0.62369  -0.56002  -0.55590
 Alpha  occ. eigenvalues --   -0.54092  -0.53661  -0.53342  -0.52917  -0.49452
 Alpha  occ. eigenvalues --   -0.49427  -0.49069  -0.49065  -0.45400  -0.45072
 Alpha  occ. eigenvalues --   -0.38221  -0.37684  -0.37238  -0.36419
 Alpha virt. eigenvalues --    0.04278   0.04782   0.10074   0.11263   0.15728
 Alpha virt. eigenvalues --    0.16294   0.20274   0.21666   0.26009   0.27287
 Alpha virt. eigenvalues --    0.27860   0.28429   0.30169   0.31074   0.31943

 Mulliken charges:
               1
     1  C   -0.170398
     2  C   -0.219868
     3  C   -0.186163
     4  C    0.160714
     5  C   -0.171327
     6  C   -0.218030
     7  H    0.230981
     8  H    0.223844
     9  H    0.274764
    10  H    0.280090
    11  H    0.230301
    12  N    0.488110
    13  O   -0.455880
    14  O   -0.460560
    15  C   -0.176382
    16  C   -0.217943
    17  C   -0.171990
    18  C    0.158524
    19  C   -0.175709
    20  C   -0.220428
    21  H    0.223354
    22  H    0.223742
    23  H    0.275960
    24  H    0.276951
    25  H    0.229767
    26  N    0.487939
    27  O   -0.460544
    28  O   -0.459818
 Sum of Mulliken charges =  -0.00000

 Dipole moment (field-independent basis, Debye):
    X=              0.7021    Y=              4.2186    Z=              4.7846  Tot=              6.4173
 Quadrupole moment (field-independent basis, Debye-Ang):
   XX=           -132.6661   YY=           -100.8182   ZZ=           -105.6125
   XY=             19.4971   XZ=            -11.2921   YZ=             -2.0914

 Normal termination of Gaussian 16 at Thu May  6 13:06:57 2021.
