 Gaussian 16, Revision A.03,
 Gaussian 16:  EM64L-G16RevA.03 25-Dec-2016

 -------------
 #p 6-31g* mp2
 -------------

 ------------------------------------------------------
 Input file generated by CHIRIPA (05-May-2021 14:53:14)
 ------------------------------------------------------
 Symbolic Z-matrix:
 Charge =  0 Multiplicity = 1

                         Standard orientation:
 ---------------------------------------------------------------------
 Center     Atomic      Atomic             Coordinates (Angstroms)
 Number     Number       Type             X           Y           Z
 ---------------------------------------------------------------------
      1          6           0       -3.735723    0.734565   -0.509133
      2          6           0       -2.451745    1.262387    0.131796
      3          6           0       -1.929562    2.528979   -0.547075
      4          1           0       -3.550661    0.532396   -1.573005
      5          1           0       -4.505871    1.517293   -0.469069
      6          1           0       -1.684672    0.478415    0.091777
      7          1           0       -2.639833    1.463142    1.194310
      8          1           0       -2.674775    3.329304   -0.494741
      9          1           0       -1.714186    2.338982   -1.603539
     10          1           0       -1.011149    2.889057   -0.073027
     11          6           0       -4.270076   -0.531296    0.158543
     12          6           0       -5.554054   -1.059119   -0.482386
     13          6           0       -6.076237   -2.325710    0.196485
     14          1           0       -3.499929   -1.314024    0.118479
     15          1           0       -4.455138   -0.329127    1.222415
     16          1           0       -5.365967   -1.259874   -1.544900
     17          1           0       -6.321128   -0.275147   -0.442367
     18          1           0       -6.291613   -2.135713    1.252949
     19          1           0       -5.331025   -3.126035    0.144151
     20          1           0       -6.994650   -2.685788   -0.277563
     21          6           0        4.791354   -1.743777   -0.772220
     22          6           0        4.435190   -0.624129   -1.531206
     23          6           0        3.514188    0.304594   -1.037469
     24          6           0        2.966387    0.081504    0.224844
     25          6           0        3.301060   -1.024213    1.005021
     26          6           0        4.224153   -1.939899    0.491243
     27          1           0        5.507621   -2.460167   -1.163552
     28          1           0        4.874084   -0.469258   -2.512752
     29          1           0        3.220650    1.180049   -1.603890
     30          1           0        2.846673   -1.151611    1.980069
     31          1           0        4.498888   -2.808524    1.082899
     32          7           0        1.990258    1.057802    0.758150
     33          8           0        1.521892    0.838476    1.873124
     34          8           0        1.712017    2.023863    0.051083
 ---------------------------------------------------------------------

 SCF Done:  E(RHF) =  -669.536302604     A.U. after   15 cycles
 E2 =    -0.2091223706D+01 EUMP2 =    -0.67162752631014D+03

 The electronic state is 1-A.
 Alpha  occ. eigenvalues --  -20.60985 -20.60965 -15.85998 -11.31312 -11.27871
 Alpha  occ. eigenvalues --  -11.27868 -11.27608 -11.26876 -11.26866 -11.21080
 Alpha  occ. eigenvalues --  -11.20694 -11.20663 -11.20482 -11.20338 -11.19451
 Alpha  occ. eigenvalues --   -1.60030  -1.39586  -1.19477  -1.08884  -1.07604
 Alpha  occ. eigenvalues --   -1.04871  -1.02606  -0.95729  -0.95048  -0.86273
 Alpha  occ. eigenvalues --   -0.86074  -0.82559  -0.78717  -0.77614  -0.77363
 Alpha  occ. eigenvalues --   -0.72217  -0.71343  -0.70585  -0.65132  -0.64874
 Alpha  occ. eigenvalues --   -0.64253  -0.62218  -0.60026  -0.58466  -0.56615
 Alpha  occ. eigenvalues --   -0.55374  -0.54376  -0.53204  -0.52963  -0.51704
 Alpha  occ. eigenvalues --   -0.51490  -0.49059  -0.48972  -0.48926  -0.46997
 Alpha  occ. eigenvalues --   -0.45795  -0.45019  -0.44878  -0.44819  -0.42820
 Alpha  occ. eigenvalues --   -0.37456  -0.36472
 Alpha virt. eigenvalues --    0.04901   0.11184   0.16394   0.21319   0.23597
 Alpha virt. eigenvalues --    0.25273   0.27241   0.27392   0.28146   0.28295
 Alpha virt. eigenvalues --    0.29013   0.30890   0.32216   0.32414   0.32503

 Mulliken charges:
               1
     1  C   -0.297589
     2  C   -0.295640
     3  C   -0.484139
     4  H    0.145780
     5  H    0.147452
     6  H    0.149137
     7  H    0.153537
     8  H    0.146420
     9  H    0.146789
    10  H    0.188963
    11  C   -0.297059
    12  C   -0.298828
    13  C   -0.475079
    14  H    0.147200
    15  H    0.149804
    16  H    0.150122
    17  H    0.151346
    18  H    0.155007
    19  H    0.153555
    20  H    0.158284
    21  C   -0.170548
    22  C   -0.218597
    23  C   -0.170792
    24  C    0.157976
    25  C   -0.170737
    26  C   -0.218617
    27  H    0.226063
    28  H    0.223911
    29  H    0.276071
    30  H    0.275998
    31  H    0.223906
    32  N    0.488844
    33  O   -0.458952
    34  O   -0.459587
 Sum of Mulliken charges =  -0.00000

 Dipole moment (field-independent basis, Debye):
    X=              3.7816    Y=             -3.3720    Z=             -1.7745  Tot=              5.3684
 Quadrupole moment (field-independent basis, Debye-Ang):
   XX=            -75.9798   YY=            -94.8716   ZZ=            -92.1584
   XY=            -10.7705   XZ=             -5.8629   YZ=             -2.6489

 Normal termination of Gaussian 16 at Wed May  5 17:06:11 2021.
