 Gaussian 16, Revision A.03,
 Gaussian 16:  EM64L-G16RevA.03 25-Dec-2016

 -------------
 #p 6-31g* mp2
 -------------

 ------------------------------------------------------
 Input file generated by CHIRIPA (05-May-2021 14:51:10)
 ------------------------------------------------------
 Symbolic Z-matrix:
 Charge =  0 Multiplicity = 1

                         Standard orientation:
 ---------------------------------------------------------------------
 Center     Atomic      Atomic             Coordinates (Angstroms)
 Number     Number       Type             X           Y           Z
 ---------------------------------------------------------------------
      1          6           0       -3.093465   -0.601413   -0.063249
      2          6           0       -3.449197   -1.742082   -1.017353
      3          6           0       -2.933365   -3.098388   -0.535539
      4          1           0       -2.002224   -0.558826    0.056439
      5          1           0       -3.508549   -0.820746    0.930226
      6          1           0       -3.034746   -1.520001   -2.009082
      7          1           0       -4.539706   -1.781836   -1.134933
      8          1           0       -3.356732   -3.345975    0.443268
      9          1           0       -1.843221   -3.082652   -0.435848
     10          1           0       -3.198783   -3.899477   -1.232440
     11          6           0       -3.602325    0.760842   -0.531278
     12          6           0       -3.246593    1.901511    0.422826
     13          6           0       -3.762425    3.257818   -0.058988
     14          1           0       -3.187241    0.980176   -1.524753
     15          1           0       -4.693565    0.718256   -0.650966
     16          1           0       -2.156084    1.941265    0.540406
     17          1           0       -3.661044    1.679430    1.414555
     18          1           0       -4.852569    3.242081   -0.158679
     19          1           0       -3.339058    3.505404   -1.037795
     20          1           0       -3.497007    4.058906    0.637913
     21          6           0        4.090192    0.100216    0.290072
     22          6           0        4.641937    0.341932   -1.115324
     23          6           0        6.128179    0.700922   -1.113260
     24          1           0        4.250721    0.999849    0.899855
     25          1           0        4.662704   -0.707146    0.767347
     26          1           0        4.067656    1.147659   -1.590320
     27          1           0        4.479904   -0.558313   -1.721888
     28          1           0        6.718334   -0.104170   -0.663653
     29          1           0        6.303743    1.611496   -0.531338
     30          1           0        6.501883    0.869489   -2.128045
     31          6           0        2.605598   -0.259645    0.304455
     32          6           0        2.053853   -0.501361    1.709851
     33          6           0        0.567611   -0.860351    1.707787
     34          1           0        2.033087    0.547718   -0.172820
     35          1           0        2.445069   -1.159278   -0.305328
     36          1           0        2.215886    0.398885    2.316416
     37          1           0        2.628134   -1.307088    2.184847
     38          1           0        0.392046   -1.770925    1.125865
     39          1           0       -0.022544   -0.055260    1.258181
     40          1           0        0.193907   -1.028919    2.722573
 ---------------------------------------------------------------------

 SCF Done:  E(RHF) =  -470.732953498     A.U. after   11 cycles
 E2 =    -0.1583197935D+01 EUMP2 =    -0.47231615143357D+03

 The electronic state is 1-A.
 Alpha  occ. eigenvalues --  -11.21630 -11.21629 -11.21598 -11.21529 -11.21446
 Alpha  occ. eigenvalues --  -11.21384 -11.21332 -11.21215 -11.21095 -11.21092
 Alpha  occ. eigenvalues --  -11.21068 -11.21021  -1.08469  -1.08369  -1.03565
 Alpha  occ. eigenvalues --   -1.03486  -0.96023  -0.95927  -0.87045  -0.86942
 Alpha  occ. eigenvalues --   -0.79664  -0.79533  -0.78319  -0.78130  -0.65112
 Alpha  occ. eigenvalues --   -0.65000  -0.60973  -0.60881  -0.59379  -0.59302
 Alpha  occ. eigenvalues --   -0.57662  -0.57523  -0.55380  -0.55153  -0.52717
 Alpha  occ. eigenvalues --   -0.52644  -0.52505  -0.52308  -0.50022  -0.49820
 Alpha  occ. eigenvalues --   -0.48075  -0.47822  -0.46702  -0.46567  -0.45981
 Alpha  occ. eigenvalues --   -0.45753  -0.45679  -0.45314  -0.43815  -0.43729
 Alpha virt. eigenvalues --    0.21279   0.23062   0.23414   0.24129   0.25496
 Alpha virt. eigenvalues --    0.26263   0.27094   0.27609   0.27620   0.29410
 Alpha virt. eigenvalues --    0.30322   0.31505   0.31773   0.31867   0.32418

 Mulliken charges:
               1
     1  C   -0.306345
     2  C   -0.299102
     3  C   -0.476820
     4  H    0.160556
     5  H    0.148887
     6  H    0.151364
     7  H    0.151464
     8  H    0.155274
     9  H    0.156029
    10  H    0.159803
    11  C   -0.297970
    12  C   -0.300951
    13  C   -0.475651
    14  H    0.148929
    15  H    0.149387
    16  H    0.151838
    17  H    0.152264
    18  H    0.155431
    19  H    0.155043
    20  H    0.160062
    21  C   -0.298258
    22  C   -0.299683
    23  C   -0.475733
    24  H    0.149782
    25  H    0.149731
    26  H    0.151851
    27  H    0.151959
    28  H    0.155266
    29  H    0.155240
    30  H    0.160329
    31  C   -0.298264
    32  C   -0.299924
    33  C   -0.480730
    34  H    0.148795
    35  H    0.149436
    36  H    0.152099
    37  H    0.152101
    38  H    0.156174
    39  H    0.159056
    40  H    0.161280
 Sum of Mulliken charges =  -0.00000

 Dipole moment (field-independent basis, Debye):
    X=              0.0297    Y=             -0.0043    Z=              0.0278  Tot=              0.0409
 Quadrupole moment (field-independent basis, Debye-Ang):
   XX=            -85.2936   YY=            -85.0084   ZZ=            -84.5891
   XY=             -0.0921   XZ=             -0.4132   YZ=              0.2405

 Normal termination of Gaussian 16 at Wed May  5 16:42:55 2021.
