 Gaussian 16, Revision A.03,
 Gaussian 16:  EM64L-G16RevA.03 25-Dec-2016

 -------------
 #p 6-31g* mp2
 -------------

 ------------------------------------------------------
 Input file generated by CHIRIPA (05-May-2021 14:55:24)
 ------------------------------------------------------
 Symbolic Z-matrix:
 Charge =  0 Multiplicity = 1

                         Standard orientation:
 ---------------------------------------------------------------------
 Center     Atomic      Atomic             Coordinates (Angstroms)
 Number     Number       Type             X           Y           Z
 ---------------------------------------------------------------------
      1          6           0       -2.282797   -2.592881   -0.140431
      2          6           0       -3.480033   -1.963887    0.216660
      3          6           0       -3.559450   -0.569318    0.275122
      4          6           0       -2.417169    0.168695   -0.031182
      5          6           0       -1.209912   -0.428670   -0.390314
      6          6           0       -1.153549   -1.824619   -0.442247
      7          1           0       -2.230059   -3.676751   -0.183310
      8          1           0       -4.358612   -2.557993    0.451572
      9          1           0       -4.473585   -0.056503    0.548612
     10          1           0       -0.350847    0.190292   -0.619030
     11          1           0       -0.222426   -2.310392   -0.719879
     12          7           0       -2.489041    1.645793    0.027253
     13          8           0       -1.468553    2.273417   -0.247207
     14          8           0       -3.564502    2.147950    0.346408
     15          6           0        3.226942    0.785769    0.344244
     16          6           0        2.627077    1.931100   -0.472067
     17          6           0        2.932010    3.305373    0.124741
     18          1           0        2.840911    0.834786    1.371631
     19          1           0        4.314930    0.923810    0.412222
     20          1           0        1.540711    1.790190   -0.539654
     21          1           0        3.014433    1.879235   -1.497680
     22          1           0        4.012884    3.471438    0.177032
     23          1           0        2.530789    3.381888    1.140501
     24          1           0        2.493821    4.109529   -0.474578
     25          6           0        2.930687   -0.594411   -0.239764
     26          6           0        3.530552   -1.739742    0.576548
     27          6           0        3.225619   -3.114017   -0.020261
     28          1           0        1.842698   -0.732453   -0.307742
     29          1           0        3.316718   -0.643429   -1.267150
     30          1           0        3.143196   -1.687878    1.602160
     31          1           0        4.616918   -1.598834    0.644134
     32          1           0        3.626840   -3.190530   -1.036021
     33          1           0        2.144745   -3.280081   -0.072552
     34          1           0        3.663807   -3.918172    0.579058
 ---------------------------------------------------------------------

 SCF Done:  E(RHF) =  -669.534960093     A.U. after   15 cycles
 E2 =    -0.2093814137D+01 EUMP2 =    -0.67162877423020D+03

 The electronic state is 1-A.
 Alpha  occ. eigenvalues --  -20.60842 -20.60837 -15.85884 -11.31204 -11.27777
 Alpha  occ. eigenvalues --  -11.27740 -11.27509 -11.26784 -11.26751 -11.22171
 Alpha  occ. eigenvalues --  -11.21985 -11.21866 -11.21528 -11.21394 -11.20647
 Alpha  occ. eigenvalues --   -1.59910  -1.39466  -1.19378  -1.08786  -1.08752
 Alpha  occ. eigenvalues --   -1.04780  -1.03731  -0.96216  -0.95624  -0.87229
 Alpha  occ. eigenvalues --   -0.86180  -0.82468  -0.79868  -0.78571  -0.77472
 Alpha  occ. eigenvalues --   -0.72108  -0.71227  -0.70504  -0.65449  -0.65026
 Alpha  occ. eigenvalues --   -0.64807  -0.62103  -0.61108  -0.59635  -0.57792
 Alpha  occ. eigenvalues --   -0.55539  -0.55284  -0.53106  -0.52930  -0.52816
 Alpha  occ. eigenvalues --   -0.52628  -0.50178  -0.48885  -0.48856  -0.48137
 Alpha  occ. eigenvalues --   -0.46912  -0.46023  -0.45879  -0.44874  -0.44005
 Alpha  occ. eigenvalues --   -0.37357  -0.36368
 Alpha virt. eigenvalues --    0.05002   0.11248   0.16441   0.19241   0.22798
 Alpha virt. eigenvalues --    0.23261   0.24928   0.26391   0.26879   0.28561
 Alpha virt. eigenvalues --    0.29065   0.31060   0.31401   0.32029   0.32623

 Mulliken charges:
               1
     1  C   -0.171252
     2  C   -0.219142
     3  C   -0.169862
     4  C    0.156403
     5  C   -0.178996
     6  C   -0.228813
     7  H    0.226082
     8  H    0.223583
     9  H    0.275577
    10  H    0.289851
    11  H    0.232147
    12  N    0.489488
    13  O   -0.465179
    14  O   -0.459606
    15  C   -0.299050
    16  C   -0.313354
    17  C   -0.473716
    18  H    0.151961
    19  H    0.150981
    20  H    0.168476
    21  H    0.149851
    22  H    0.151289
    23  H    0.158349
    24  H    0.166645
    25  C   -0.303170
    26  C   -0.299623
    27  C   -0.477797
    28  H    0.139308
    29  H    0.151701
    30  H    0.154505
    31  H    0.156197
    32  H    0.157468
    33  H    0.145723
    34  H    0.163972
 Sum of Mulliken charges =  -0.00000

 Dipole moment (field-independent basis, Debye):
    X=              0.3165    Y=             -5.0557    Z=             -0.1529  Tot=              5.0679
 Quadrupole moment (field-independent basis, Debye-Ang):
   XX=            -90.2180   YY=            -97.8380   ZZ=            -94.9796
   XY=             13.0407   XZ=             -1.4060   YZ=             -0.3615

 Normal termination of Gaussian 16 at Thu May  6 07:55:14 2021.
