 Gaussian 16, Revision A.03,
 Gaussian 16:  EM64L-G16RevA.03 25-Dec-2016

 -------------
 #p 6-31g* mp2
 -------------

 ------------------------------------------------------
 Input file generated by CHIRIPA (05-May-2021 14:55:20)
 ------------------------------------------------------
 Symbolic Z-matrix:
 Charge =  0 Multiplicity = 1

                         Standard orientation:
 ---------------------------------------------------------------------
 Center     Atomic      Atomic             Coordinates (Angstroms)
 Number     Number       Type             X           Y           Z
 ---------------------------------------------------------------------
      1          6           0       -0.573743   -0.176729    1.342063
      2          6           0       -0.727690   -0.797633    0.098157
      3          6           0       -1.957019   -0.760537   -0.566615
      4          6           0       -3.015998   -0.090702    0.044266
      5          6           0       -2.894009    0.537534    1.282704
      6          6           0       -1.655487    0.487701    1.929330
      7          1           0        0.384801   -0.210493    1.851426
      8          1           0        0.110669   -1.314364   -0.360306
      9          1           0       -2.103900   -1.232736   -1.530394
     10          1           0       -3.748039    1.044990    1.714607
     11          1           0       -1.538833    0.970792    2.895281
     12          7           0       -4.322300   -0.044688   -0.649894
     13          8           0       -5.239802    0.551893   -0.090504
     14          8           0       -4.403943   -0.606075   -1.740223
     15          6           0        3.279239   -0.553926   -0.035861
     16          6           0        4.265272   -1.713821   -0.178577
     17          6           0        3.639005   -3.067095    0.159411
     18          1           0        2.892607   -0.534100    0.992277
     19          1           0        2.415629   -0.733248   -0.691158
     20          1           0        5.127414   -1.531686    0.475760
     21          1           0        4.649748   -1.730771   -1.206442
     22          1           0        2.791006   -3.274889   -0.501134
     23          1           0        3.271386   -3.074672    1.190624
     24          1           0        4.361358   -3.882115    0.050753
     25          6           0        3.890562    0.805537   -0.370338
     26          6           0        2.904529    1.965432   -0.227623
     27          6           0        3.530796    3.318705   -0.565611
     28          1           0        4.754172    0.984859    0.284960
     29          1           0        4.277195    0.785711   -1.398475
     30          1           0        2.520054    1.982383    0.800243
     31          1           0        2.042388    1.783297   -0.881958
     32          1           0        3.898415    3.326283   -1.596823
     33          1           0        4.378795    3.526500    0.094936
     34          1           0        2.808443    4.133726   -0.456952
 ---------------------------------------------------------------------

 SCF Done:  E(RHF) =  -669.535328882     A.U. after   15 cycles
 E2 =    -0.2092404053D+01 EUMP2 =    -0.67162773293507D+03

 The electronic state is 1-A.
 Alpha  occ. eigenvalues --  -20.60705 -20.60700 -15.85757 -11.31102 -11.27675
 Alpha  occ. eigenvalues --  -11.27663 -11.27380 -11.26678 -11.26627 -11.22671
 Alpha  occ. eigenvalues --  -11.22577 -11.22414 -11.22290 -11.22067 -11.21693
 Alpha  occ. eigenvalues --   -1.59781  -1.39335  -1.19270  -1.09442  -1.08660
 Alpha  occ. eigenvalues --   -1.04672  -1.04422  -0.96888  -0.95503  -0.87896
 Alpha  occ. eigenvalues --   -0.86071  -0.82340  -0.80501  -0.79303  -0.77388
 Alpha  occ. eigenvalues --   -0.71976  -0.71104  -0.70371  -0.66087  -0.64918
 Alpha  occ. eigenvalues --   -0.64676  -0.62045  -0.61796  -0.60252  -0.58495
 Alpha  occ. eigenvalues --   -0.56200  -0.55158  -0.53528  -0.53326  -0.52996
 Alpha  occ. eigenvalues --   -0.52766  -0.50821  -0.48824  -0.48733  -0.48718
 Alpha  occ. eigenvalues --   -0.47535  -0.46781  -0.46696  -0.44746  -0.44714
 Alpha  occ. eigenvalues --   -0.37227  -0.36274
 Alpha virt. eigenvalues --    0.05134   0.11300   0.16592   0.19253   0.22552
 Alpha virt. eigenvalues --    0.22855   0.24044   0.25481   0.27010   0.28408
 Alpha virt. eigenvalues --    0.29736   0.30515   0.30899   0.31370   0.31551

 Mulliken charges:
               1
     1  C   -0.172575
     2  C   -0.223107
     3  C   -0.172094
     4  C    0.158570
     5  C   -0.170974
     6  C   -0.219285
     7  H    0.228954
     8  H    0.228945
     9  H    0.275187
    10  H    0.275182
    11  H    0.222958
    12  N    0.488042
    13  O   -0.460726
    14  O   -0.460765
    15  C   -0.304478
    16  C   -0.299783
    17  C   -0.477291
    18  H    0.143205
    19  H    0.147022
    20  H    0.155582
    21  H    0.156125
    22  H    0.152145
    23  H    0.154017
    24  H    0.166032
    25  C   -0.298193
    26  C   -0.300828
    27  C   -0.476413
    28  H    0.152250
    29  H    0.153614
    30  H    0.146831
    31  H    0.155236
    32  H    0.157555
    33  H    0.155954
    34  H    0.163104
 Sum of Mulliken charges =  -0.00000

 Dipole moment (field-independent basis, Debye):
    X=              4.8660    Y=             -0.1195    Z=              2.3811  Tot=              5.4187
 Quadrupole moment (field-independent basis, Debye-Ang):
   XX=           -121.5517   YY=            -94.6130   ZZ=            -91.0750
   XY=             -1.4576   XZ=             -8.7938   YZ=              2.3793

 Normal termination of Gaussian 16 at Thu May  6 06:08:22 2021.
