 Gaussian 16, Revision A.03,
 Gaussian 16:  EM64L-G16RevA.03 25-Dec-2016

 -------------
 #p 6-31g* mp2
 -------------

 ------------------------------------------------------
 Input file generated by CHIRIPA (05-May-2021 14:53:12)
 ------------------------------------------------------
 Symbolic Z-matrix:
 Charge =  0 Multiplicity = 1

                         Standard orientation:
 ---------------------------------------------------------------------
 Center     Atomic      Atomic             Coordinates (Angstroms)
 Number     Number       Type             X           Y           Z
 ---------------------------------------------------------------------
      1          6           0        4.812734    0.121193   -0.280004
      2          6           0        6.212333   -0.492952   -0.236023
      3          6           0        7.287774    0.447044   -0.781577
      4          1           0        4.571522    0.394383   -1.316406
      5          1           0        4.811664    1.055750    0.297920
      6          1           0        6.210413   -1.426786   -0.812708
      7          1           0        6.450164   -0.764888    0.800367
      8          1           0        7.318825    1.374910   -0.201317
      9          1           0        7.077711    0.709251   -1.823557
     10          1           0        8.280483   -0.012001   -0.740762
     11          6           0        3.726786   -0.806497    0.262063
     12          6           0        2.327187   -0.192353    0.218082
     13          6           0        1.251746   -1.132348    0.763636
     14          1           0        3.727856   -1.741055   -0.315861
     15          1           0        3.967997   -1.079688    1.298465
     16          1           0        2.089355    0.079583   -0.818308
     17          1           0        2.329107    0.741481    0.794767
     18          1           0        1.461809   -1.394555    1.805616
     19          1           0        1.220695   -2.060214    0.183376
     20          1           0        0.259036   -0.673304    0.722822
     21          6           0       -1.638250    1.929385    0.857425
     22          6           0       -2.275617    2.145194   -0.368834
     23          6           0       -3.217825    1.231185   -0.849850
     24          6           0       -3.499858    0.107051   -0.075207
     25          6           0       -2.881698   -0.135881    1.150417
     26          6           0       -1.942788    0.791543    1.611807
     27          1           0       -0.907601    2.644621    1.223466
     28          1           0       -2.041087    3.027976   -0.956827
     29          1           0       -3.726135    1.373623   -1.795763
     30          1           0       -3.136332   -1.025167    1.714108
     31          1           0       -1.449360    0.621361    2.564493
     32          7           0       -4.495586   -0.867671   -0.574049
     33          8           0       -4.726461   -1.850194    0.127366
     34          8           0       -5.026309   -0.630678   -1.657010
 ---------------------------------------------------------------------

 SCF Done:  E(RHF) =  -669.535008196     A.U. after   15 cycles
 E2 =    -0.2092184982D+01 EUMP2 =    -0.67162719317746D+03

 The electronic state is 1-A.
 Alpha  occ. eigenvalues --  -20.60804 -20.60798 -15.85858 -11.31255 -11.27816
 Alpha  occ. eigenvalues --  -11.27813 -11.27564 -11.26843 -11.26826 -11.22036
 Alpha  occ. eigenvalues --  -11.21882 -11.21746 -11.21687 -11.21332 -11.21303
 Alpha  occ. eigenvalues --   -1.59878  -1.39431  -1.19438  -1.08830  -1.08765
 Alpha  occ. eigenvalues --   -1.04848  -1.03855  -0.96294  -0.95648  -0.87318
 Alpha  occ. eigenvalues --   -0.86229  -0.82479  -0.79929  -0.78588  -0.77521
 Alpha  occ. eigenvalues --   -0.72075  -0.71201  -0.70525  -0.65405  -0.65082
 Alpha  occ. eigenvalues --   -0.64838  -0.62184  -0.61257  -0.59706  -0.57941
 Alpha  occ. eigenvalues --   -0.55581  -0.55329  -0.53577  -0.52930  -0.52817
 Alpha  occ. eigenvalues --   -0.52444  -0.50239  -0.48837  -0.48828  -0.48235
 Alpha  occ. eigenvalues --   -0.46972  -0.46126  -0.46058  -0.44830  -0.44121
 Alpha  occ. eigenvalues --   -0.37390  -0.36376
 Alpha virt. eigenvalues --    0.05002   0.11169   0.16464   0.21070   0.22615
 Alpha virt. eigenvalues --    0.24094   0.26245   0.26890   0.27087   0.28099
 Alpha virt. eigenvalues --    0.28359   0.30729   0.31104   0.31798   0.32075

 Mulliken charges:
               1
     1  C   -0.298186
     2  C   -0.299858
     3  C   -0.475812
     4  H    0.149866
     5  H    0.147568
     6  H    0.153159
     7  H    0.152061
     8  H    0.154540
     9  H    0.155464
    10  H    0.161242
    11  C   -0.298166
    12  C   -0.297517
    13  C   -0.486788
    14  H    0.151840
    15  H    0.149353
    16  H    0.152975
    17  H    0.144124
    18  H    0.150356
    19  H    0.158546
    20  H    0.169261
    21  C   -0.169691
    22  C   -0.218117
    23  C   -0.171010
    24  C    0.159248
    25  C   -0.170265
    26  C   -0.221141
    27  H    0.226591
    28  H    0.223974
    29  H    0.275915
    30  H    0.276581
    31  H    0.226044
    32  N    0.488093
    33  O   -0.459985
    34  O   -0.460264
 Sum of Mulliken charges =  -0.00000

 Dipole moment (field-independent basis, Debye):
    X=              3.4507    Y=              3.4410    Z=              1.7255  Tot=              5.1696
 Quadrupole moment (field-independent basis, Debye-Ang):
   XX=           -120.6561   YY=            -93.0717   ZZ=            -91.1653
   XY=            -12.7068   XZ=             -5.5240   YZ=             -2.0803

 Normal termination of Gaussian 16 at Thu May  6 13:38:28 2021.
