 Gaussian 16, Revision A.03,
 Gaussian 16:  EM64L-G16RevA.03 25-Dec-2016

 -------------
 #p 6-31g* mp2
 -------------

 ------------------------------------------------------
 Input file generated by CHIRIPA (05-May-2021 14:53:17)
 ------------------------------------------------------
 Symbolic Z-matrix:
 Charge =  0 Multiplicity = 1

                         Standard orientation:
 ---------------------------------------------------------------------
 Center     Atomic      Atomic             Coordinates (Angstroms)
 Number     Number       Type             X           Y           Z
 ---------------------------------------------------------------------
      1          6           0       -3.629493    0.727049    0.495150
      2          6           0       -2.183070    0.452651    0.908129
      3          6           0       -1.419668    1.727072    1.269879
      4          1           0       -3.635353    1.415246   -0.361176
      5          1           0       -4.145836    1.244493    1.315538
      6          1           0       -1.669995   -0.065354    0.087738
      7          1           0       -2.180646   -0.235123    1.763451
      8          1           0       -1.905934    2.243894    2.103570
      9          1           0       -1.392381    2.414628    0.418336
     10          1           0       -0.387968    1.507786    1.562059
     11          6           0       -4.405650   -0.537217    0.130542
     12          6           0       -5.852073   -0.262820   -0.282436
     13          6           0       -6.615475   -1.537241   -0.644186
     14          1           0       -3.889307   -1.054661   -0.689846
     15          1           0       -4.399790   -1.225414    0.986869
     16          1           0       -5.854496    0.424955   -1.137759
     17          1           0       -6.365147    0.255186    0.537954
     18          1           0       -6.642761   -2.224796    0.207356
     19          1           0       -6.129209   -2.054062   -1.477878
     20          1           0       -7.647174   -1.317954   -0.936367
     21          6           0        1.659529    1.829388   -0.989009
     22          6           0        2.954550    2.088195   -0.528075
     23          6           0        3.782918    1.041268   -0.112985
     24          6           0        3.281732   -0.258180   -0.172426
     25          6           0        1.996118   -0.548173   -0.626731
     26          6           0        1.185282    0.514348   -1.036780
     27          1           0        1.022842    2.648722   -1.309504
     28          1           0        3.325510    3.108476   -0.489880
     29          1           0        4.789583    1.213272    0.248207
     30          1           0        1.654281   -1.575724   -0.653263
     31          1           0        0.179981    0.310384   -1.394291
     32          7           0        4.149407   -1.374769    0.264344
     33          8           0        3.684260   -2.510734    0.202230
     34          8           0        5.278209   -1.092843    0.660527
 ---------------------------------------------------------------------

 SCF Done:  E(RHF) =  -669.534642964     A.U. after   15 cycles
 E2 =    -0.2092717207D+01 EUMP2 =    -0.67162736017153D+03

 The electronic state is 1-A.
 Alpha  occ. eigenvalues --  -20.60759 -20.60753 -15.85813 -11.31181 -11.27754
 Alpha  occ. eigenvalues --  -11.27746 -11.27486 -11.26764 -11.26739 -11.22364
 Alpha  occ. eigenvalues --  -11.22056 -11.22034 -11.21911 -11.21762 -11.21433
 Alpha  occ. eigenvalues --   -1.59834  -1.39388  -1.19361  -1.09041  -1.08748
 Alpha  occ. eigenvalues --   -1.04773  -1.04109  -0.96552  -0.95581  -0.87567
 Alpha  occ. eigenvalues --   -0.86160  -0.82423  -0.80189  -0.78838  -0.77465
 Alpha  occ. eigenvalues --   -0.72031  -0.71159  -0.70464  -0.65750  -0.65009
 Alpha  occ. eigenvalues --   -0.64753  -0.62199  -0.61430  -0.59918  -0.58160
 Alpha  occ. eigenvalues --   -0.55867  -0.55261  -0.53411  -0.53056  -0.52861
 Alpha  occ. eigenvalues --   -0.52773  -0.50503  -0.48795  -0.48785  -0.48484
 Alpha  occ. eigenvalues --   -0.47234  -0.46371  -0.46300  -0.44793  -0.44356
 Alpha  occ. eigenvalues --   -0.37295  -0.36346
 Alpha virt. eigenvalues --    0.05060   0.11222   0.16490   0.19720   0.22709
 Alpha virt. eigenvalues --    0.24085   0.25286   0.25969   0.27125   0.28263
 Alpha virt. eigenvalues --    0.28481   0.30218   0.31108   0.31597   0.32047

 Mulliken charges:
               1
     1  C   -0.298148
     2  C   -0.301623
     3  C   -0.477248
     4  H    0.146586
     5  H    0.152490
     6  H    0.142397
     7  H    0.157867
     8  H    0.158223
     9  H    0.144424
    10  H    0.168753
    11  C   -0.298261
    12  C   -0.299951
    13  C   -0.476038
    14  H    0.147115
    15  H    0.152321
    16  H    0.151281
    17  H    0.153175
    18  H    0.156596
    19  H    0.155256
    20  H    0.161533
    21  C   -0.169399
    22  C   -0.219523
    23  C   -0.170969
    24  C    0.158141
    25  C   -0.172950
    26  C   -0.215759
    27  H    0.226029
    28  H    0.223553
    29  H    0.275618
    30  H    0.275628
    31  H    0.225667
    32  N    0.488134
    33  O   -0.460395
    34  O   -0.460525
 Sum of Mulliken charges =  -0.00000

 Dipole moment (field-independent basis, Debye):
    X=             -3.1374    Y=              3.9267    Z=             -1.4502  Tot=              5.2312
 Quadrupole moment (field-independent basis, Debye-Ang):
   XX=           -112.4573   YY=            -95.7941   ZZ=            -93.7862
   XY=             16.2142   XZ=             -4.3705   YZ=              0.1675

 Normal termination of Gaussian 16 at Wed May  5 18:45:09 2021.
