 Gaussian 16, Revision A.03,
 Gaussian 16:  EM64L-G16RevA.03 25-Dec-2016

 -------------
 #p 6-31g* mp2
 -------------

 ------------------------------------------------------
 Input file generated by CHIRIPA (05-May-2021 14:51:10)
 ------------------------------------------------------
 Symbolic Z-matrix:
 Charge =  0 Multiplicity = 1

                         Standard orientation:
 ---------------------------------------------------------------------
 Center     Atomic      Atomic             Coordinates (Angstroms)
 Number     Number       Type             X           Y           Z
 ---------------------------------------------------------------------
      1          6           0        2.949728   -0.367096    0.296297
      2          6           0        4.226487   -0.120341   -0.508057
      3          6           0        5.051785    1.046126    0.036032
      4          1           0        2.340528    0.547135    0.294743
      5          1           0        3.216828   -0.562940    1.344008
      6          1           0        3.957145    0.073613   -1.554218
      7          1           0        4.832628   -1.035326   -0.504749
      8          1           0        5.349055    0.857245    1.072640
      9          1           0        4.468597    1.972484    0.017208
     10          1           0        5.959952    1.204925   -0.553777
     11          6           0        2.113996   -1.530091   -0.235420
     12          6           0        0.837237   -1.776847    0.568934
     13          6           0        0.011939   -2.943314    0.024845
     14          1           0        1.846896   -1.334248   -1.283130
     15          1           0        2.723196   -2.444322   -0.233866
     16          1           0        0.231096   -0.861862    0.565626
     17          1           0        1.106579   -1.970800    1.615095
     18          1           0        0.595127   -3.869671    0.043669
     19          1           0       -0.285331   -2.754433   -1.011763
     20          1           0       -0.896228   -3.102113    0.614654
     21          6           0       -2.712539    0.207709   -0.073777
     22          6           0       -4.219517   -0.050754   -0.059720
     23          6           0       -4.565130   -1.537602   -0.147038
     24          1           0       -2.282676   -0.216846   -0.991337
     25          1           0       -2.247904   -0.327608    0.765832
     26          1           0       -4.681355    0.486014   -0.898293
     27          1           0       -4.645872    0.374635    0.857821
     28          1           0       -4.131158   -2.084168    0.696486
     29          1           0       -4.166842   -1.972157   -1.069605
     30          1           0       -5.647490   -1.699535   -0.135439
     31          6           0       -2.351185    1.689478    0.012900
     32          6           0       -0.844207    1.947941   -0.001157
     33          6           0       -0.498594    3.434791    0.086161
     34          1           0       -2.815820    2.224796   -0.826710
     35          1           0       -2.781047    2.114033    0.930460
     36          1           0       -0.417852    1.522553   -0.918699
     37          1           0       -0.382369    1.411174    0.837415
     38          1           0       -0.896882    3.869344    1.008728
     39          1           0       -0.932567    3.981356   -0.757364
     40          1           0        0.583767    3.596722    0.074562
 ---------------------------------------------------------------------

 SCF Done:  E(RHF) =  -470.732499066     A.U. after   11 cycles
 E2 =    -0.1584965471D+01 EUMP2 =    -0.47231746453683D+03

 The electronic state is 1-A.
 Alpha  occ. eigenvalues --  -11.21697 -11.21634 -11.21565 -11.21466 -11.21417
 Alpha  occ. eigenvalues --  -11.21397 -11.21331 -11.21270 -11.21157 -11.21088
 Alpha  occ. eigenvalues --  -11.21052 -11.20975  -1.08523  -1.08338  -1.03596
 Alpha  occ. eigenvalues --   -1.03456  -0.96045  -0.95906  -0.87058  -0.86925
 Alpha  occ. eigenvalues --   -0.79707  -0.79515  -0.78467  -0.78032  -0.65164
 Alpha  occ. eigenvalues --   -0.64966  -0.61004  -0.60856  -0.59416  -0.59285
 Alpha  occ. eigenvalues --   -0.57702  -0.57483  -0.55321  -0.55198  -0.52751
 Alpha  occ. eigenvalues --   -0.52603  -0.52467  -0.52329  -0.49980  -0.49861
 Alpha  occ. eigenvalues --   -0.48108  -0.47811  -0.46819  -0.46637  -0.46154
 Alpha  occ. eigenvalues --   -0.45792  -0.45678  -0.44964  -0.43839  -0.43704
 Alpha virt. eigenvalues --    0.20930   0.22025   0.23632   0.24279   0.25114
 Alpha virt. eigenvalues --    0.26222   0.26937   0.27685   0.27749   0.29785
 Alpha virt. eigenvalues --    0.30392   0.31443   0.31759   0.32145   0.32743

 Mulliken charges:
               1
     1  C   -0.302186
     2  C   -0.299458
     3  C   -0.475523
     4  H    0.153635
     5  H    0.148970
     6  H    0.151646
     7  H    0.151924
     8  H    0.155129
     9  H    0.154676
    10  H    0.160154
    11  C   -0.296810
    12  C   -0.312185
    13  C   -0.474631
    14  H    0.148454
    15  H    0.149131
    16  H    0.166327
    17  H    0.149973
    18  H    0.154311
    19  H    0.154493
    20  H    0.160084
    21  C   -0.302208
    22  C   -0.299678
    23  C   -0.475812
    24  H    0.150468
    25  H    0.153547
    26  H    0.151948
    27  H    0.151931
    28  H    0.155203
    29  H    0.155791
    30  H    0.160319
    31  C   -0.298169
    32  C   -0.305323
    33  C   -0.475549
    34  H    0.149699
    35  H    0.149790
    36  H    0.151866
    37  H    0.156604
    38  H    0.155763
    39  H    0.155549
    40  H    0.160147
 Sum of Mulliken charges =  -0.00000

 Dipole moment (field-independent basis, Debye):
    X=             -0.0657    Y=              0.0473    Z=              0.0067  Tot=              0.0812
 Quadrupole moment (field-independent basis, Debye-Ang):
   XX=            -85.2590   YY=            -86.2150   ZZ=            -83.4414
   XY=             -1.3023   XZ=              0.1048   YZ=             -0.7084

 Normal termination of Gaussian 16 at Thu May  6 00:38:58 2021.
