 Gaussian 16, Revision A.03,
 Gaussian 16:  EM64L-G16RevA.03 25-Dec-2016

 -------------
 #p 6-31g* mp2
 -------------

 ------------------------------------------------------
 Input file generated by CHIRIPA (05-May-2021 14:51:12)
 ------------------------------------------------------
 Symbolic Z-matrix:
 Charge =  0 Multiplicity = 1

                         Standard orientation:
 ---------------------------------------------------------------------
 Center     Atomic      Atomic             Coordinates (Angstroms)
 Number     Number       Type             X           Y           Z
 ---------------------------------------------------------------------
      1          6           0        3.170191   -0.209841    0.381874
      2          6           0        4.328324    0.352787   -0.442846
      3          6           0        5.136918    1.406053    0.315178
      4          1           0        2.509459    0.614154    0.684215
      5          1           0        3.567528   -0.647788    1.308007
      6          1           0        3.929060    0.788310   -1.367791
      7          1           0        4.986273   -0.472667   -0.743420
      8          1           0        5.562460    0.980423    1.229702
      9          1           0        4.499240    2.248565    0.601784
     10          1           0        5.959710    1.794805   -0.292889
     11          6           0        2.352460   -1.263947   -0.362373
     12          6           0        1.194327   -1.826575    0.462347
     13          6           0        0.385733   -2.879842   -0.295677
     14          1           0        1.955123   -0.826001   -1.288505
     15          1           0        3.013192   -2.087942   -0.664714
     16          1           0        0.536378   -1.001121    0.762922
     17          1           0        1.593591   -2.262098    1.387293
     18          1           0        1.023411   -3.722353   -0.582282
     19          1           0       -0.039809   -2.454212   -1.210201
     20          1           0       -0.437059   -3.268593    0.312391
     21          6           0       -3.141159    0.178455    0.347046
     22          6           0       -3.156480   -1.137683   -0.431115
     23          6           0       -3.920129   -2.245206    0.295539
     24          1           0       -2.691101    0.007931    1.334626
     25          1           0       -4.175717    0.502192    0.526702
     26          1           0       -2.122185   -1.458130   -0.610452
     27          1           0       -3.606379   -0.963965   -1.417031
     28          1           0       -4.961421   -1.950424    0.461117
     29          1           0       -3.468794   -2.447396    1.272277
     30          1           0       -3.918513   -3.177120   -0.278389
     31          6           0       -2.381493    1.295334   -0.366547
     32          6           0       -2.366170    2.611471    0.411613
     33          6           0       -1.602521    3.718994   -0.315041
     34          1           0       -1.346934    0.971596   -0.546203
     35          1           0       -2.831549    1.465857   -1.354128
     36          1           0       -1.916272    2.437753    1.397529
     37          1           0       -3.400466    2.931918    0.590950
     38          1           0       -2.053857    3.921185   -1.291780
     39          1           0       -0.561229    3.424211   -0.480618
     40          1           0       -1.604138    4.650908    0.258887
 ---------------------------------------------------------------------

 SCF Done:  E(RHF) =  -470.732822944     A.U. after   11 cycles
 E2 =    -0.1583802545D+01 EUMP2 =    -0.47231662548933D+03

 The electronic state is 1-A.
 Alpha  occ. eigenvalues --  -11.21698 -11.21642 -11.21627 -11.21474 -11.21470
 Alpha  occ. eigenvalues --  -11.21415 -11.21410 -11.21336 -11.21133 -11.21106
 Alpha  occ. eigenvalues --  -11.21100 -11.21036  -1.08506  -1.08414  -1.03619
 Alpha  occ. eigenvalues --   -1.03494  -0.96059  -0.95963  -0.87071  -0.86983
 Alpha  occ. eigenvalues --   -0.79700  -0.79542  -0.78307  -0.78239  -0.65301
 Alpha  occ. eigenvalues --   -0.64922  -0.61196  -0.60762  -0.59427  -0.59300
 Alpha  occ. eigenvalues --   -0.57651  -0.57580  -0.55395  -0.55224  -0.52734
 Alpha  occ. eigenvalues --   -0.52655  -0.52462  -0.52399  -0.50116  -0.49829
 Alpha  occ. eigenvalues --   -0.47983  -0.47876  -0.46821  -0.46449  -0.45920
 Alpha  occ. eigenvalues --   -0.45771  -0.45745  -0.45587  -0.43843  -0.43769
 Alpha virt. eigenvalues --    0.19504   0.22939   0.23704   0.24681   0.26034
 Alpha virt. eigenvalues --    0.26744   0.26989   0.27763   0.27952   0.29491
 Alpha virt. eigenvalues --    0.31097   0.31339   0.31828   0.32156   0.32345

 Mulliken charges:
               1
     1  C   -0.298243
     2  C   -0.299757
     3  C   -0.475759
     4  H    0.149100
     5  H    0.149751
     6  H    0.152098
     7  H    0.152111
     8  H    0.155234
     9  H    0.155267
    10  H    0.160475
    11  C   -0.298512
    12  C   -0.303330
    13  C   -0.480670
    14  H    0.149831
    15  H    0.150180
    16  H    0.153513
    17  H    0.152689
    18  H    0.156940
    19  H    0.156645
    20  H    0.162732
    21  C   -0.297556
    22  C   -0.310176
    23  C   -0.475563
    24  H    0.149292
    25  H    0.149357
    26  H    0.165291
    27  H    0.150931
    28  H    0.154989
    29  H    0.154371
    30  H    0.160310
    31  C   -0.300047
    32  C   -0.299597
    33  C   -0.475567
    34  H    0.149459
    35  H    0.149856
    36  H    0.151855
    37  H    0.152284
    38  H    0.155326
    39  H    0.154434
    40  H    0.160456
 Sum of Mulliken charges =  -0.00000

 Dipole moment (field-independent basis, Debye):
    X=              0.0369    Y=             -0.0302    Z=             -0.0099  Tot=              0.0487
 Quadrupole moment (field-independent basis, Debye-Ang):
   XX=            -84.4374   YY=            -85.5051   ZZ=            -84.7777
   XY=             -1.7387   XZ=              0.5751   YZ=             -0.3506

 Normal termination of Gaussian 16 at Wed May  5 18:19:51 2021.
