 Gaussian 16, Revision A.03,
 Gaussian 16:  EM64L-G16RevA.03 25-Dec-2016

 -------------
 #p 6-31g* mp2
 -------------

 ------------------------------------------------------
 Input file generated by CHIRIPA (05-May-2021 14:55:23)
 ------------------------------------------------------
 Symbolic Z-matrix:
 Charge =  0 Multiplicity = 1

                         Standard orientation:
 ---------------------------------------------------------------------
 Center     Atomic      Atomic             Coordinates (Angstroms)
 Number     Number       Type             X           Y           Z
 ---------------------------------------------------------------------
      1          6           0        2.128056   -1.760008   -1.709552
      2          6           0        3.180101   -1.529395   -0.817060
      3          6           0        3.216897   -0.361509   -0.049443
      4          6           0        2.180512    0.558519   -0.200257
      5          6           0        1.118762    0.357410   -1.080900
      6          6           0        1.102553   -0.817531   -1.838396
      7          1           0        2.107468   -2.669990   -2.301924
      8          1           0        3.977875   -2.259579   -0.714922
      9          1           0        4.019379   -0.157692    0.649055
     10          1           0        0.337778    1.103795   -1.160844
     11          1           0        0.284266   -0.993977   -2.530724
     12          7           0        2.208569    1.798642    0.607027
     13          8           0        1.283459    2.593568    0.455694
     14          8           0        3.155140    1.952243    1.375824
     15          6           0       -2.429582   -0.665199    1.068589
     16          6           0       -1.482409   -1.849748    0.874445
     17          6           0       -0.778541   -2.261961    2.167675
     18          1           0       -1.863132    0.187517    1.467278
     19          1           0       -3.179499   -0.925049    1.828522
     20          1           0       -0.735338   -1.588245    0.114104
     21          1           0       -2.051143   -2.699684    0.475991
     22          1           0       -1.510174   -2.549065    2.929834
     23          1           0       -0.186894   -1.431311    2.565891
     24          1           0       -0.106330   -3.110408    2.006023
     25          6           0       -3.140691   -0.241379   -0.215322
     26          6           0       -4.087864    0.943169   -0.021178
     27          6           0       -4.791732    1.355382   -1.314408
     28          1           0       -2.390774    0.018470   -0.975256
     29          1           0       -3.707141   -1.094095   -0.614012
     30          1           0       -3.519130    1.793105    0.377276
     31          1           0       -4.834935    0.681666    0.739163
     32          1           0       -5.383379    0.524732   -1.712624
     33          1           0       -4.060099    1.642487   -2.076567
     34          1           0       -5.463942    2.203830   -1.152757
 ---------------------------------------------------------------------

 SCF Done:  E(RHF) =  -669.534746430     A.U. after   15 cycles
 E2 =    -0.2094024754D+01 EUMP2 =    -0.67162877118400D+03

 The electronic state is 1-A.
 Alpha  occ. eigenvalues --  -20.60878 -20.60870 -15.85929 -11.31310 -11.27870
 Alpha  occ. eigenvalues --  -11.27863 -11.27603 -11.26884 -11.26866 -11.21704
 Alpha  occ. eigenvalues --  -11.21645 -11.21563 -11.21410 -11.21200 -11.21104
 Alpha  occ. eigenvalues --   -1.59951  -1.39503  -1.19489  -1.08874  -1.08553
 Alpha  occ. eigenvalues --   -1.04899  -1.03607  -0.96081  -0.95704  -0.87093
 Alpha  occ. eigenvalues --   -0.86280  -0.82541  -0.79682  -0.78391  -0.77577
 Alpha  occ. eigenvalues --   -0.72145  -0.71276  -0.70579  -0.65246  -0.65103
 Alpha  occ. eigenvalues --   -0.64879  -0.62224  -0.61037  -0.59454  -0.57695
 Alpha  occ. eigenvalues --   -0.55422  -0.55337  -0.53265  -0.52970  -0.52740
 Alpha  occ. eigenvalues --   -0.52495  -0.50018  -0.48905  -0.48900  -0.47994
 Alpha  occ. eigenvalues --   -0.46712  -0.45929  -0.45837  -0.44902  -0.43885
 Alpha  occ. eigenvalues --   -0.37451  -0.36363
 Alpha virt. eigenvalues --    0.04925   0.11092   0.16341   0.19982   0.22884
 Alpha virt. eigenvalues --    0.24133   0.25318   0.26888   0.27695   0.28078
 Alpha virt. eigenvalues --    0.30053   0.30763   0.31332   0.31747   0.31823

 Mulliken charges:
               1
     1  C   -0.169602
     2  C   -0.218092
     3  C   -0.170492
     4  C    0.160158
     5  C   -0.171756
     6  C   -0.221413
     7  H    0.226594
     8  H    0.224155
     9  H    0.276140
    10  H    0.277133
    11  H    0.226117
    12  N    0.487946
    13  O   -0.460775
    14  O   -0.459676
    15  C   -0.300420
    16  C   -0.309467
    17  C   -0.474441
    18  H    0.156410
    19  H    0.150785
    20  H    0.159447
    21  H    0.147344
    22  H    0.155502
    23  H    0.157677
    24  H    0.156831
    25  C   -0.296487
    26  C   -0.301378
    27  C   -0.475342
    28  H    0.137273
    29  H    0.148788
    30  H    0.158545
    31  H    0.153498
    32  H    0.153898
    33  H    0.152407
    34  H    0.162693
 Sum of Mulliken charges =  -0.00000

 Dipole moment (field-independent basis, Debye):
    X=             -0.0120    Y=             -4.2972    Z=             -2.8047  Tot=              5.1316
 Quadrupole moment (field-independent basis, Debye-Ang):
   XX=            -91.2177   YY=            -99.7406   ZZ=            -93.9853
   XY=            -10.7902   XZ=             -5.0693   YZ=             -0.9595

 Normal termination of Gaussian 16 at Wed May  5 23:55:49 2021.
