 Gaussian 16, Revision A.03,
 Gaussian 16:  EM64L-G16RevA.03 25-Dec-2016

 -------------
 #p 6-31g* mp2
 -------------

 ------------------------------------------------------
 Input file generated by CHIRIPA (05-May-2021 14:53:14)
 ------------------------------------------------------
 Symbolic Z-matrix:
 Charge =  0 Multiplicity = 1

                         Standard orientation:
 ---------------------------------------------------------------------
 Center     Atomic      Atomic             Coordinates (Angstroms)
 Number     Number       Type             X           Y           Z
 ---------------------------------------------------------------------
      1          6           0       -3.802707   -1.059273    0.145435
      2          6           0       -2.315623   -0.911601   -0.178230
      3          6           0       -1.495546   -2.132425    0.239927
      4          1           0       -3.921423   -1.230559    1.224098
      5          1           0       -4.193269   -1.954460   -0.358049
      6          1           0       -1.928303   -0.016187    0.324595
      7          1           0       -2.200446   -0.740456   -1.256219
      8          1           0       -1.854470   -3.031276   -0.271779
      9          1           0       -1.580780   -2.302891    1.318017
     10          1           0       -0.435428   -2.005529   -0.000715
     11          6           0       -4.635706    0.153171   -0.266657
     12          6           0       -6.122790    0.005498    0.057008
     13          6           0       -6.942867    1.226323   -0.361149
     14          1           0       -4.245144    1.048358    0.236827
     15          1           0       -4.516990    0.324456   -1.345320
     16          1           0       -6.237967   -0.165647    1.134997
     17          1           0       -6.510110   -0.889916   -0.445817
     18          1           0       -6.857633    1.396788   -1.439239
     19          1           0       -6.583944    2.125173    0.150557
     20          1           0       -8.002985    1.099427   -0.120507
     21          6           0        1.627015    2.207603    0.426187
     22          6           0        2.913686    2.507379   -0.033304
     23          6           0        3.846748    1.488362   -0.246722
     24          6           0        3.457631    0.174741    0.010728
     25          6           0        2.183308   -0.155876    0.469076
     26          6           0        1.266567    0.879274    0.675470
     27          1           0        0.908528    3.005465    0.589247
     28          1           0        3.196388    3.538067   -0.227740
     29          1           0        4.849570    1.692252   -0.601962
     30          1           0        1.930729   -1.192895    0.654048
     31          1           0        0.268026    0.643510    1.032367
     32          7           0        4.436783   -0.912585   -0.211491
     33          8           0        4.069291   -2.061801    0.022796
     34          8           0        5.553194   -0.595028   -0.615744
 ---------------------------------------------------------------------

 SCF Done:  E(RHF) =  -669.535142929     A.U. after   15 cycles
 E2 =    -0.2091964147D+01 EUMP2 =    -0.67162710707654D+03

 The electronic state is 1-A.
 Alpha  occ. eigenvalues --  -20.60735 -20.60730 -15.85787 -11.31149 -11.27720
 Alpha  occ. eigenvalues --  -11.27700 -11.27455 -11.26740 -11.26690 -11.22490
 Alpha  occ. eigenvalues --  -11.22096 -11.22059 -11.21970 -11.21887 -11.21508
 Alpha  occ. eigenvalues --   -1.59810  -1.39364  -1.19321  -1.09094  -1.08716
 Alpha  occ. eigenvalues --   -1.04731  -1.04189  -0.96628  -0.95553  -0.87641
 Alpha  occ. eigenvalues --   -0.86124  -0.82386  -0.80268  -0.78892  -0.77435
 Alpha  occ. eigenvalues --   -0.72006  -0.71133  -0.70438  -0.65759  -0.64975
 Alpha  occ. eigenvalues --   -0.64725  -0.62223  -0.61518  -0.59960  -0.58221
 Alpha  occ. eigenvalues --   -0.55902  -0.55217  -0.53352  -0.53101  -0.52984
 Alpha  occ. eigenvalues --   -0.52803  -0.50555  -0.48779  -0.48761  -0.48553
 Alpha  occ. eigenvalues --   -0.47293  -0.46425  -0.46343  -0.44770  -0.44439
 Alpha  occ. eigenvalues --   -0.37301  -0.36315
 Alpha virt. eigenvalues --    0.05076   0.11291   0.16509   0.19594   0.22584
 Alpha virt. eigenvalues --    0.23819   0.25338   0.26033   0.26562   0.27876
 Alpha virt. eigenvalues --    0.28851   0.29745   0.30991   0.31498   0.32020

 Mulliken charges:
               1
     1  C   -0.298514
     2  C   -0.302147
     3  C   -0.482417
     4  H    0.150410
     5  H    0.153333
     6  H    0.141374
     7  H    0.157358
     8  H    0.163403
     9  H    0.156039
    10  H    0.159316
    11  C   -0.298281
    12  C   -0.300160
    13  C   -0.475977
    14  H    0.146481
    15  H    0.151141
    16  H    0.152538
    17  H    0.153766
    18  H    0.155942
    19  H    0.154396
    20  H    0.162012
    21  C   -0.172349
    22  C   -0.218428
    23  C   -0.171076
    24  C    0.159663
    25  C   -0.177127
    26  C   -0.222095
    27  H    0.225396
    28  H    0.223273
    29  H    0.275453
    30  H    0.278174
    31  H    0.231988
    32  N    0.488119
    33  O   -0.460399
    34  O   -0.460603
 Sum of Mulliken charges =  -0.00000

 Dipole moment (field-independent basis, Debye):
    X=             -3.6357    Y=              3.7536    Z=              0.7220  Tot=              5.2754
 Quadrupole moment (field-independent basis, Debye-Ang):
   XX=           -116.5155   YY=            -91.7011   ZZ=            -94.3249
   XY=             16.3060   XZ=              1.6507   YZ=             -0.3015

 Normal termination of Gaussian 16 at Thu May  6 13:45:53 2021.
