 Gaussian 16, Revision A.03,
 Gaussian 16:  EM64L-G16RevA.03 25-Dec-2016

 -------------
 #p 6-31g* mp2
 -------------

 ------------------------------------------------------
 Input file generated by CHIRIPA (05-May-2021 14:55:23)
 ------------------------------------------------------
 Symbolic Z-matrix:
 Charge =  0 Multiplicity = 1

                         Standard orientation:
 ---------------------------------------------------------------------
 Center     Atomic      Atomic             Coordinates (Angstroms)
 Number     Number       Type             X           Y           Z
 ---------------------------------------------------------------------
      1          6           0        1.086794   -0.789130    0.544786
      2          6           0        2.082013   -1.721636    0.855418
      3          6           0        3.423057   -1.451486    0.567029
      4          6           0        3.734682   -0.233387   -0.034980
      5          6           0        2.765904    0.715979   -0.356639
      6          6           0        1.431309    0.424562   -0.059187
      7          1           0        0.047543   -1.007250    0.772334
      8          1           0        1.817383   -2.665025    1.324495
      9          1           0        4.213626   -2.155500    0.796773
     10          1           0        3.060520    1.647754   -0.823989
     11          1           0        0.660516    1.150635   -0.301554
     12          7           0        5.150972    0.063867   -0.345082
     13          8           0        5.399494    1.144310   -0.875663
     14          8           0        5.985719   -0.789218   -0.051688
     15          6           0       -3.940592    0.845353   -0.258466
     16          6           0       -3.433212    1.776569    0.843072
     17          6           0       -2.351206    2.738742    0.351869
     18          1           0       -3.095240    0.272674   -0.663887
     19          1           0       -4.334797    1.449733   -1.087153
     20          1           0       -3.041346    1.170598    1.670029
     21          1           0       -4.279900    2.346959    1.246048
     22          1           0       -2.734005    3.367793   -0.458291
     23          1           0       -1.488413    2.184749   -0.031904
     24          1           0       -2.002824    3.395141    1.155380
     25          6           0       -5.022635   -0.122467    0.217177
     26          6           0       -5.530014   -1.053683   -0.884362
     27          6           0       -6.612020   -2.015856   -0.393158
     28          1           0       -4.628430   -0.726847    1.045864
     29          1           0       -5.867985    0.450212    0.622597
     30          1           0       -4.683325   -1.624073   -1.287338
     31          1           0       -5.921879   -0.447712   -1.711317
     32          1           0       -7.474813   -1.461862   -0.009386
     33          1           0       -6.229221   -2.644908    0.417003
     34          1           0       -6.960403   -2.672255   -1.196668
 ---------------------------------------------------------------------

 SCF Done:  E(RHF) =  -669.535417456     A.U. after   15 cycles
 E2 =    -0.2091009135D+01 EUMP2 =    -0.67162642659126D+03

 The electronic state is 1-A.
 Alpha  occ. eigenvalues --  -20.60746 -20.60741 -15.85799 -11.31168 -11.27739
 Alpha  occ. eigenvalues --  -11.27730 -11.27488 -11.26760 -11.26733 -11.22584
 Alpha  occ. eigenvalues --  -11.22313 -11.22272 -11.22200 -11.22149 -11.21641
 Alpha  occ. eigenvalues --   -1.59821  -1.39374  -1.19341  -1.09285  -1.08738
 Alpha  occ. eigenvalues --   -1.04746  -1.04369  -0.96826  -0.95572  -0.87843
 Alpha  occ. eigenvalues --   -0.86147  -0.82404  -0.80434  -0.79074  -0.77450
 Alpha  occ. eigenvalues --   -0.72018  -0.71144  -0.70455  -0.65940  -0.64994
 Alpha  occ. eigenvalues --   -0.64772  -0.62160  -0.61717  -0.60187  -0.58418
 Alpha  occ. eigenvalues --   -0.56147  -0.55248  -0.53504  -0.53284  -0.53074
 Alpha  occ. eigenvalues --   -0.52809  -0.50761  -0.48802  -0.48772  -0.48715
 Alpha  occ. eigenvalues --   -0.47472  -0.46618  -0.46539  -0.44779  -0.44616
 Alpha  occ. eigenvalues --   -0.37326  -0.36346
 Alpha virt. eigenvalues --    0.05086   0.11300   0.16576   0.18688   0.22485
 Alpha virt. eigenvalues --    0.23792   0.25090   0.25680   0.26778   0.28258
 Alpha virt. eigenvalues --    0.28796   0.30091   0.30905   0.31438   0.31723

 Mulliken charges:
               1
     1  C   -0.173773
     2  C   -0.218514
     3  C   -0.171242
     4  C    0.159061
     5  C   -0.172681
     6  C   -0.225381
     7  H    0.225137
     8  H    0.223261
     9  H    0.275531
    10  H    0.276458
    11  H    0.234372
    12  N    0.487943
    13  O   -0.460297
    14  O   -0.460563
    15  C   -0.298141
    16  C   -0.300461
    17  C   -0.479553
    18  H    0.143363
    19  H    0.153185
    20  H    0.149647
    21  H    0.157042
    22  H    0.160771
    23  H    0.145479
    24  H    0.165301
    25  C   -0.298508
    26  C   -0.300018
    27  C   -0.476043
    28  H    0.147709
    29  H    0.152473
    30  H    0.150797
    31  H    0.153905
    32  H    0.156674
    33  H    0.154814
    34  H    0.162253
 Sum of Mulliken charges =  -0.00000

 Dipole moment (field-independent basis, Debye):
    X=             -5.2251    Y=             -0.9830    Z=              1.0985  Tot=              5.4291
 Quadrupole moment (field-independent basis, Debye-Ang):
   XX=           -131.3253   YY=            -90.2525   ZZ=            -94.8538
   XY=             -5.4938   XZ=              5.2199   YZ=             -2.1615

 Normal termination of Gaussian 16 at Thu May  6 06:17:55 2021.
