 Gaussian 16, Revision A.03,
 Gaussian 16:  EM64L-G16RevA.03 25-Dec-2016

 -------------
 #p 6-31g* mp2
 -------------

 ------------------------------------------------------
 Input file generated by CHIRIPA (05-May-2021 14:53:18)
 ------------------------------------------------------
 Symbolic Z-matrix:
 Charge =  0 Multiplicity = 1

                         Standard orientation:
 ---------------------------------------------------------------------
 Center     Atomic      Atomic             Coordinates (Angstroms)
 Number     Number       Type             X           Y           Z
 ---------------------------------------------------------------------
      1          6           0       -5.180701    0.085021   -0.079640
      2          6           0       -5.360116    1.597950    0.050125
      3          6           0       -6.805745    2.043104   -0.173012
      4          1           0       -5.514051   -0.233140   -1.076935
      5          1           0       -5.836255   -0.418377    0.644400
      6          1           0       -4.703395    2.098383   -0.672993
      7          1           0       -5.026121    1.912573    1.047158
      8          1           0       -7.471323    1.570541    0.556571
      9          1           0       -7.146763    1.757407   -1.173354
     10          1           0       -6.911287    3.128108   -0.075611
     11          6           0       -3.740852   -0.375401    0.140763
     12          6           0       -3.561437   -1.888331    0.010998
     13          6           0       -2.115808   -2.333484    0.234134
     14          1           0       -3.085298    0.127996   -0.583277
     15          1           0       -3.407502   -0.057240    1.138057
     16          1           0       -3.895432   -2.202953   -0.986036
     17          1           0       -4.218158   -2.388763    0.734116
     18          1           0       -1.774790   -2.047787    1.234477
     19          1           0       -1.450230   -1.860922   -0.495449
     20          1           0       -2.010266   -3.418488    0.136734
     21          6           0        4.917463    2.188237    0.071492
     22          6           0        3.523257    2.298502    0.094998
     23          6           0        2.719664    1.155679    0.042651
     24          6           0        3.346495   -0.087154   -0.033096
     25          6           0        4.732978   -0.229708   -0.058268
     26          6           0        5.516816    0.926708   -0.004931
     27          1           0        5.534041    3.081290    0.112542
     28          1           0        3.055045    3.276922    0.154313
     29          1           0        1.638022    1.212194    0.059300
     30          1           0        5.170788   -1.218748   -0.117781
     31          1           0        6.599335    0.838051   -0.023347
     32          7           0        2.506222   -1.304206   -0.089038
     33          8           0        3.082883   -2.387576   -0.155445
     34          8           0        1.286867   -1.151716   -0.065419
 ---------------------------------------------------------------------

 SCF Done:  E(RHF) =  -669.535662289     A.U. after   15 cycles
 E2 =    -0.2090765286D+01 EUMP2 =    -0.67162642757487D+03

 The electronic state is 1-A.
 Alpha  occ. eigenvalues --  -20.60853 -20.60847 -15.85896 -11.31249 -11.27817
 Alpha  occ. eigenvalues --  -11.27813 -11.27560 -11.26831 -11.26822 -11.21240
 Alpha  occ. eigenvalues --  -11.20843 -11.20786 -11.20643 -11.20542 -11.19450
 Alpha  occ. eigenvalues --   -1.59921  -1.39476  -1.19421  -1.08819  -1.07758
 Alpha  occ. eigenvalues --   -1.04822  -1.02749  -0.95660  -0.95156  -0.86226
 Alpha  occ. eigenvalues --   -0.86160  -0.82490  -0.78848  -0.77571  -0.77489
 Alpha  occ. eigenvalues --   -0.72118  -0.71240  -0.70530  -0.65077  -0.64825
 Alpha  occ. eigenvalues --   -0.64400  -0.62169  -0.60151  -0.58624  -0.56765
 Alpha  occ. eigenvalues --   -0.55325  -0.54442  -0.53153  -0.52915  -0.51844
 Alpha  occ. eigenvalues --   -0.51569  -0.49152  -0.48871  -0.48823  -0.47101
 Alpha  occ. eigenvalues --   -0.45908  -0.45051  -0.44985  -0.44851  -0.43016
 Alpha  occ. eigenvalues --   -0.37403  -0.36426
 Alpha virt. eigenvalues --    0.04989   0.11229   0.16477   0.21350   0.23465
 Alpha virt. eigenvalues --    0.25125   0.27230   0.27315   0.27979   0.28272
 Alpha virt. eigenvalues --    0.28983   0.30928   0.32179   0.32303   0.32606

 Mulliken charges:
               1
     1  C   -0.297461
     2  C   -0.298793
     3  C   -0.475198
     4  H    0.148811
     5  H    0.148629
     6  H    0.149857
     7  H    0.150373
     8  H    0.154996
     9  H    0.154895
    10  H    0.158069
    11  C   -0.296517
    12  C   -0.301226
    13  C   -0.474198
    14  H    0.148131
    15  H    0.147573
    16  H    0.148354
    17  H    0.147180
    18  H    0.153637
    19  H    0.172987
    20  H    0.157299
    21  C   -0.170728
    22  C   -0.218552
    23  C   -0.171013
    24  C    0.157639
    25  C   -0.170648
    26  C   -0.218588
    27  H    0.225812
    28  H    0.223720
    29  H    0.275796
    30  H    0.275789
    31  H    0.223643
    32  N    0.492712
    33  O   -0.459487
    34  O   -0.463495
 Sum of Mulliken charges =  -0.00000

 Dipole moment (field-independent basis, Debye):
    X=              3.2552    Y=              4.2416    Z=              0.1728  Tot=              5.3496
 Quadrupole moment (field-independent basis, Debye-Ang):
   XX=            -73.8588   YY=            -94.6626   ZZ=            -94.7602
   XY=             12.1488   XZ=              0.1066   YZ=             -0.0009

 Normal termination of Gaussian 16 at Wed May  5 17:16:24 2021.
