 Gaussian 16, Revision A.03,
 Gaussian 16:  EM64L-G16RevA.03 25-Dec-2016

 -------------
 #p 6-31g* mp2
 -------------

 ------------------------------------------------------
 Input file generated by CHIRIPA (05-May-2021 14:57:25)
 ------------------------------------------------------
 Symbolic Z-matrix:
 Charge =  0 Multiplicity = 1

                         Standard orientation:
 ---------------------------------------------------------------------
 Center     Atomic      Atomic             Coordinates (Angstroms)
 Number     Number       Type             X           Y           Z
 ---------------------------------------------------------------------
      1          6           0        4.677050    1.066789   -1.418179
      2          6           0        4.076208    1.722669   -0.338674
      3          6           0        3.205522    1.036807    0.513410
      4          6           0        2.956990   -0.310403    0.255447
      5          6           0        3.540204   -0.991664   -0.811809
      6          6           0        4.407605   -0.285900   -1.650891
      7          1           0        5.352144    1.607313   -2.075049
      8          1           0        4.283620    2.773137   -0.155533
      9          1           0        2.726764    1.520045    1.356434
     10          1           0        3.314030   -2.039317   -0.968931
     11          1           0        4.872801   -0.797835   -2.488483
     12          7           0        2.036972   -1.047029    1.150628
     13          8           0        1.834407   -2.233507    0.901881
     14          8           0        1.535848   -0.423971    2.084068
     15          6           0       -3.524474   -2.233479   -0.677637
     16          6           0       -4.289465   -1.230813   -1.282590
     17          6           0       -4.067770    0.114721   -0.974474
     18          6           0       -3.068417    0.423195   -0.052830
     19          6           0       -2.289593   -0.552983    0.566684
     20          6           0       -2.528734   -1.891967    0.243446
     21          1           0       -3.703468   -3.276179   -0.922863
     22          1           0       -5.063442   -1.493097   -1.998281
     23          1           0       -4.645314    0.911073   -1.427999
     24          1           0       -1.525142   -0.260550    1.276273
     25          1           0       -1.933092   -2.668541    0.714813
     26          7           0       -2.824483    1.844184    0.281363
     27          8           0       -1.938067    2.089797    1.096578
     28          8           0       -3.524325    2.685436   -0.278240
 ---------------------------------------------------------------------

 SCF Done:  E(RHF) =  -868.340484549     A.U. after   16 cycles
 E2 =    -0.2598680028D+01 EUMP2 =    -0.87093916457776D+03

 The electronic state is 1-A.
 Alpha  occ. eigenvalues --  -20.61245 -20.61205 -20.60181 -20.60165 -15.86234
 Alpha  occ. eigenvalues --  -15.85219 -11.31293 -11.30418 -11.27878 -11.27776
 Alpha  occ. eigenvalues --  -11.27548 -11.27048 -11.26823 -11.26795 -11.26746
 Alpha  occ. eigenvalues --  -11.26720 -11.26056 -11.25818  -1.60292  -1.59259
 Alpha  occ. eigenvalues --   -1.39845  -1.38812  -1.19448  -1.18584  -1.08907
 Alpha  occ. eigenvalues --   -1.08025  -1.04802  -1.03934  -0.95787  -0.94877
 Alpha  occ. eigenvalues --   -0.86217  -0.85349  -0.82624  -0.81693  -0.77700
 Alpha  occ. eigenvalues --   -0.76748  -0.72460  -0.71600  -0.71436  -0.70583
 Alpha  occ. eigenvalues --   -0.70558  -0.69687  -0.65105  -0.64807  -0.64226
 Alpha  occ. eigenvalues --   -0.63915  -0.62147  -0.61245  -0.55333  -0.54483
 Alpha  occ. eigenvalues --   -0.53152  -0.52891  -0.52321  -0.51996  -0.49237
 Alpha  occ. eigenvalues --   -0.49208  -0.48205  -0.48185  -0.45303  -0.44255
 Alpha  occ. eigenvalues --   -0.37423  -0.36602  -0.36388  -0.35545
 Alpha virt. eigenvalues --    0.04770   0.05731   0.11270   0.12095   0.16303
 Alpha virt. eigenvalues --    0.17252   0.21411   0.22339   0.27363   0.28129
 Alpha virt. eigenvalues --    0.28459   0.29185   0.31014   0.31823   0.32521

 Mulliken charges:
               1
     1  C   -0.169722
     2  C   -0.218604
     3  C   -0.168300
     4  C    0.156908
     5  C   -0.170939
     6  C   -0.218919
     7  H    0.226601
     8  H    0.226572
     9  H    0.281494
    10  H    0.273379
    11  H    0.223106
    12  N    0.487603
    13  O   -0.466373
    14  O   -0.459047
    15  C   -0.171861
    16  C   -0.219467
    17  C   -0.172675
    18  C    0.156703
    19  C   -0.180132
    20  C   -0.221594
    21  H    0.223549
    22  H    0.219850
    23  H    0.272115
    24  H    0.291014
    25  H    0.235603
    26  N    0.487359
    27  O   -0.459345
    28  O   -0.464877
 Sum of Mulliken charges =  -0.00000

 Dipole moment (field-independent basis, Debye):
    X=              2.7312    Y=             -2.3759    Z=             -4.1895  Tot=              5.5368
 Quadrupole moment (field-independent basis, Debye-Ang):
   XX=            -79.2870   YY=           -107.6847   ZZ=           -103.8566
   XY=             20.8871   XZ=             -3.1923   YZ=              2.9850

 Normal termination of Gaussian 16 at Wed May  5 19:33:08 2021.
