 Gaussian 16, Revision A.03,
 Gaussian 16:  EM64L-G16RevA.03 25-Dec-2016

 -------------
 #p 6-31g* mp2
 -------------

 ------------------------------------------------------
 Input file generated by CHIRIPA (05-May-2021 14:55:21)
 ------------------------------------------------------
 Symbolic Z-matrix:
 Charge =  0 Multiplicity = 1

                         Standard orientation:
 ---------------------------------------------------------------------
 Center     Atomic      Atomic             Coordinates (Angstroms)
 Number     Number       Type             X           Y           Z
 ---------------------------------------------------------------------
      1          6           0        1.468634    0.902470    1.004506
      2          6           0        1.934925   -0.387309    1.279398
      3          6           0        3.177698   -0.810453    0.798760
      4          6           0        3.931474    0.086206    0.043039
      5          6           0        3.494329    1.377574   -0.247759
      6          6           0        2.248450    1.779249    0.243148
      7          1           0        0.502012    1.222839    1.381866
      8          1           0        1.331453   -1.070363    1.870417
      9          1           0        3.562890   -1.803371    0.996645
     10          1           0        4.118484    2.035962   -0.839683
     11          1           0        1.888859    2.781493    0.028099
     12          7           0        5.248787   -0.350394   -0.471227
     13          8           0        5.893799    0.458571   -1.134682
     14          8           0        5.611341   -1.493298   -0.201115
     15          6           0       -4.119880   -0.444143   -0.513458
     16          6           0       -2.861557   -0.296158    0.342525
     17          6           0       -1.600384   -0.783936   -0.371135
     18          1           0       -4.241451   -1.498797   -0.796070
     19          1           0       -3.986627    0.116758   -1.448889
     20          1           0       -2.997689   -0.856034    1.276668
     21          1           0       -2.743071    0.758236    0.623292
     22          1           0       -1.436984   -0.218440   -1.294236
     23          1           0       -1.693048   -1.841883   -0.637148
     24          1           0       -0.712765   -0.668986    0.258770
     25          6           0       -5.388896    0.039246    0.186301
     26          6           0       -6.647219   -0.108738   -0.669682
     27          6           0       -7.908392    0.379040    0.043977
     28          1           0       -5.522148   -0.521653    1.121731
     29          1           0       -5.267324    1.093900    0.468913
     30          1           0       -6.765704   -1.163132   -0.950449
     31          1           0       -6.511086    0.451139   -1.603825
     32          1           0       -7.815728    1.436986    0.309991
     33          1           0       -8.071793   -0.186457    0.967079
     34          1           0       -8.796011    0.264090   -0.585927
 ---------------------------------------------------------------------

 SCF Done:  E(RHF) =  -669.534206642     A.U. after   15 cycles
 E2 =    -0.2092395138D+01 EUMP2 =    -0.67162660177977D+03

 The electronic state is 1-A.
 Alpha  occ. eigenvalues --  -20.60763 -20.60757 -15.85818 -11.31191 -11.27777
 Alpha  occ. eigenvalues --  -11.27770 -11.27508 -11.26779 -11.26769 -11.22429
 Alpha  occ. eigenvalues --  -11.22047 -11.22014 -11.21906 -11.21774 -11.21457
 Alpha  occ. eigenvalues --   -1.59838  -1.39391  -1.19379  -1.09040  -1.08775
 Alpha  occ. eigenvalues --   -1.04786  -1.04142  -0.96585  -0.95600  -0.87597
 Alpha  occ. eigenvalues --   -0.86185  -0.82434  -0.80214  -0.78834  -0.77476
 Alpha  occ. eigenvalues --   -0.72038  -0.71162  -0.70514  -0.65665  -0.65044
 Alpha  occ. eigenvalues --   -0.64814  -0.62146  -0.61535  -0.59986  -0.58210
 Alpha  occ. eigenvalues --   -0.55856  -0.55271  -0.53601  -0.53059  -0.52885
 Alpha  occ. eigenvalues --   -0.52693  -0.50499  -0.48797  -0.48790  -0.48523
 Alpha  occ. eigenvalues --   -0.47252  -0.46376  -0.46290  -0.44796  -0.44405
 Alpha  occ. eigenvalues --   -0.37275  -0.36369
 Alpha virt. eigenvalues --    0.05048   0.11138   0.16501   0.20309   0.22526
 Alpha virt. eigenvalues --    0.24006   0.25886   0.26534   0.26805   0.27453
 Alpha virt. eigenvalues --    0.29100   0.30041   0.30887   0.31563   0.31698

 Mulliken charges:
               1
     1  C   -0.168638
     2  C   -0.218273
     3  C   -0.171582
     4  C    0.158169
     5  C   -0.170670
     6  C   -0.220050
     7  H    0.228171
     8  H    0.224069
     9  H    0.275847
    10  H    0.275718
    11  H    0.223463
    12  N    0.488137
    13  O   -0.460467
    14  O   -0.460371
    15  C   -0.298381
    16  C   -0.300923
    17  C   -0.480698
    18  H    0.152001
    19  H    0.150931
    20  H    0.151104
    21  H    0.146154
    22  H    0.158220
    23  H    0.158367
    24  H    0.157538
    25  C   -0.298507
    26  C   -0.300108
    27  C   -0.475969
    28  H    0.149792
    29  H    0.148884
    30  H    0.153029
    31  H    0.152631
    32  H    0.155152
    33  H    0.155538
    34  H    0.161725
 Sum of Mulliken charges =  -0.00000

 Dipole moment (field-independent basis, Debye):
    X=             -4.7157    Y=              1.5244    Z=              1.7566  Tot=              5.2581
 Quadrupole moment (field-independent basis, Debye-Ang):
   XX=           -132.3811   YY=            -89.7838   ZZ=            -94.3869
   XY=              6.8981   XZ=              7.1257   YZ=             -2.4803

 Normal termination of Gaussian 16 at Thu May  6 15:48:43 2021.
