 Gaussian 16, Revision A.03,
 Gaussian 16:  EM64L-G16RevA.03 25-Dec-2016

 -------------
 #p 6-31g* mp2
 -------------

 ------------------------------------------------------
 Input file generated by CHIRIPA (05-May-2021 14:53:16)
 ------------------------------------------------------
 Symbolic Z-matrix:
 Charge =  0 Multiplicity = 1

                         Standard orientation:
 ---------------------------------------------------------------------
 Center     Atomic      Atomic             Coordinates (Angstroms)
 Number     Number       Type             X           Y           Z
 ---------------------------------------------------------------------
      1          6           0       -3.158554   -0.478153   -0.609217
      2          6           0       -1.908559   -0.887850    0.170299
      3          6           0       -0.667290   -0.993648   -0.716182
      4          1           0       -3.339259   -1.208270   -1.409979
      5          1           0       -2.975194    0.486875   -1.101656
      6          1           0       -2.094710   -1.851151    0.662249
      7          1           0       -1.730919   -0.156777    0.969419
      8          1           0       -0.453776   -0.033175   -1.196291
      9          1           0       -0.819633   -1.737176   -1.505206
     10          1           0        0.214646   -1.287708   -0.138621
     11          6           0       -4.407678   -0.368140    0.263316
     12          6           0       -5.657673    0.041557   -0.516200
     13          6           0       -6.898943    0.147355    0.370281
     14          1           0       -4.591039   -1.333167    0.755755
     15          1           0       -4.226974    0.361977    1.064078
     16          1           0       -5.835313   -0.689516   -1.315320
     17          1           0       -5.471523    1.004858   -1.008150
     18          1           0       -6.746600    0.890883    1.159305
     19          1           0       -7.112457   -0.813118    0.850390
     20          1           0       -7.780879    0.441416   -0.207280
     21          6           0        1.227079    2.150373    0.393270
     22          6           0        2.051944    2.123528   -0.736066
     23          6           0        3.013091    1.119947   -0.889585
     24          6           0        3.122663    0.154652    0.110160
     25          6           0        2.315613    0.154401    1.246806
     26          6           0        1.361310    1.167457    1.379362
     27          1           0        0.483095    2.933659    0.504385
     28          1           0        1.949933    2.885578   -1.503477
     29          1           0        3.664718    1.075342   -1.753767
     30          1           0        2.440854   -0.618900    1.994961
     31          1           0        0.722077    1.185808    2.257479
     32          7           0        4.136563   -0.912809   -0.041268
     33          8           0        4.213214   -1.751708    0.853725
     34          8           0        4.835411   -0.890375   -1.052083
 ---------------------------------------------------------------------

 SCF Done:  E(RHF) =  -669.534285633     A.U. after   15 cycles
 E2 =    -0.2093912495D+01 EUMP2 =    -0.67162819812843D+03

 The electronic state is 1-A.
 Alpha  occ. eigenvalues --  -20.60804 -20.60799 -15.85859 -11.31245 -11.27825
 Alpha  occ. eigenvalues --  -11.27795 -11.27565 -11.26851 -11.26814 -11.21934
 Alpha  occ. eigenvalues --  -11.21926 -11.21763 -11.21701 -11.21376 -11.21054
 Alpha  occ. eigenvalues --   -1.59880  -1.39432  -1.19431  -1.08830  -1.08749
 Alpha  occ. eigenvalues --   -1.04842  -1.03801  -0.96232  -0.95650  -0.87249
 Alpha  occ. eigenvalues --   -0.86234  -0.82480  -0.79880  -0.78587  -0.77520
 Alpha  occ. eigenvalues --   -0.72077  -0.71204  -0.70539  -0.65409  -0.65082
 Alpha  occ. eigenvalues --   -0.64835  -0.62183  -0.61233  -0.59657  -0.57885
 Alpha  occ. eigenvalues --   -0.55629  -0.55338  -0.53530  -0.52927  -0.52678
 Alpha  occ. eigenvalues --   -0.52389  -0.50106  -0.48839  -0.48830  -0.48199
 Alpha  occ. eigenvalues --   -0.46918  -0.46121  -0.46062  -0.44833  -0.44066
 Alpha  occ. eigenvalues --   -0.37370  -0.36362
 Alpha virt. eigenvalues --    0.05005   0.11084   0.16474   0.20888   0.22646
 Alpha virt. eigenvalues --    0.24095   0.25937   0.26690   0.27590   0.27945
 Alpha virt. eigenvalues --    0.28267   0.30370   0.31279   0.31616   0.31824

 Mulliken charges:
               1
     1  C   -0.297680
     2  C   -0.299425
     3  C   -0.476974
     4  H    0.152242
     5  H    0.146115
     6  H    0.153382
     7  H    0.141868
     8  H    0.154171
     9  H    0.155011
    10  H    0.163470
    11  C   -0.297832
    12  C   -0.299627
    13  C   -0.475737
    14  H    0.151030
    15  H    0.146180
    16  H    0.153414
    17  H    0.150628
    18  H    0.154150
    19  H    0.156172
    20  H    0.161067
    21  C   -0.170961
    22  C   -0.218217
    23  C   -0.170198
    24  C    0.162788
    25  C   -0.176589
    26  C   -0.211017
    27  H    0.225647
    28  H    0.223810
    29  H    0.276063
    30  H    0.275872
    31  H    0.223914
    32  N    0.487904
    33  O   -0.460571
    34  O   -0.460071
 Sum of Mulliken charges =  -0.00000

 Dipole moment (field-independent basis, Debye):
    X=             -3.4903    Y=              3.7715    Z=              0.5133  Tot=              5.1643
 Quadrupole moment (field-independent basis, Debye-Ang):
   XX=           -118.2308   YY=            -92.3766   ZZ=            -91.2869
   XY=             12.3977   XZ=              0.4193   YZ=             -1.3897

 Normal termination of Gaussian 16 at Wed May  5 18:44:34 2021.
