 Gaussian 16, Revision A.03,
 Gaussian 16:  EM64L-G16RevA.03 25-Dec-2016

 -------------
 #p 6-31g* mp2
 -------------

 ------------------------------------------------------
 Input file generated by CHIRIPA (05-May-2021 14:55:21)
 ------------------------------------------------------
 Symbolic Z-matrix:
 Charge =  0 Multiplicity = 1

                         Standard orientation:
 ---------------------------------------------------------------------
 Center     Atomic      Atomic             Coordinates (Angstroms)
 Number     Number       Type             X           Y           Z
 ---------------------------------------------------------------------
      1          6           0       -3.426650    1.572090   -0.275558
      2          6           0       -3.700433    0.466033   -1.086854
      3          6           0       -3.035349   -0.746552   -0.882283
      4          6           0       -2.098319   -0.818092    0.147351
      5          6           0       -1.803611    0.266155    0.972485
      6          6           0       -2.480780    1.468803    0.749715
      7          1           0       -3.947998    2.510196   -0.441542
      8          1           0       -4.434512    0.543346   -1.883845
      9          1           0       -3.227952   -1.618482   -1.495520
     10          1           0       -1.066618    0.158516    1.759043
     11          1           0       -2.266129    2.326141    1.381333
     12          7           0       -1.387827   -2.096542    0.373554
     13          8           0       -0.566714   -2.133761    1.287352
     14          8           0       -1.665510   -3.037165   -0.367228
     15          6           0        2.534500    1.383438    0.213339
     16          6           0        1.288655    1.934399   -0.481136
     17          6           0        0.697538    3.146523    0.239370
     18          1           0        2.279786    1.109517    1.246313
     19          1           0        3.291124    2.177620    0.278080
     20          1           0        0.535123    1.139020   -0.545784
     21          1           0        1.546319    2.206861   -1.512635
     22          1           0        1.429819    3.958723    0.291273
     23          1           0        0.412879    2.884815    1.263616
     24          1           0       -0.192197    3.524213   -0.274032
     25          6           0        3.136966    0.171476   -0.495118
     26          6           0        4.382811   -0.379485    0.199358
     27          6           0        4.973928   -1.591608   -0.521149
     28          1           0        2.380342   -0.622706   -0.559858
     29          1           0        3.391680    0.445398   -1.528091
     30          1           0        4.125147   -0.651948    1.230855
     31          1           0        5.136343    0.415894    0.264006
     32          1           0        5.258587   -1.329900   -1.545395
     33          1           0        4.241646   -2.403810   -0.573052
     34          1           0        5.863663   -1.969298   -0.007746
 ---------------------------------------------------------------------

 SCF Done:  E(RHF) =  -669.534886286     A.U. after   15 cycles
 E2 =    -0.2093913259D+01 EUMP2 =    -0.67162879954564D+03

 The electronic state is 1-A.
 Alpha  occ. eigenvalues --  -20.60879 -20.60874 -15.85927 -11.31271 -11.27816
 Alpha  occ. eigenvalues --  -11.27812 -11.27544 -11.26832 -11.26792 -11.21670
 Alpha  occ. eigenvalues --  -11.21541 -11.21306 -11.21204 -11.21045 -11.20591
 Alpha  occ. eigenvalues --   -1.59952  -1.39505  -1.19440  -1.08832  -1.08281
 Alpha  occ. eigenvalues --   -1.04842  -1.03420  -0.95902  -0.95672  -0.86939
 Alpha  occ. eigenvalues --   -0.86216  -0.82501  -0.79511  -0.78044  -0.77556
 Alpha  occ. eigenvalues --   -0.72142  -0.71277  -0.70541  -0.65096  -0.64917
 Alpha  occ. eigenvalues --   -0.64830  -0.62212  -0.60816  -0.59322  -0.57494
 Alpha  occ. eigenvalues --   -0.55353  -0.55205  -0.53124  -0.52957  -0.52546
 Alpha  occ. eigenvalues --   -0.52323  -0.49836  -0.48903  -0.48897  -0.47820
 Alpha  occ. eigenvalues --   -0.46531  -0.45609  -0.45487  -0.44889  -0.43662
 Alpha  occ. eigenvalues --   -0.37395  -0.36355
 Alpha virt. eigenvalues --    0.04954   0.11144   0.16414   0.20303   0.23078
 Alpha virt. eigenvalues --    0.24347   0.26105   0.26777   0.27366   0.28443
 Alpha virt. eigenvalues --    0.29096   0.30736   0.31228   0.31733   0.32467

 Mulliken charges:
               1
     1  C   -0.172965
     2  C   -0.217930
     3  C   -0.171362
     4  C    0.159532
     5  C   -0.174123
     6  C   -0.212465
     7  H    0.226001
     8  H    0.223763
     9  H    0.275774
    10  H    0.275571
    11  H    0.226341
    12  N    0.487966
    13  O   -0.461333
    14  O   -0.459703
    15  C   -0.298138
    16  C   -0.304252
    17  C   -0.473845
    18  H    0.149226
    19  H    0.148293
    20  H    0.156922
    21  H    0.152557
    22  H    0.157410
    23  H    0.144646
    24  H    0.155651
    25  C   -0.299826
    26  C   -0.299579
    27  C   -0.476902
    28  H    0.157327
    29  H    0.147561
    30  H    0.155272
    31  H    0.148891
    32  H    0.152866
    33  H    0.161516
    34  H    0.159335
 Sum of Mulliken charges =  -0.00000

 Dipole moment (field-independent basis, Debye):
    X=             -2.5533    Y=              4.3804    Z=             -0.8212  Tot=              5.1363
 Quadrupole moment (field-independent basis, Debye-Ang):
   XX=            -83.4423   YY=           -102.4734   ZZ=            -92.3957
   XY=             -5.8150   XZ=              3.5125   YZ=              2.3613

 Normal termination of Gaussian 16 at Thu May  6 06:13:26 2021.
