 Gaussian 16, Revision A.03,
 Gaussian 16:  EM64L-G16RevA.03 25-Dec-2016

 -------------
 #p 6-31g* mp2
 -------------

 ------------------------------------------------------
 Input file generated by CHIRIPA (05-May-2021 14:55:20)
 ------------------------------------------------------
 Symbolic Z-matrix:
 Charge =  0 Multiplicity = 1

                         Standard orientation:
 ---------------------------------------------------------------------
 Center     Atomic      Atomic             Coordinates (Angstroms)
 Number     Number       Type             X           Y           Z
 ---------------------------------------------------------------------
      1          6           0       -1.753481    2.328064    0.024264
      2          6           0       -1.891029    1.649681   -1.191219
      3          6           0       -2.328410    0.322075   -1.217830
      4          6           0       -2.620774   -0.299340   -0.004712
      5          6           0       -2.493754    0.349742    1.222418
      6          6           0       -2.054751    1.677077    1.225086
      7          1           0       -1.413083    3.359275    0.035637
      8          1           0       -1.657780    2.152732   -2.125338
      9          1           0       -2.443738   -0.226760   -2.144598
     10          1           0       -2.733868   -0.178212    2.137310
     11          1           0       -1.948856    2.201438    2.170536
     12          7           0       -3.084668   -1.704674   -0.020210
     13          8           0       -3.335825   -2.229778    1.062297
     14          8           0       -3.188327   -2.254460   -1.114572
     15          6           0        3.852459   -0.383100    0.091288
     16          6           0        3.491963   -1.858857   -0.082406
     17          6           0        4.694192   -2.786228    0.097659
     18          1           0        4.635083   -0.115820   -0.631903
     19          1           0        4.285581   -0.233741    1.090033
     20          1           0        3.058375   -2.005137   -1.080013
     21          1           0        2.709970   -2.122607    0.641154
     22          1           0        5.124319   -2.669602    1.097654
     23          1           0        5.474703   -2.551463   -0.633292
     24          1           0        4.413939   -3.836385   -0.030745
     25          6           0        2.660998    0.556475   -0.085765
     26          6           0        3.021494    2.032231    0.087930
     27          6           0        1.819264    2.959602   -0.092136
     28          1           0        2.227876    0.407115   -1.084510
     29          1           0        1.878374    0.289194    0.637426
     30          1           0        3.803486    2.295983   -0.635630
     31          1           0        3.455082    2.178512    1.085536
     32          1           0        1.038753    2.724837    0.638815
     33          1           0        1.389137    2.842976   -1.092131
     34          1           0        2.099519    4.009760    0.036268
 ---------------------------------------------------------------------

 SCF Done:  E(RHF) =  -669.534857621     A.U. after   15 cycles
 E2 =    -0.2092430010D+01 EUMP2 =    -0.67162728763106D+03

 The electronic state is 1-A.
 Alpha  occ. eigenvalues --  -20.60752 -20.60747 -15.85809 -11.31162 -11.27774
 Alpha  occ. eigenvalues --  -11.27761 -11.27472 -11.26755 -11.26732 -11.22084
 Alpha  occ. eigenvalues --  -11.21781 -11.21678 -11.21650 -11.21544 -11.21076
 Alpha  occ. eigenvalues --   -1.59829  -1.39383  -1.19356  -1.08766  -1.08680
 Alpha  occ. eigenvalues --   -1.04761  -1.03830  -0.96315  -0.95572  -0.87336
 Alpha  occ. eigenvalues --   -0.86158  -0.82415  -0.79913  -0.78473  -0.77460
 Alpha  occ. eigenvalues --   -0.72028  -0.71153  -0.70465  -0.65332  -0.65006
 Alpha  occ. eigenvalues --   -0.64765  -0.62113  -0.61232  -0.59684  -0.57911
 Alpha  occ. eigenvalues --   -0.55647  -0.55231  -0.53252  -0.52998  -0.52853
 Alpha  occ. eigenvalues --   -0.52567  -0.50255  -0.48785  -0.48782  -0.48203
 Alpha  occ. eigenvalues --   -0.46931  -0.46021  -0.45929  -0.44792  -0.44071
 Alpha  occ. eigenvalues --   -0.37236  -0.36369
 Alpha virt. eigenvalues --    0.05076   0.11160   0.16536   0.20914   0.22632
 Alpha virt. eigenvalues --    0.24109   0.26039   0.26787   0.27291   0.27381
 Alpha virt. eigenvalues --    0.28891   0.30347   0.30970   0.31623   0.32035

 Mulliken charges:
               1
     1  C   -0.165608
     2  C   -0.219521
     3  C   -0.170596
     4  C    0.158089
     5  C   -0.170537
     6  C   -0.221782
     7  H    0.229100
     8  H    0.223091
     9  H    0.275514
    10  H    0.275507
    11  H    0.223273
    12  N    0.488196
    13  O   -0.460792
    14  O   -0.460572
    15  C   -0.298716
    16  C   -0.300100
    17  C   -0.476029
    18  H    0.149402
    19  H    0.149379
    20  H    0.152916
    21  H    0.154108
    22  H    0.154889
    23  H    0.154580
    24  H    0.162618
    25  C   -0.298087
    26  C   -0.299452
    27  C   -0.478618
    28  H    0.149068
    29  H    0.151616
    30  H    0.153075
    31  H    0.152737
    32  H    0.154225
    33  H    0.150639
    34  H    0.158391
 Sum of Mulliken charges =  -0.00000

 Dipole moment (field-independent basis, Debye):
    X=              1.6628    Y=              4.8902    Z=              0.0537  Tot=              5.1655
 Quadrupole moment (field-independent basis, Debye-Ang):
   XX=           -104.7219   YY=            -99.1693   ZZ=            -88.8113
   XY=            -13.2160   XZ=             -0.7864   YZ=              0.0515

 Normal termination of Gaussian 16 at Thu May  6 15:46:26 2021.
