 Gaussian 16, Revision A.03,
 Gaussian 16:  EM64L-G16RevA.03 25-Dec-2016

 -------------
 #p 6-31g* mp2
 -------------

 ------------------------------------------------------
 Input file generated by CHIRIPA (05-May-2021 14:51:08)
 ------------------------------------------------------
 Symbolic Z-matrix:
 Charge =  0 Multiplicity = 1

                         Standard orientation:
 ---------------------------------------------------------------------
 Center     Atomic      Atomic             Coordinates (Angstroms)
 Number     Number       Type             X           Y           Z
 ---------------------------------------------------------------------
      1          6           0       -3.919901    0.729181   -0.296350
      2          6           0       -2.680778    1.384201    0.314804
      3          6           0       -2.410087    2.779032   -0.249966
      4          1           0       -3.794294    0.667100   -1.385989
      5          1           0       -4.792085    1.373419   -0.118452
      6          1           0       -1.811434    0.738254    0.137012
      7          1           0       -2.809267    1.444556    1.403135
      8          1           0       -3.259315    3.443227   -0.059549
      9          1           0       -2.255813    2.732912   -1.332866
     10          1           0       -1.519886    3.228822    0.200689
     11          6           0       -4.203608   -0.665709    0.258195
     12          6           0       -5.442731   -1.320728   -0.352959
     13          6           0       -5.713422   -2.715560    0.211811
     14          1           0       -3.331424   -1.309946    0.080298
     15          1           0       -4.329215   -0.603627    1.347834
     16          1           0       -5.314242   -1.381083   -1.441290
     17          1           0       -6.312075   -0.674781   -0.175167
     18          1           0       -5.867696   -2.669439    1.294711
     19          1           0       -4.864194   -3.379754    0.021395
     20          1           0       -6.603623   -3.165350   -0.238844
     21          6           0        4.572009   -0.461259   -0.353188
     22          6           0        5.857601   -0.699444    0.439597
     23          6           0        6.868584   -1.560399   -0.318336
     24          1           0        4.117324   -1.429952   -0.601867
     25          1           0        4.822472    0.020857   -1.308294
     26          1           0        5.604648   -1.179714    1.393522
     27          1           0        6.309177    0.269934    0.686582
     28          1           0        7.149745   -1.083078   -1.262642
     29          1           0        6.441215   -2.540961   -0.551686
     30          1           0        7.780046   -1.718082    0.266672
     31          6           0        3.551500    0.397787    0.391343
     32          6           0        2.265909    0.635972   -0.401442
     33          6           0        1.254925    1.496926    0.356491
     34          1           0        3.301037   -0.084329    1.346448
     35          1           0        4.006184    1.366480    0.640021
     36          1           0        1.814332   -0.333406   -0.648428
     37          1           0        2.518860    1.116241   -1.355368
     38          1           0        1.682294    2.477489    0.589841
     39          1           0        0.973763    1.019606    1.300797
     40          1           0        0.343463    1.654609   -0.228516
 ---------------------------------------------------------------------

 SCF Done:  E(RHF) =  -470.732420686     A.U. after   11 cycles
 E2 =    -0.1583082245D+01 EUMP2 =    -0.47231550293139D+03

 The electronic state is 1-A.
 Alpha  occ. eigenvalues --  -11.21600 -11.21596 -11.21590 -11.21527 -11.21400
 Alpha  occ. eigenvalues --  -11.21381 -11.21341 -11.21320 -11.21071 -11.21066
 Alpha  occ. eigenvalues --  -11.21019 -11.20991  -1.08435  -1.08398  -1.03574
 Alpha  occ. eigenvalues --   -1.03462  -0.96055  -0.95884  -0.87040  -0.86931
 Alpha  occ. eigenvalues --   -0.79623  -0.79541  -0.78249  -0.78208  -0.65078
 Alpha  occ. eigenvalues --   -0.65034  -0.61029  -0.60895  -0.59659  -0.59062
 Alpha  occ. eigenvalues --   -0.57740  -0.57374  -0.55282  -0.55237  -0.52867
 Alpha  occ. eigenvalues --   -0.52518  -0.52403  -0.52210  -0.49966  -0.49861
 Alpha  occ. eigenvalues --   -0.47912  -0.47876  -0.46672  -0.46546  -0.45782
 Alpha  occ. eigenvalues --   -0.45761  -0.45709  -0.45668  -0.43794  -0.43687
 Alpha virt. eigenvalues --    0.21929   0.23072   0.23558   0.25001   0.26560
 Alpha virt. eigenvalues --    0.26702   0.27060   0.27499   0.27541   0.28977
 Alpha virt. eigenvalues --    0.30495   0.31350   0.31473   0.31930   0.32257

 Mulliken charges:
               1
     1  C   -0.297697
     2  C   -0.303596
     3  C   -0.480508
     4  H    0.149234
     5  H    0.149354
     6  H    0.156091
     7  H    0.151930
     8  H    0.155958
     9  H    0.154119
    10  H    0.164239
    11  C   -0.298230
    12  C   -0.299607
    13  C   -0.475684
    14  H    0.149287
    15  H    0.149604
    16  H    0.151885
    17  H    0.151955
    18  H    0.155149
    19  H    0.155061
    20  H    0.160221
    21  C   -0.298213
    22  C   -0.299618
    23  C   -0.475691
    24  H    0.149508
    25  H    0.149480
    26  H    0.151927
    27  H    0.151949
    28  H    0.155167
    29  H    0.155140
    30  H    0.160253
    31  C   -0.298541
    32  C   -0.299997
    33  C   -0.483268
    34  H    0.149528
    35  H    0.149700
    36  H    0.151290
    37  H    0.151820
    38  H    0.154279
    39  H    0.155351
    40  H    0.171172
 Sum of Mulliken charges =  -0.00000

 Dipole moment (field-independent basis, Debye):
    X=              0.0025    Y=              0.0148    Z=              0.0081  Tot=              0.0171
 Quadrupole moment (field-independent basis, Debye-Ang):
   XX=            -85.2725   YY=            -85.3020   ZZ=            -84.3611
   XY=              0.2874   XZ=             -0.1904   YZ=              0.0294

 Normal termination of Gaussian 16 at Thu May  6 05:17:14 2021.
