 Gaussian 16, Revision A.03,
 Gaussian 16:  EM64L-G16RevA.03 25-Dec-2016

 -------------
 #p 6-31g* mp2
 -------------

 ------------------------------------------------------
 Input file generated by CHIRIPA (05-May-2021 14:57:21)
 ------------------------------------------------------
 Symbolic Z-matrix:
 Charge =  0 Multiplicity = 1

                         Standard orientation:
 ---------------------------------------------------------------------
 Center     Atomic      Atomic             Coordinates (Angstroms)
 Number     Number       Type             X           Y           Z
 ---------------------------------------------------------------------
      1          6           0        2.079003    2.489137    0.254116
      2          6           0        2.846302    2.046455    1.336615
      3          6           0        3.498596    0.810922    1.286433
      4          6           0        3.361374    0.040233    0.132961
      5          6           0        2.604053    0.453727   -0.961926
      6          6           0        1.960536    1.692764   -0.889684
      7          1           0        1.575694    3.450291    0.301667
      8          1           0        2.940080    2.662824    2.226188
      9          1           0        4.098930    0.443892    2.110027
     10          1           0        2.529274   -0.182879   -1.835173
     11          1           0        1.365304    2.034009   -1.731881
     12          7           0        4.047283   -1.269626    0.068158
     13          8           0        3.910599   -1.929880   -0.959470
     14          8           0        4.708593   -1.611237    1.046221
     15          6           0       -5.473538   -0.075471    1.031830
     16          6           0       -4.641601   -1.173763    1.272991
     17          6           0       -3.406519   -1.284239    0.627302
     18          6           0       -3.033203   -0.273577   -0.257281
     19          6           0       -3.839927    0.832881   -0.518506
     20          6           0       -5.070756    0.922585    0.138426
     21          1           0       -6.431328    0.002282    1.537783
     22          1           0       -4.951819   -1.950371    1.966307
     23          1           0       -2.742911   -2.123732    0.795514
     24          1           0       -3.503411    1.591183   -1.215035
     25          1           0       -5.714800    1.776661   -0.050799
     26          7           0       -1.727928   -0.379539   -0.946795
     27          8           0       -1.422063    0.524247   -1.721557
     28          8           0       -1.035434   -1.364370   -0.699418
 ---------------------------------------------------------------------

 SCF Done:  E(RHF) =  -868.339303024     A.U. after   16 cycles
 E2 =    -0.2599332239D+01 EUMP2 =    -0.87093863526331D+03

 The electronic state is 1-A.
 Alpha  occ. eigenvalues --  -20.61370 -20.61310 -20.59740 -20.59706 -15.86367
 Alpha  occ. eigenvalues --  -15.84771 -11.31601 -11.30002 -11.28182 -11.28118
 Alpha  occ. eigenvalues --  -11.27868 -11.27154 -11.27111 -11.26642 -11.26428
 Alpha  occ. eigenvalues --  -11.26338 -11.25695 -11.25402  -1.60397  -1.58800
 Alpha  occ. eigenvalues --   -1.39958  -1.38357  -1.19760  -1.18168  -1.09180
 Alpha  occ. eigenvalues --   -1.07612  -1.05142  -1.03529  -0.96038  -0.94464
 Alpha  occ. eigenvalues --   -0.86546  -0.84952  -0.82876  -0.81282  -0.77938
 Alpha  occ. eigenvalues --   -0.76329  -0.72604  -0.71700  -0.71002  -0.70865
 Alpha  occ. eigenvalues --   -0.70113  -0.69326  -0.65416  -0.65143  -0.63826
 Alpha  occ. eigenvalues --   -0.63532  -0.62490  -0.60868  -0.55647  -0.54118
 Alpha  occ. eigenvalues --   -0.53481  -0.53232  -0.51905  -0.51621  -0.49370
 Alpha  occ. eigenvalues --   -0.49328  -0.47762  -0.47742  -0.45386  -0.43792
 Alpha  occ. eigenvalues --   -0.37734  -0.36741  -0.36194  -0.35086
 Alpha virt. eigenvalues --    0.04577   0.06182   0.10916   0.12533   0.16096
 Alpha virt. eigenvalues --    0.17690   0.21072   0.22583   0.26992   0.27920
 Alpha virt. eigenvalues --    0.28627   0.29388   0.30650   0.32008   0.32242

 Mulliken charges:
               1
     1  C   -0.175029
     2  C   -0.219651
     3  C   -0.173629
     4  C    0.157247
     5  C   -0.162517
     6  C   -0.213537
     7  H    0.219828
     8  H    0.217223
     9  H    0.270909
    10  H    0.280261
    11  H    0.233384
    12  N    0.488415
    13  O   -0.458518
    14  O   -0.466214
    15  C   -0.170362
    16  C   -0.218607
    17  C   -0.170386
    18  C    0.158378
    19  C   -0.171458
    20  C   -0.218618
    21  H    0.226907
    22  H    0.225533
    23  H    0.278432
    24  H    0.272999
    25  H    0.223703
    26  N    0.490093
    27  O   -0.470528
    28  O   -0.454259
 Sum of Mulliken charges =  -0.00000

 Dipole moment (field-independent basis, Debye):
    X=             -7.3621    Y=              4.7907    Z=              2.4715  Tot=              9.1247
 Quadrupole moment (field-independent basis, Debye-Ang):
   XX=            -94.2712   YY=           -101.9543   ZZ=           -101.5532
   XY=             14.9545   XZ=             -4.4845   YZ=             -1.9783

 Normal termination of Gaussian 16 at Wed May  5 22:31:32 2021.
