 Gaussian 16, Revision A.03,
 Gaussian 16:  EM64L-G16RevA.03 25-Dec-2016

 -------------
 #p 6-31g* mp2
 -------------

 ------------------------------------------------------
 Input file generated by CHIRIPA (05-May-2021 14:53:15)
 ------------------------------------------------------
 Symbolic Z-matrix:
 Charge =  0 Multiplicity = 1

                         Standard orientation:
 ---------------------------------------------------------------------
 Center     Atomic      Atomic             Coordinates (Angstroms)
 Number     Number       Type             X           Y           Z
 ---------------------------------------------------------------------
      1          6           0        2.893049   -0.309512    0.638125
      2          6           0        3.623842   -1.647345    0.519253
      3          6           0        3.197553   -2.651077    1.590978
      4          1           0        3.078158    0.114912    1.634390
      5          1           0        1.810336   -0.483648    0.568804
      6          1           0        4.704918   -1.470577    0.587392
      7          1           0        3.437127   -2.068542   -0.476913
      8          1           0        2.124487   -2.856658    1.521218
      9          1           0        3.399482   -2.255296    2.591569
     10          1           0        3.732293   -3.600379    1.487352
     11          6           0        3.308467    0.704396   -0.426368
     12          6           0        2.577674    2.042229   -0.307496
     13          6           0        3.003962    3.045961   -1.379220
     14          1           0        4.391179    0.878532   -0.357046
     15          1           0        3.123357    0.279972   -1.422633
     16          1           0        2.764389    2.463426    0.688670
     17          1           0        1.496597    1.865461   -0.375634
     18          1           0        2.802034    2.650180   -2.379812
     19          1           0        4.077029    3.251542   -1.309460
     20          1           0        2.469222    3.995263   -1.275595
     21          6           0       -3.382793    1.659225    1.385274
     22          6           0       -1.997618    1.547877    1.225868
     23          6           0       -1.454429    0.546938    0.414932
     24          6           0       -2.329626   -0.329572   -0.224638
     25          6           0       -3.714089   -0.244388   -0.085725
     26          6           0       -4.235106    0.764315    0.730123
     27          1           0       -3.796144    2.439794    2.017136
     28          1           0       -1.333295    2.241479    1.733448
     29          1           0       -0.385935    0.438012    0.273960
     30          1           0       -4.350964   -0.950529   -0.604544
     31          1           0       -5.311257    0.848408    0.852079
     32          7           0       -1.766312   -1.393330   -1.085740
     33          8           0       -2.558770   -2.153104   -1.638363
     34          8           0       -0.542998   -1.447187   -1.191743
 ---------------------------------------------------------------------

 SCF Done:  E(RHF) =  -669.535632871     A.U. after   15 cycles
 E2 =    -0.2092718554D+01 EUMP2 =    -0.67162835142495D+03

 The electronic state is 1-A.
 Alpha  occ. eigenvalues --  -20.60888 -20.60875 -15.85924 -11.31225 -11.27794
 Alpha  occ. eigenvalues --  -11.27751 -11.27525 -11.26803 -11.26780 -11.21841
 Alpha  occ. eigenvalues --  -11.21234 -11.21174 -11.21173 -11.21118 -11.20601
 Alpha  occ. eigenvalues --   -1.59951  -1.39508  -1.19396  -1.08804  -1.08277
 Alpha  occ. eigenvalues --   -1.04790  -1.03366  -0.95800  -0.95648  -0.86825
 Alpha  occ. eigenvalues --   -0.86196  -0.82482  -0.79485  -0.78146  -0.77499
 Alpha  occ. eigenvalues --   -0.72151  -0.71267  -0.70520  -0.65075  -0.65027
 Alpha  occ. eigenvalues --   -0.64650  -0.62134  -0.60742  -0.59205  -0.57425
 Alpha  occ. eigenvalues --   -0.55308  -0.55051  -0.53123  -0.52907  -0.52518
 Alpha  occ. eigenvalues --   -0.52230  -0.49752  -0.48905  -0.48896  -0.47790
 Alpha  occ. eigenvalues --   -0.46504  -0.45608  -0.45470  -0.44905  -0.43618
 Alpha  occ. eigenvalues --   -0.37377  -0.36384
 Alpha virt. eigenvalues --    0.04954   0.11223   0.16470   0.20112   0.23208
 Alpha virt. eigenvalues --    0.24434   0.25031   0.27091   0.27760   0.28176
 Alpha virt. eigenvalues --    0.29720   0.31319   0.31518   0.31952   0.32249

 Mulliken charges:
               1
     1  C   -0.309015
     2  C   -0.298457
     3  C   -0.477289
     4  H    0.143751
     5  H    0.159633
     6  H    0.149014
     7  H    0.161319
     8  H    0.161155
     9  H    0.150380
    10  H    0.160294
    11  C   -0.298301
    12  C   -0.303235
    13  C   -0.475195
    14  H    0.149221
    15  H    0.158983
    16  H    0.148546
    17  H    0.144457
    18  H    0.159691
    19  H    0.156599
    20  H    0.157516
    21  C   -0.170275
    22  C   -0.224322
    23  C   -0.181829
    24  C    0.156243
    25  C   -0.169546
    26  C   -0.219054
    27  H    0.225862
    28  H    0.225036
    29  H    0.296202
    30  H    0.275614
    31  H    0.223619
    32  N    0.487548
    33  O   -0.459165
    34  O   -0.465001
 Sum of Mulliken charges =  -0.00000

 Dipole moment (field-independent basis, Debye):
    X=             -1.9927    Y=              3.6278    Z=              2.8980  Tot=              5.0528
 Quadrupole moment (field-independent basis, Debye-Ang):
   XX=            -80.5995   YY=            -97.9363   ZZ=            -96.8393
   XY=             -6.6197   XZ=             -5.6140   YZ=             -0.5127

 Normal termination of Gaussian 16 at Thu May  6 12:10:46 2021.
