 Gaussian 16, Revision A.03,
 Gaussian 16:  EM64L-G16RevA.03 25-Dec-2016

 -------------
 #p 6-31g* mp2
 -------------

 ------------------------------------------------------
 Input file generated by CHIRIPA (05-May-2021 14:57:25)
 ------------------------------------------------------
 Symbolic Z-matrix:
 Charge =  0 Multiplicity = 1

                         Standard orientation:
 ---------------------------------------------------------------------
 Center     Atomic      Atomic             Coordinates (Angstroms)
 Number     Number       Type             X           Y           Z
 ---------------------------------------------------------------------
      1          6           0       -4.027224   -1.995883    0.640025
      2          6           0       -4.804332   -0.896179    0.261509
      3          6           0       -4.201530    0.256630   -0.250556
      4          6           0       -2.812859    0.275522   -0.371076
      5          6           0       -2.011401   -0.803938   -0.002672
      6          6           0       -2.635692   -1.946340    0.506961
      7          1           0       -4.503841   -2.887371    1.036865
      8          1           0       -5.885222   -0.931836    0.363733
      9          1           0       -4.779136    1.122281   -0.551285
     10          1           0       -0.936113   -0.738699   -0.116322
     11          1           0       -2.029664   -2.798887    0.800115
     12          7           0       -2.163325    1.490441   -0.911889
     13          8           0       -0.938050    1.482015   -1.008148
     14          8           0       -2.891795    2.428115   -1.229278
     15          6           0        1.630267    1.211502    2.027484
     16          6           0        1.215456   -0.071315    1.654880
     17          6           0        1.922372   -0.793481    0.688808
     18          6           0        3.044588   -0.199690    0.113191
     19          6           0        3.482900    1.076489    0.463242
     20          6           0        2.760672    1.780307    1.431525
     21          1           0        1.075169    1.765372    2.778811
     22          1           0        0.337941   -0.515560    2.116030
     23          1           0        1.623321   -1.788290    0.381659
     24          1           0        4.361582    1.492950   -0.014144
     25          1           0        3.085133    2.776382    1.718935
     26          7           0        3.801073   -0.954504   -0.910717
     27          8           0        4.786427   -0.409098   -1.402903
     28          8           0        3.394330   -2.077239   -1.201682
 ---------------------------------------------------------------------

 SCF Done:  E(RHF) =  -868.336378181     A.U. after   16 cycles
 E2 =    -0.2602311063D+01 EUMP2 =    -0.87093868924406D+03

 The electronic state is 1-A.
 Alpha  occ. eigenvalues --  -20.61142 -20.61121 -20.60591 -20.60572 -15.86185
 Alpha  occ. eigenvalues --  -15.85640 -11.31641 -11.30990 -11.28211 -11.28188
 Alpha  occ. eigenvalues --  -11.27970 -11.27675 -11.27493 -11.27288 -11.27262
 Alpha  occ. eigenvalues --  -11.27222 -11.26663 -11.26492  -1.60214  -1.59656
 Alpha  occ. eigenvalues --   -1.39761  -1.39214  -1.19831  -1.19146  -1.09199
 Alpha  occ. eigenvalues --   -1.08533  -1.05268  -1.04596  -0.96021  -0.95388
 Alpha  occ. eigenvalues --   -0.86641  -0.85984  -0.82862  -0.82262  -0.77919
 Alpha  occ. eigenvalues --   -0.77297  -0.72403  -0.71868  -0.71548  -0.70974
 Alpha  occ. eigenvalues --   -0.70927  -0.70274  -0.65479  -0.65286  -0.64829
 Alpha  occ. eigenvalues --   -0.64631  -0.62704  -0.61864  -0.55728  -0.55059
 Alpha  occ. eigenvalues --   -0.53593  -0.53442  -0.52740  -0.52658  -0.49175
 Alpha  occ. eigenvalues --   -0.49148  -0.48627  -0.48612  -0.45148  -0.44627
 Alpha  occ. eigenvalues --   -0.37805  -0.37070  -0.36853  -0.36103
 Alpha virt. eigenvalues --    0.04606   0.05220   0.10613   0.11645   0.16031
 Alpha virt. eigenvalues --    0.16623   0.20168   0.22026   0.25660   0.27681
 Alpha virt. eigenvalues --    0.28061   0.29775   0.30587   0.31082   0.32204

 Mulliken charges:
               1
     1  C   -0.169922
     2  C   -0.218842
     3  C   -0.169876
     4  C    0.154792
     5  C   -0.179137
     6  C   -0.223896
     7  H    0.227404
     8  H    0.225193
     9  H    0.276891
    10  H    0.283910
    11  H    0.222226
    12  N    0.486297
    13  O   -0.457985
    14  O   -0.460290
    15  C   -0.163462
    16  C   -0.216481
    17  C   -0.175382
    18  C    0.162659
    19  C   -0.167627
    20  C   -0.214128
    21  H    0.225944
    22  H    0.217873
    23  H    0.266931
    24  H    0.276369
    25  H    0.224921
    26  N    0.488493
    27  O   -0.458833
    28  O   -0.464042
 Sum of Mulliken charges =  -0.00000

 Dipole moment (field-independent basis, Debye):
    X=             -4.9021    Y=             -1.3249    Z=              5.4738  Tot=              7.4665
 Quadrupole moment (field-independent basis, Debye-Ang):
   XX=           -101.7633   YY=           -105.1241   ZZ=           -106.9145
   XY=             21.4762   XZ=              6.4311   YZ=              1.2799

 Normal termination of Gaussian 16 at Fri May  7 06:32:16 2021.
