 Gaussian 16, Revision A.03,
 Gaussian 16:  EM64L-G16RevA.03 25-Dec-2016

 -------------
 #p 6-31g* mp2
 -------------

 ------------------------------------------------------
 Input file generated by CHIRIPA (05-May-2021 14:51:13)
 ------------------------------------------------------
 Symbolic Z-matrix:
 Charge =  0 Multiplicity = 1

                         Standard orientation:
 ---------------------------------------------------------------------
 Center     Atomic      Atomic             Coordinates (Angstroms)
 Number     Number       Type             X           Y           Z
 ---------------------------------------------------------------------
      1          6           0       -2.922229   -0.660220    0.648292
      2          6           0       -1.492580   -0.751363    0.113705
      3          6           0       -0.503010   -1.269728    1.157660
      4          1           0       -2.936747   -0.002179    1.527904
      5          1           0       -3.240473   -1.653021    0.995368
      6          1           0       -1.177623    0.241030   -0.233535
      7          1           0       -1.481498   -1.409111   -0.764851
      8          1           0       -0.790127   -2.270133    1.497299
      9          1           0       -0.484526   -0.610616    2.031634
     10          1           0        0.512823   -1.326930    0.754333
     11          6           0       -3.923126   -0.143614   -0.383721
     12          6           0       -5.352775   -0.052471    0.150866
     13          6           0       -6.342345    0.465894   -0.893089
     14          1           0       -3.604882    0.849187   -0.730797
     15          1           0       -3.908608   -0.801655   -1.263333
     16          1           0       -5.363857    0.605277    1.029422
     17          1           0       -5.667732   -1.044864    0.498106
     18          1           0       -6.360829   -0.193218   -1.767063
     19          1           0       -6.055228    1.466299   -1.232728
     20          1           0       -7.358178    0.523096   -0.489761
     21          6           0        3.041488    0.929987    0.266799
     22          6           0        3.030009    2.304671   -0.402601
     23          6           0        2.263586    3.350433    0.407814
     24          1           0        2.006462    0.593507    0.416617
     25          1           0        3.488568    1.020393    1.266470
     26          1           0        2.584345    2.211444   -1.401255
     27          1           0        4.065186    2.637833   -0.551016
     28          1           0        2.710736    3.472780    1.399625
     29          1           0        1.221482    3.043969    0.544556
     30          1           0        2.268023    4.325647   -0.088977
     31          6           0        3.803867   -0.126153   -0.531371
     32          6           0        3.815347   -1.500837    0.138030
     33          6           0        4.581768   -2.546599   -0.672385
     34          1           0        3.356788   -0.216559   -1.531041
     35          1           0        4.838894    0.210327   -0.681188
     36          1           0        2.780170   -1.833999    0.286446
     37          1           0        4.261010   -1.407610    1.136684
     38          1           0        5.623873   -2.240135   -0.809126
     39          1           0        4.134619   -2.668946   -1.664197
     40          1           0        4.577331   -3.521812   -0.175595
 ---------------------------------------------------------------------

 SCF Done:  E(RHF) =  -470.732814376     A.U. after   11 cycles
 E2 =    -0.1583443349D+01 EUMP2 =    -0.47231625772550D+03

 The electronic state is 1-A.
 Alpha  occ. eigenvalues --  -11.21671 -11.21624 -11.21595 -11.21588 -11.21443
 Alpha  occ. eigenvalues --  -11.21382 -11.21381 -11.21309 -11.21093 -11.21088
 Alpha  occ. eigenvalues --  -11.21078 -11.21067  -1.08476  -1.08417  -1.03573
 Alpha  occ. eigenvalues --   -1.03525  -0.96031  -0.95963  -0.87040  -0.86990
 Alpha  occ. eigenvalues --   -0.79651  -0.79578  -0.78282  -0.78234  -0.65142
 Alpha  occ. eigenvalues --   -0.65050  -0.61007  -0.60898  -0.59445  -0.59298
 Alpha  occ. eigenvalues --   -0.57671  -0.57553  -0.55342  -0.55221  -0.52818
 Alpha  occ. eigenvalues --   -0.52614  -0.52444  -0.52395  -0.49986  -0.49888
 Alpha  occ. eigenvalues --   -0.48015  -0.47871  -0.46667  -0.46626  -0.45822
 Alpha  occ. eigenvalues --   -0.45760  -0.45747  -0.45664  -0.43799  -0.43704
 Alpha virt. eigenvalues --    0.20691   0.23088   0.23747   0.24230   0.26263
 Alpha virt. eigenvalues --    0.26627   0.27033   0.27448   0.27983   0.29008
 Alpha virt. eigenvalues --    0.30034   0.31443   0.31693   0.31948   0.32099

 Mulliken charges:
               1
     1  C   -0.298583
     2  C   -0.300304
     3  C   -0.485983
     4  H    0.149935
     5  H    0.149860
     6  H    0.151622
     7  H    0.151979
     8  H    0.155691
     9  H    0.155897
    10  H    0.169497
    11  C   -0.298260
    12  C   -0.299693
    13  C   -0.475736
    14  H    0.149533
    15  H    0.149661
    16  H    0.152064
    17  H    0.151992
    18  H    0.155185
    19  H    0.155244
    20  H    0.160358
    21  C   -0.305570
    22  C   -0.299219
    23  C   -0.475649
    24  H    0.157712
    25  H    0.149373
    26  H    0.151756
    27  H    0.151882
    28  H    0.155283
    29  H    0.154567
    30  H    0.160200
    31  C   -0.297935
    32  C   -0.307086
    33  C   -0.475153
    34  H    0.149131
    35  H    0.149720
    36  H    0.158092
    37  H    0.152314
    38  H    0.155252
    39  H    0.155038
    40  H    0.160333
 Sum of Mulliken charges =  -0.00000

 Dipole moment (field-independent basis, Debye):
    X=             -0.0128    Y=             -0.0133    Z=              0.0141  Tot=              0.0232
 Quadrupole moment (field-independent basis, Debye-Ang):
   XX=            -84.9763   YY=            -84.6985   ZZ=            -85.0824
   XY=              1.1237   XZ=              0.2208   YZ=              0.2531

 Normal termination of Gaussian 16 at Thu May  6 03:58:06 2021.
