 Gaussian 16, Revision A.03,
 Gaussian 16:  EM64L-G16RevA.03 25-Dec-2016

 -------------
 #p 6-31g* mp2
 -------------

 ------------------------------------------------------
 Input file generated by CHIRIPA (05-May-2021 14:51:12)
 ------------------------------------------------------
 Symbolic Z-matrix:
 Charge =  0 Multiplicity = 1

                         Standard orientation:
 ---------------------------------------------------------------------
 Center     Atomic      Atomic             Coordinates (Angstroms)
 Number     Number       Type             X           Y           Z
 ---------------------------------------------------------------------
      1          6           0        3.495703    0.059494   -0.232497
      2          6           0        4.853846   -0.174381   -0.894867
      3          6           0        5.455577    1.104836   -1.477378
      4          1           0        2.804124    0.488791   -0.970309
      5          1           0        3.607942    0.808556    0.563559
      6          1           0        4.739350   -0.923797   -1.688518
      7          1           0        5.542217   -0.603350   -0.155444
      8          1           0        5.598511    1.855198   -0.693077
      9          1           0        4.791082    1.532930   -2.234862
     10          1           0        6.426220    0.914729   -1.945964
     11          6           0        2.881367   -1.210016    0.354586
     12          6           0        1.523224   -0.976141    1.016956
     13          6           0        0.921493   -2.255358    1.599467
     14          1           0        2.769128   -1.959078   -0.441469
     15          1           0        3.572946   -1.639313    1.092398
     16          1           0        0.834853   -0.547172    0.277533
     17          1           0        1.637721   -0.226725    1.810607
     18          1           0        1.585988   -2.683452    2.356951
     19          1           0        0.778559   -3.005720    0.815166
     20          1           0       -0.049149   -2.065251    2.068053
     21          6           0       -2.490983    0.885960   -0.078906
     22          6           0       -2.160436    1.706250    1.168430
     23          6           0       -0.761573    2.321408    1.117843
     24          1           0       -1.742819    0.089954   -0.195401
     25          1           0       -2.404002    1.528892   -0.965737
     26          1           0       -2.249360    1.062314    2.052768
     27          1           0       -2.909584    2.500277    1.282075
     28          1           0       -0.664046    2.986054    0.253357
     29          1           0       -0.000072    1.539920    1.028429
     30          1           0       -0.546131    2.903476    2.019308
     31          6           0       -3.886087    0.264562   -0.043183
     32          6           0       -4.216635   -0.555729   -1.290519
     33          6           0       -5.615497   -1.170886   -1.239932
     34          1           0       -3.973067   -0.378370    0.843647
     35          1           0       -4.634251    1.060568    0.073311
     36          1           0       -3.467487   -1.349756   -1.404165
     37          1           0       -4.127709    0.088208   -2.174858
     38          1           0       -6.376998   -0.389398   -1.150518
     39          1           0       -5.713024   -1.835532   -0.375446
     40          1           0       -5.830939   -1.752954   -2.141398
 ---------------------------------------------------------------------

 SCF Done:  E(RHF) =  -470.732618792     A.U. after   11 cycles
 E2 =    -0.1583710778D+01 EUMP2 =    -0.47231632957086D+03

 The electronic state is 1-A.
 Alpha  occ. eigenvalues --  -11.21680 -11.21618 -11.21595 -11.21537 -11.21447
 Alpha  occ. eigenvalues --  -11.21386 -11.21381 -11.21326 -11.21166 -11.21075
 Alpha  occ. eigenvalues --  -11.21065 -11.20870  -1.08490  -1.08394  -1.03605
 Alpha  occ. eigenvalues --   -1.03466  -0.96029  -0.95926  -0.87057  -0.86936
 Alpha  occ. eigenvalues --   -0.79752  -0.79485  -0.78358  -0.78155  -0.65152
 Alpha  occ. eigenvalues --   -0.65001  -0.61022  -0.60882  -0.59423  -0.59267
 Alpha  occ. eigenvalues --   -0.57656  -0.57526  -0.55317  -0.55220  -0.52736
 Alpha  occ. eigenvalues --   -0.52615  -0.52484  -0.52326  -0.49974  -0.49917
 Alpha  occ. eigenvalues --   -0.48176  -0.47719  -0.46766  -0.46571  -0.45996
 Alpha  occ. eigenvalues --   -0.45748  -0.45715  -0.45302  -0.43828  -0.43741
 Alpha virt. eigenvalues --    0.20851   0.23112   0.23737   0.24984   0.25802
 Alpha virt. eigenvalues --    0.26285   0.26813   0.27546   0.28541   0.29152
 Alpha virt. eigenvalues --    0.30610   0.30920   0.31569   0.31899   0.32315

 Mulliken charges:
               1
     1  C   -0.299199
     2  C   -0.299601
     3  C   -0.475737
     4  H    0.150263
     5  H    0.150062
     6  H    0.151932
     7  H    0.151958
     8  H    0.155380
     9  H    0.155359
    10  H    0.160259
    11  C   -0.297146
    12  C   -0.309063
    13  C   -0.475492
    14  H    0.149548
    15  H    0.149816
    16  H    0.157804
    17  H    0.154612
    18  H    0.155850
    19  H    0.155299
    20  H    0.160064
    21  C   -0.302744
    22  C   -0.298583
    23  C   -0.485349
    24  H    0.152933
    25  H    0.149304
    26  H    0.151014
    27  H    0.151580
    28  H    0.153808
    29  H    0.167218
    30  H    0.158807
    31  C   -0.297965
    32  C   -0.299659
    33  C   -0.475687
    34  H    0.149395
    35  H    0.149787
    36  H    0.151769
    37  H    0.151801
    38  H    0.155196
    39  H    0.155243
    40  H    0.160163
 Sum of Mulliken charges =  -0.00000

 Dipole moment (field-independent basis, Debye):
    X=              0.0609    Y=             -0.0374    Z=             -0.0026  Tot=              0.0715
 Quadrupole moment (field-independent basis, Debye-Ang):
   XX=            -85.6999   YY=            -85.1366   ZZ=            -84.0240
   XY=             -1.1571   XZ=              0.7994   YZ=              0.0633

 Normal termination of Gaussian 16 at Thu May  6 00:44:41 2021.
