 Gaussian 16, Revision A.03,
 Gaussian 16:  EM64L-G16RevA.03 25-Dec-2016

 -------------
 #p 6-31g* mp2
 -------------

 ------------------------------------------------------
 Input file generated by CHIRIPA (05-May-2021 14:55:23)
 ------------------------------------------------------
 Symbolic Z-matrix:
 Charge =  0 Multiplicity = 1

                         Standard orientation:
 ---------------------------------------------------------------------
 Center     Atomic      Atomic             Coordinates (Angstroms)
 Number     Number       Type             X           Y           Z
 ---------------------------------------------------------------------
      1          6           0       -3.416387    2.095937    0.071719
      2          6           0       -2.233337    1.892087    0.789604
      3          6           0       -1.627462    0.632436    0.816866
      4          6           0       -2.234546   -0.405649    0.111798
      5          6           0       -3.413116   -0.234076   -0.612650
      6          6           0       -4.001469    1.034077   -0.625886
      7          1           0       -3.880240    3.077767    0.055989
      8          1           0       -1.776721    2.714903    1.332300
      9          1           0       -0.711468    0.446802    1.364508
     10          1           0       -3.844756   -1.073668   -1.143866
     11          1           0       -4.920230    1.189474   -1.184256
     12          7           0       -1.602408   -1.743686    0.133236
     13          8           0       -2.157120   -2.641888   -0.496179
     14          8           0       -0.564195   -1.868900    0.779047
     15          6           0        2.802063   -0.441868   -0.431753
     16          6           0        3.291911   -1.623905    0.405399
     17          6           0        2.901031   -2.975098   -0.194005
     18          1           0        1.709364   -0.498496   -0.530471
     19          1           0        3.212452   -0.525912   -1.447583
     20          1           0        2.881838   -1.536914    1.419740
     21          1           0        4.383551   -1.564349    0.502296
     22          1           0        3.322808   -3.087648   -1.198016
     23          1           0        1.812562   -3.060057   -0.275359
     24          1           0        3.261210   -3.806142    0.420405
     25          6           0        3.185084    0.915786    0.154593
     26          6           0        2.695237    2.097823   -0.682558
     27          6           0        3.086117    3.449017   -0.083154
     28          1           0        2.774695    0.999831    1.170424
     29          1           0        4.277783    0.972415    0.253312
     30          1           0        1.603596    2.038268   -0.779456
     31          1           0        3.105309    2.010833   -1.696900
     32          1           0        4.174585    3.533976   -0.001800
     33          1           0        2.664339    3.561567    0.920856
     34          1           0        2.725937    4.280059   -0.697563
 ---------------------------------------------------------------------

 SCF Done:  E(RHF) =  -669.536735297     A.U. after   15 cycles
 E2 =    -0.2092731762D+01 EUMP2 =    -0.67162946705894D+03

 The electronic state is 1-A.
 Alpha  occ. eigenvalues --  -20.61132 -20.61121 -15.86126 -11.31390 -11.27947
 Alpha  occ. eigenvalues --  -11.27937 -11.27662 -11.26937 -11.26927 -11.21539
 Alpha  occ. eigenvalues --  -11.21176 -11.21066 -11.20620 -11.20548 -11.19601
 Alpha  occ. eigenvalues --   -1.60170  -1.39729  -1.19549  -1.08965  -1.07908
 Alpha  occ. eigenvalues --   -1.04935  -1.02913  -0.95817  -0.95366  -0.86387
 Alpha  occ. eigenvalues --   -0.86336  -0.82654  -0.79081  -0.77743  -0.77587
 Alpha  occ. eigenvalues --   -0.72360  -0.71473  -0.70654  -0.65213  -0.64940
 Alpha  occ. eigenvalues --   -0.64535  -0.62279  -0.60285  -0.58854  -0.56956
 Alpha  occ. eigenvalues --   -0.55440  -0.54652  -0.53265  -0.53020  -0.52084
 Alpha  occ. eigenvalues --   -0.51789  -0.49501  -0.49107  -0.48912  -0.47353
 Alpha  occ. eigenvalues --   -0.46134  -0.45541  -0.45133  -0.44590  -0.43183
 Alpha  occ. eigenvalues --   -0.37519  -0.36527
 Alpha virt. eigenvalues --    0.04752   0.11076   0.16219   0.20468   0.22945
 Alpha virt. eigenvalues --    0.24938   0.26267   0.27568   0.27861   0.28492
 Alpha virt. eigenvalues --    0.29038   0.30987   0.32002   0.32097   0.32614

 Mulliken charges:
               1
     1  C   -0.170288
     2  C   -0.218740
     3  C   -0.171894
     4  C    0.157974
     5  C   -0.170408
     6  C   -0.218432
     7  H    0.226565
     8  H    0.224816
     9  H    0.276899
    10  H    0.276111
    11  H    0.224268
    12  N    0.488834
    13  O   -0.457076
    14  O   -0.459764
    15  C   -0.301635
    16  C   -0.294808
    17  C   -0.485112
    18  H    0.155848
    19  H    0.146336
    20  H    0.153968
    21  H    0.144958
    22  H    0.146698
    23  H    0.182311
    24  H    0.155711
    25  C   -0.297717
    26  C   -0.299584
    27  C   -0.474678
    28  H    0.143882
    29  H    0.149498
    30  H    0.146760
    31  H    0.153497
    32  H    0.157175
    33  H    0.150056
    34  H    0.157971
 Sum of Mulliken charges =  -0.00000

 Dipole moment (field-independent basis, Debye):
    X=             -2.5625    Y=              4.5674    Z=             -0.0736  Tot=              5.2376
 Quadrupole moment (field-independent basis, Debye-Ang):
   XX=            -82.3165   YY=            -99.7092   ZZ=            -93.5605
   XY=             -8.4910   XZ=              1.9691   YZ=              1.3885

 Normal termination of Gaussian 16 at Thu May  6 20:50:22 2021.
