 Gaussian 16, Revision A.03,
 Gaussian 16:  EM64L-G16RevA.03 25-Dec-2016

 -------------
 #p 6-31g* mp2
 -------------

 ------------------------------------------------------
 Input file generated by CHIRIPA (05-May-2021 14:53:15)
 ------------------------------------------------------
 Symbolic Z-matrix:
 Charge =  0 Multiplicity = 1

                         Standard orientation:
 ---------------------------------------------------------------------
 Center     Atomic      Atomic             Coordinates (Angstroms)
 Number     Number       Type             X           Y           Z
 ---------------------------------------------------------------------
      1          6           0        4.692031    0.258015   -0.432823
      2          6           0        6.114953    0.651501   -0.034770
      3          6           0        6.833236    1.451191   -1.122133
      4          1           0        4.726876   -0.330240   -1.360016
      5          1           0        4.117895    1.166791   -0.660615
      6          1           0        6.685836   -0.257666    0.193540
      7          1           0        6.076732    1.238724    0.891687
      8          1           0        6.288315    2.374239   -1.344943
      9          1           0        6.900880    0.869347   -2.047056
     10          1           0        7.848716    1.722025   -0.816668
     11          6           0        3.961021   -0.541919    0.643959
     12          6           0        2.538099   -0.935405    0.245905
     13          6           0        1.819816   -1.735095    1.333269
     14          1           0        4.535157   -1.450695    0.871750
     15          1           0        3.926176    0.046336    1.571152
     16          1           0        2.576320   -1.522629   -0.680552
     17          1           0        1.967216   -0.026239    0.017595
     18          1           0        1.752172   -1.153251    2.258192
     19          1           0        2.364737   -2.658143    1.556078
     20          1           0        0.804336   -2.005930    1.027804
     21          6           0       -4.024321    2.500354    0.408860
     22          6           0       -4.853624    1.700755   -0.384499
     23          6           0       -4.506659    0.375439   -0.663251
     24          6           0       -3.317818   -0.120104   -0.129975
     25          6           0       -2.470610    0.651492    0.663857
     26          6           0       -2.837553    1.974099    0.929588
     27          1           0       -4.301611    3.528839    0.620343
     28          1           0       -5.775879    2.106791   -0.790240
     29          1           0       -5.130190   -0.265700   -1.274451
     30          1           0       -1.557532    0.218689    1.054227
     31          1           0       -2.191567    2.592759    1.546034
     32          7           0       -2.939926   -1.521721   -0.418185
     33          8           0       -1.887260   -1.934617    0.063531
     34          8           0       -3.703556   -2.180875   -1.120341
 ---------------------------------------------------------------------

 SCF Done:  E(RHF) =  -669.536149303     A.U. after   15 cycles
 E2 =    -0.2090908484D+01 EUMP2 =    -0.67162705778696D+03

 The electronic state is 1-A.
 Alpha  occ. eigenvalues --  -20.60899 -20.60888 -15.85945 -11.31257 -11.27823
 Alpha  occ. eigenvalues --  -11.27815 -11.27564 -11.26832 -11.26822 -11.21449
 Alpha  occ. eigenvalues --  -11.21172 -11.21144 -11.21047 -11.20961 -11.20302
 Alpha  occ. eigenvalues --   -1.59963  -1.39519  -1.19428  -1.08833  -1.08141
 Alpha  occ. eigenvalues --   -1.04824  -1.03185  -0.95690  -0.95605  -0.86636
 Alpha  occ. eigenvalues --   -0.86225  -0.82512  -0.79261  -0.77951  -0.77563
 Alpha  occ. eigenvalues --   -0.72175  -0.71278  -0.70538  -0.65086  -0.64833
 Alpha  occ. eigenvalues --   -0.64781  -0.62173  -0.60602  -0.58976  -0.57201
 Alpha  occ. eigenvalues --   -0.55331  -0.54933  -0.53157  -0.52917  -0.52258
 Alpha  occ. eigenvalues --   -0.52035  -0.49594  -0.48919  -0.48909  -0.47554
 Alpha  occ. eigenvalues --   -0.46325  -0.45486  -0.45432  -0.44933  -0.43413
 Alpha  occ. eigenvalues --   -0.37409  -0.36426
 Alpha virt. eigenvalues --    0.04968   0.11226   0.16467   0.20897   0.23005
 Alpha virt. eigenvalues --    0.24094   0.26706   0.27151   0.27610   0.27831
 Alpha virt. eigenvalues --    0.29108   0.30853   0.31642   0.31871   0.32163

 Mulliken charges:
               1
     1  C   -0.297641
     2  C   -0.299273
     3  C   -0.475440
     4  H    0.150642
     5  H    0.146952
     6  H    0.152384
     7  H    0.150517
     8  H    0.153932
     9  H    0.155646
    10  H    0.159595
    11  C   -0.297541
    12  C   -0.297264
    13  C   -0.490488
    14  H    0.150139
    15  H    0.146311
    16  H    0.155606
    17  H    0.144471
    18  H    0.145410
    19  H    0.154605
    20  H    0.189109
    21  C   -0.170536
    22  C   -0.218638
    23  C   -0.170811
    24  C    0.157706
    25  C   -0.171554
    26  C   -0.218958
    27  H    0.225852
    28  H    0.223685
    29  H    0.275726
    30  H    0.277985
    31  H    0.223801
    32  N    0.495603
    33  O   -0.468281
    34  O   -0.459250
 Sum of Mulliken charges =  -0.00000

 Dipole moment (field-independent basis, Debye):
    X=             -1.5151    Y=              4.8392    Z=              0.9559  Tot=              5.1601
 Quadrupole moment (field-independent basis, Debye-Ang):
   XX=            -83.3713   YY=            -95.8549   ZZ=            -94.6831
   XY=            -16.8441   XZ=             -0.4347   YZ=              0.4639

 Normal termination of Gaussian 16 at Wed May  5 20:16:10 2021.
