 Gaussian 16, Revision A.03,
 Gaussian 16:  EM64L-G16RevA.03 25-Dec-2016

 -------------
 #p 6-31g* mp2
 -------------

 ------------------------------------------------------
 Input file generated by CHIRIPA (05-May-2021 14:55:19)
 ------------------------------------------------------
 Symbolic Z-matrix:
 Charge =  0 Multiplicity = 1

                         Standard orientation:
 ---------------------------------------------------------------------
 Center     Atomic      Atomic             Coordinates (Angstroms)
 Number     Number       Type             X           Y           Z
 ---------------------------------------------------------------------
      1          6           0       -2.106228    2.295140    0.332815
      2          6           0       -1.682935    1.071168    0.861242
      3          6           0       -2.466404   -0.076732    0.709419
      4          6           0       -3.672990    0.035949    0.020403
      5          6           0       -4.121959    1.241075   -0.517545
      6          6           0       -3.322245    2.376045   -0.353682
      7          1           0       -1.491301    3.181834    0.455431
      8          1           0       -0.739019    1.005370    1.394851
      9          1           0       -2.162732   -1.036949    1.108397
     10          1           0       -5.067737    1.275408   -1.044558
     11          1           0       -3.653499    3.325271   -0.765126
     12          7           0       -4.511012   -1.172437   -0.146699
     13          8           0       -5.569933   -1.046775   -0.757872
     14          8           0       -4.093065   -2.222350    0.336664
     15          6           0        5.098570    0.202204   -0.031609
     16          6           0        6.472050   -0.430626   -0.257581
     17          6           0        7.610052    0.588608   -0.195083
     18          1           0        4.933879    0.984477   -0.785182
     19          1           0        5.089892    0.703368    0.946222
     20          1           0        6.477689   -0.931628   -1.234096
     21          1           0        6.633411   -1.211614    0.496499
     22          1           0        7.633047    1.080894    0.782530
     23          1           0        7.476440    1.362470   -0.957898
     24          1           0        8.582865    0.114756   -0.359281
     25          6           0        3.950707   -0.804074   -0.091125
     26          6           0        2.577226   -0.171243    0.134847
     27          6           0        1.439224   -1.190478    0.072349
     28          1           0        3.959385   -1.305238   -1.068956
     29          1           0        4.115398   -1.586346    0.662448
     30          1           0        2.415866    0.609744   -0.619233
     31          1           0        2.571588    0.329758    1.111362
     32          1           0        1.572837   -1.964339    0.835164
     33          1           0        1.416231   -1.682763   -0.905264
     34          1           0        0.466412   -0.716625    0.236547
 ---------------------------------------------------------------------

 SCF Done:  E(RHF) =  -669.534885433     A.U. after   15 cycles
 E2 =    -0.2091992374D+01 EUMP2 =    -0.67162687780680D+03

 The electronic state is 1-A.
 Alpha  occ. eigenvalues --  -20.60761 -20.60755 -15.85815 -11.31200 -11.27779
 Alpha  occ. eigenvalues --  -11.27765 -11.27517 -11.26794 -11.26767 -11.22261
 Alpha  occ. eigenvalues --  -11.21937 -11.21866 -11.21785 -11.21640 -11.21371
 Alpha  occ. eigenvalues --   -1.59836  -1.39388  -1.19383  -1.08899  -1.08769
 Alpha  occ. eigenvalues --   -1.04801  -1.04004  -0.96447  -0.95600  -0.87466
 Alpha  occ. eigenvalues --   -0.86181  -0.82441  -0.80078  -0.78701  -0.77484
 Alpha  occ. eigenvalues --   -0.72033  -0.71159  -0.70483  -0.65524  -0.65041
 Alpha  occ. eigenvalues --   -0.64809  -0.62223  -0.61392  -0.59801  -0.58060
 Alpha  occ. eigenvalues --   -0.55709  -0.55281  -0.53411  -0.52990  -0.52949
 Alpha  occ. eigenvalues --   -0.52628  -0.50367  -0.48794  -0.48786  -0.48387
 Alpha  occ. eigenvalues --   -0.47106  -0.46242  -0.46158  -0.44790  -0.44266
 Alpha  occ. eigenvalues --   -0.37358  -0.36346
 Alpha virt. eigenvalues --    0.05023   0.11237   0.16363   0.20538   0.22580
 Alpha virt. eigenvalues --    0.23913   0.26059   0.26463   0.26943   0.28083
 Alpha virt. eigenvalues --    0.28823   0.30225   0.30983   0.31470   0.32246

 Mulliken charges:
               1
     1  C   -0.172207
     2  C   -0.219778
     3  C   -0.169611
     4  C    0.157599
     5  C   -0.170893
     6  C   -0.218689
     7  H    0.226045
     8  H    0.226729
     9  H    0.277177
    10  H    0.275769
    11  H    0.223563
    12  N    0.488146
    13  O   -0.460521
    14  O   -0.459974
    15  C   -0.298490
    16  C   -0.300077
    17  C   -0.475921
    18  H    0.149362
    19  H    0.148674
    20  H    0.153097
    21  H    0.152863
    22  H    0.155021
    23  H    0.155165
    24  H    0.161570
    25  C   -0.298479
    26  C   -0.300522
    27  C   -0.482907
    28  H    0.152194
    29  H    0.151375
    30  H    0.151879
    31  H    0.146476
    32  H    0.157150
    33  H    0.161631
    34  H    0.156585
 Sum of Mulliken charges =  -0.00000

 Dipole moment (field-independent basis, Debye):
    X=              3.0198    Y=              4.2356    Z=              0.5353  Tot=              5.2294
 Quadrupole moment (field-independent basis, Debye-Ang):
   XX=           -114.8947   YY=            -93.6823   ZZ=            -93.1231
   XY=            -18.5207   XZ=             -0.1885   YZ=             -1.6074

 Normal termination of Gaussian 16 at Thu May  6 12:24:42 2021.
