 Gaussian 16, Revision A.03,
 Gaussian 16:  EM64L-G16RevA.03 25-Dec-2016

 -------------
 #p 6-31g* mp2
 -------------

 ------------------------------------------------------
 Input file generated by CHIRIPA (05-May-2021 14:55:21)
 ------------------------------------------------------
 Symbolic Z-matrix:
 Charge =  0 Multiplicity = 1

                         Standard orientation:
 ---------------------------------------------------------------------
 Center     Atomic      Atomic             Coordinates (Angstroms)
 Number     Number       Type             X           Y           Z
 ---------------------------------------------------------------------
      1          6           0        2.885530   -1.927971   -1.281212
      2          6           0        1.666473   -1.316929   -1.592739
      3          6           0        1.347001   -0.061253   -1.067608
      4          6           0        2.274089    0.557683   -0.230520
      5          6           0        3.496843   -0.025334    0.098499
      6          6           0        3.795221   -1.281363   -0.438074
      7          1           0        3.125510   -2.903547   -1.693590
      8          1           0        0.958077   -1.816754   -2.247258
      9          1           0        0.410463    0.434541   -1.292336
     10          1           0        4.182794    0.497568    0.753833
     11          1           0        4.742713   -1.753521   -0.194414
     12          7           0        1.947044    1.887198    0.331469
     13          8           0        2.780875    2.411669    1.066515
     14          8           0        0.863069    2.379627    0.026268
     15          6           0       -3.696655   -0.449738    0.150334
     16          6           0       -4.067276    0.782012   -0.676358
     17          6           0       -5.504431    0.734594   -1.196099
     18          1           0       -3.836869   -1.350612   -0.462619
     19          1           0       -4.391185   -0.536778    0.997357
     20          1           0       -3.371398    0.867483   -1.520789
     21          1           0       -3.925981    1.680071   -0.061427
     22          1           0       -6.213201    0.673206   -0.363948
     23          1           0       -5.655468   -0.143999   -1.831601
     24          1           0       -5.748171    1.624753   -1.784375
     25          6           0       -2.262999   -0.416985    0.676911
     26          6           0       -1.892378   -1.648733    1.503604
     27          6           0       -0.455224   -1.601316    2.023345
     28          1           0       -1.568469   -0.329944   -0.170112
     29          1           0       -2.122784    0.483889    1.289864
     30          1           0       -2.033674   -2.546793    0.888673
     31          1           0       -2.588256   -1.734205    2.348035
     32          1           0       -0.304187   -0.722723    2.658847
     33          1           0        0.253547   -1.539928    1.191194
     34          1           0       -0.211484   -2.491475    2.611620
 ---------------------------------------------------------------------

 SCF Done:  E(RHF) =  -669.534468746     A.U. after   15 cycles
 E2 =    -0.2094000814D+01 EUMP2 =    -0.67162846956000D+03

 The electronic state is 1-A.
 Alpha  occ. eigenvalues --  -20.60785 -20.60776 -15.85835 -11.31217 -11.27813
 Alpha  occ. eigenvalues --  -11.27788 -11.27573 -11.26838 -11.26823 -11.21585
 Alpha  occ. eigenvalues --  -11.21484 -11.21359 -11.21299 -11.20984 -11.20907
 Alpha  occ. eigenvalues --   -1.59855  -1.39408  -1.19427  -1.08803  -1.08380
 Alpha  occ. eigenvalues --   -1.04841  -1.03455  -0.95907  -0.95636  -0.86925
 Alpha  occ. eigenvalues --   -0.86224  -0.82467  -0.79520  -0.78217  -0.77485
 Alpha  occ. eigenvalues --   -0.72055  -0.71176  -0.70534  -0.65115  -0.65041
 Alpha  occ. eigenvalues --   -0.64789  -0.62188  -0.60872  -0.59276  -0.57532
 Alpha  occ. eigenvalues --   -0.55370  -0.55218  -0.53256  -0.52942  -0.52589
 Alpha  occ. eigenvalues --   -0.52218  -0.49821  -0.48818  -0.48808  -0.47811
 Alpha  occ. eigenvalues --   -0.46544  -0.45735  -0.45648  -0.44782  -0.43719
 Alpha  occ. eigenvalues --   -0.37392  -0.36365
 Alpha virt. eigenvalues --    0.04992   0.11162   0.16462   0.20655   0.23057
 Alpha virt. eigenvalues --    0.24437   0.25224   0.27164   0.27727   0.27912
 Alpha virt. eigenvalues --    0.29559   0.31048   0.31565   0.31840   0.31987

 Mulliken charges:
               1
     1  C   -0.170278
     2  C   -0.219248
     3  C   -0.174998
     4  C    0.162168
     5  C   -0.170550
     6  C   -0.218005
     7  H    0.226103
     8  H    0.223775
     9  H    0.278869
    10  H    0.276003
    11  H    0.223882
    12  N    0.488062
    13  O   -0.460594
    14  O   -0.460133
    15  C   -0.298491
    16  C   -0.298820
    17  C   -0.475787
    18  H    0.145516
    19  H    0.150787
    20  H    0.147993
    21  H    0.158550
    22  H    0.155637
    23  H    0.152770
    24  H    0.161336
    25  C   -0.299039
    26  C   -0.298795
    27  C   -0.483650
    28  H    0.139202
    29  H    0.161164
    30  H    0.146782
    31  H    0.153103
    32  H    0.158870
    33  H    0.160310
    34  H    0.157506
 Sum of Mulliken charges =  -0.00000

 Dipole moment (field-independent basis, Debye):
    X=              1.2154    Y=             -4.5510    Z=             -1.9290  Tot=              5.0902
 Quadrupole moment (field-independent basis, Debye-Ang):
   XX=            -86.5401   YY=           -100.6305   ZZ=            -92.8318
   XY=            -10.5623   XZ=             -3.3608   YZ=              0.7099

 Normal termination of Gaussian 16 at Thu May  6 07:48:18 2021.
