 Gaussian 16, Revision A.03,
 Gaussian 16:  EM64L-G16RevA.03 25-Dec-2016

 -------------
 #p 6-31g* mp2
 -------------

 ------------------------------------------------------
 Input file generated by CHIRIPA (05-May-2021 14:55:24)
 ------------------------------------------------------
 Symbolic Z-matrix:
 Charge =  0 Multiplicity = 1

                         Standard orientation:
 ---------------------------------------------------------------------
 Center     Atomic      Atomic             Coordinates (Angstroms)
 Number     Number       Type             X           Y           Z
 ---------------------------------------------------------------------
      1          6           0       -2.474157    2.149412   -0.202499
      2          6           0       -3.695380    1.974965   -0.861821
      3          6           0       -4.375606    0.755935   -0.785634
      4          6           0       -3.803142   -0.271954   -0.037958
      5          6           0       -2.588040   -0.128976    0.630153
      6          6           0       -1.925353    1.098737    0.540075
      7          1           0       -1.952554    3.099757   -0.267079
      8          1           0       -4.123963    2.789183   -1.439239
      9          1           0       -5.322475    0.593682   -1.286166
     10          1           0       -2.185829   -0.959072    1.198119
     11          1           0       -0.977086    1.231364    1.053150
     12          7           0       -4.513984   -1.567083    0.050051
     13          8           0       -3.988516   -2.457083    0.715198
     14          8           0       -5.583148   -1.667682   -0.547782
     15          6           0        4.031888    0.089879    0.402370
     16          6           0        3.318902    1.435462    0.264382
     17          6           0        1.947416    1.449799    0.940115
     18          1           0        3.400415   -0.698485   -0.029681
     19          1           0        4.145008   -0.149591    1.468791
     20          1           0        3.208396    1.672978   -0.801446
     21          1           0        3.952230    2.220742    0.696641
     22          1           0        2.042838    1.237844    2.009961
     23          1           0        1.294777    0.686968    0.503362
     24          1           0        1.455383    2.421126    0.829262
     25          6           0        5.404238    0.059884   -0.268065
     26          6           0        6.117225   -1.285699   -0.130077
     27          6           0        7.488711   -1.300036   -0.805810
     28          1           0        5.291119    0.299354   -1.334486
     29          1           0        6.035712    0.848248    0.163986
     30          1           0        5.483896   -2.070979   -0.562335
     31          1           0        6.227731   -1.523215    0.935751
     32          1           0        8.141349   -0.537205   -0.369057
     33          1           0        7.393288   -1.088081   -1.875656
     34          1           0        7.980743   -2.271363   -0.694956
 ---------------------------------------------------------------------

 SCF Done:  E(RHF) =  -669.535345005     A.U. after   15 cycles
 E2 =    -0.2091106258D+01 EUMP2 =    -0.67162645126255D+03

 The electronic state is 1-A.
 Alpha  occ. eigenvalues --  -20.60709 -20.60704 -15.85761 -11.31110 -11.27678
 Alpha  occ. eigenvalues --  -11.27654 -11.27402 -11.26697 -11.26587 -11.22407
 Alpha  occ. eigenvalues --  -11.22226 -11.21971 -11.21935 -11.21812 -11.21340
 Alpha  occ. eigenvalues --   -1.59785  -1.39339  -1.19274  -1.08993  -1.08672
 Alpha  occ. eigenvalues --   -1.04674  -1.04144  -0.96630  -0.95513  -0.87676
 Alpha  occ. eigenvalues --   -0.86062  -0.82345  -0.80234  -0.78759  -0.77390
 Alpha  occ. eigenvalues --   -0.71980  -0.71108  -0.70388  -0.65625  -0.64923
 Alpha  occ. eigenvalues --   -0.64686  -0.62073  -0.61496  -0.60022  -0.58205
 Alpha  occ. eigenvalues --   -0.55920  -0.55173  -0.53457  -0.53102  -0.52996
 Alpha  occ. eigenvalues --   -0.52604  -0.50533  -0.48741  -0.48736  -0.48520
 Alpha  occ. eigenvalues --   -0.47217  -0.46311  -0.46202  -0.44748  -0.44384
 Alpha  occ. eigenvalues --   -0.37255  -0.36270
 Alpha virt. eigenvalues --    0.05128   0.11337   0.16586   0.20772   0.22400
 Alpha virt. eigenvalues --    0.23860   0.25914   0.26133   0.26831   0.27847
 Alpha virt. eigenvalues --    0.28704   0.30237   0.30751   0.31267   0.31941

 Mulliken charges:
               1
     1  C   -0.173647
     2  C   -0.218427
     3  C   -0.171472
     4  C    0.158978
     5  C   -0.174180
     6  C   -0.225656
     7  H    0.225087
     8  H    0.222944
     9  H    0.275222
    10  H    0.275474
    11  H    0.238789
    12  N    0.488049
    13  O   -0.460628
    14  O   -0.460752
    15  C   -0.299658
    16  C   -0.299438
    17  C   -0.483430
    18  H    0.151511
    19  H    0.150708
    20  H    0.154000
    21  H    0.154490
    22  H    0.158779
    23  H    0.154946
    24  H    0.154321
    25  C   -0.298911
    26  C   -0.300249
    27  C   -0.476056
    28  H    0.150322
    29  H    0.150214
    30  H    0.153294
    31  H    0.152622
    32  H    0.155351
    33  H    0.155637
    34  H    0.161764
 Sum of Mulliken charges =  -0.00000

 Dipole moment (field-independent basis, Debye):
    X=              2.7441    Y=              4.5439    Z=             -0.3198  Tot=              5.3178
 Quadrupole moment (field-independent basis, Debye-Ang):
   XX=           -111.6699   YY=            -97.1768   ZZ=            -93.0801
   XY=            -19.4615   XZ=              4.3542   YZ=             -1.1423

 Normal termination of Gaussian 16 at Thu May  6 14:20:56 2021.
