 Gaussian 16, Revision A.03,
 Gaussian 16:  EM64L-G16RevA.03 25-Dec-2016

 -------------
 #p 6-31g* mp2
 -------------

 ------------------------------------------------------
 Input file generated by CHIRIPA (05-May-2021 14:51:08)
 ------------------------------------------------------
 Symbolic Z-matrix:
 Charge =  0 Multiplicity = 1

                         Standard orientation:
 ---------------------------------------------------------------------
 Center     Atomic      Atomic             Coordinates (Angstroms)
 Number     Number       Type             X           Y           Z
 ---------------------------------------------------------------------
      1          6           0       -2.927139   -0.626076    0.475153
      2          6           0       -1.635486   -0.820538   -0.319706
      3          6           0       -0.458456   -1.244197    0.559445
      4          1           0       -2.759894    0.129108    1.255326
      5          1           0       -3.174441   -1.562388    0.994341
      6          1           0       -1.391439    0.115446   -0.838348
      7          1           0       -1.805881   -1.575209   -1.098201
      8          1           0       -0.676819   -2.189838    1.066083
      9          1           0       -0.260023   -0.489577    1.327412
     10          1           0        0.454626   -1.377572   -0.029073
     11          6           0       -4.112861   -0.202452   -0.389911
     12          6           0       -5.404514   -0.007990    0.404949
     13          6           0       -6.581545    0.415669   -0.474203
     14          1           0       -3.865559    0.733860   -0.909099
     15          1           0       -4.280106   -0.957637   -1.170084
     16          1           0       -5.234120    0.746680    1.183444
     17          1           0       -5.648561   -0.943975    0.923591
     18          1           0       -6.779978   -0.338952   -1.242170
     19          1           0       -6.363181    1.361309   -0.980841
     20          1           0       -7.494626    0.549043    0.114315
     21          6           0        3.408803    1.101566   -0.356760
     22          6           0        2.648459    2.067862    0.552160
     23          6           0        2.433788    3.438636   -0.090249
     24          1           0        4.380801    1.541936   -0.617987
     25          1           0        2.855827    0.983444   -1.298917
     26          1           0        3.202000    2.183052    1.492872
     27          1           0        1.678238    1.625056    0.811409
     28          1           0        1.861676    3.343565   -1.018824
     29          1           0        3.394095    3.904731   -0.333489
     30          1           0        1.888353    4.113579    0.576693
     31          6           0        3.631197   -0.273037    0.271518
     32          6           0        4.391541   -1.239333   -0.637402
     33          6           0        4.606212   -2.610107    0.005007
     34          1           0        4.184174   -0.154916    1.213675
     35          1           0        2.659200   -0.713408    0.532745
     36          1           0        5.361762   -0.796528   -0.896651
     37          1           0        3.838001   -1.354524   -1.578114
     38          1           0        3.645905   -3.076202    0.248247
     39          1           0        5.178324   -2.515037    0.933581
     40          1           0        5.151647   -3.285051   -0.661935
 ---------------------------------------------------------------------

 SCF Done:  E(RHF) =  -470.733117613     A.U. after   11 cycles
 E2 =    -0.1583063293D+01 EUMP2 =    -0.47231618090629D+03

 The electronic state is 1-A.
 Alpha  occ. eigenvalues --  -11.21688 -11.21633 -11.21568 -11.21560 -11.21458
 Alpha  occ. eigenvalues --  -11.21396 -11.21345 -11.21254 -11.21178 -11.21095
 Alpha  occ. eigenvalues --  -11.21062 -11.21036  -1.08489  -1.08382  -1.03594
 Alpha  occ. eigenvalues --   -1.03496  -0.96056  -0.95936  -0.87074  -0.86955
 Alpha  occ. eigenvalues --   -0.79666  -0.79555  -0.78303  -0.78183  -0.65150
 Alpha  occ. eigenvalues --   -0.65012  -0.61018  -0.60874  -0.59431  -0.59306
 Alpha  occ. eigenvalues --   -0.57675  -0.57537  -0.55347  -0.55226  -0.52794
 Alpha  occ. eigenvalues --   -0.52636  -0.52478  -0.52335  -0.49995  -0.49881
 Alpha  occ. eigenvalues --   -0.47998  -0.47853  -0.46719  -0.46575  -0.45857
 Alpha  occ. eigenvalues --   -0.45779  -0.45714  -0.45618  -0.43787  -0.43726
 Alpha virt. eigenvalues --    0.20541   0.22960   0.23771   0.24618   0.26061
 Alpha virt. eigenvalues --    0.26727   0.26920   0.27625   0.27952   0.29080
 Alpha virt. eigenvalues --    0.30219   0.31623   0.31789   0.31912   0.32110

 Mulliken charges:
               1
     1  C   -0.298718
     2  C   -0.299800
     3  C   -0.481492
     4  H    0.149878
     5  H    0.149758
     6  H    0.152039
     7  H    0.152232
     8  H    0.155917
     9  H    0.157117
    10  H    0.163874
    11  C   -0.298353
    12  C   -0.299694
    13  C   -0.475745
    14  H    0.149662
    15  H    0.149732
    16  H    0.152062
    17  H    0.152000
    18  H    0.155214
    19  H    0.155266
    20  H    0.160384
    21  C   -0.297572
    22  C   -0.302574
    23  C   -0.475602
    24  H    0.149494
    25  H    0.148864
    26  H    0.151822
    27  H    0.154763
    28  H    0.154868
    29  H    0.155258
    30  H    0.159848
    31  C   -0.306709
    32  C   -0.299585
    33  C   -0.475734
    34  H    0.149231
    35  H    0.158844
    36  H    0.151850
    37  H    0.151137
    38  H    0.155199
    39  H    0.155253
    40  H    0.160014
 Sum of Mulliken charges =  -0.00000

 Dipole moment (field-independent basis, Debye):
    X=             -0.0500    Y=             -0.0196    Z=              0.0174  Tot=              0.0564
 Quadrupole moment (field-independent basis, Debye-Ang):
   XX=            -84.9798   YY=            -84.9158   ZZ=            -84.9836
   XY=              1.0672   XZ=             -0.1225   YZ=              0.7666

 Normal termination of Gaussian 16 at Wed May  5 18:06:40 2021.
