 Gaussian 16, Revision A.03,
 Gaussian 16:  EM64L-G16RevA.03 25-Dec-2016

 -------------
 #p 6-31g* mp2
 -------------

 ------------------------------------------------------
 Input file generated by CHIRIPA (05-May-2021 14:57:23)
 ------------------------------------------------------
 Symbolic Z-matrix:
 Charge =  0 Multiplicity = 1

                         Standard orientation:
 ---------------------------------------------------------------------
 Center     Atomic      Atomic             Coordinates (Angstroms)
 Number     Number       Type             X           Y           Z
 ---------------------------------------------------------------------
      1          6           0        2.209349    1.676536    0.378067
      2          6           0        1.944714    0.318034    0.580457
      3          6           0        2.940159   -0.639286    0.363258
      4          6           0        4.194631   -0.200916   -0.057958
      5          6           0        4.489107    1.145307   -0.268332
      6          6           0        3.478463    2.085116   -0.044935
      7          1           0        1.430160    2.413404    0.549200
      8          1           0        0.960026   -0.002169    0.908945
      9          1           0        2.762477   -1.697421    0.512241
     10          1           0        5.480418    1.434006   -0.596011
     11          1           0        3.686832    3.139473   -0.202921
     12          7           0        5.256509   -1.205119   -0.291177
     13          8           0        6.353490   -0.793169   -0.662079
     14          8           0        4.971722   -2.385148   -0.098657
     15          6           0       -1.986531    1.432281    0.549830
     16          6           0       -2.342447    0.368643    1.385603
     17          6           0       -3.466889   -0.412041    1.101507
     18          6           0       -4.216172   -0.099633   -0.031748
     19          6           0       -3.887298    0.953542   -0.883777
     20          6           0       -2.758732    1.720828   -0.580201
     21          1           0       -1.111435    2.033531    0.778089
     22          1           0       -1.744604    0.142249    2.263883
     23          1           0       -3.765134   -1.241257    1.731482
     24          1           0       -4.502827    1.154934   -1.752100
     25          1           0       -2.484702    2.546257   -1.231062
     26          7           0       -5.408752   -0.919016   -0.342818
     27          8           0       -6.052349   -0.623277   -1.347287
     28          8           0       -5.677316   -1.841472    0.423723
 ---------------------------------------------------------------------

 SCF Done:  E(RHF) =  -868.336080330     A.U. after   16 cycles
 E2 =    -0.2600742728D+01 EUMP2 =    -0.87093682305750D+03

 The electronic state is 1-A.
 Alpha  occ. eigenvalues --  -20.61389 -20.61384 -20.61256 -20.61251 -15.86449
 Alpha  occ. eigenvalues --  -15.86314 -11.32028 -11.31838 -11.28626 -11.28593
 Alpha  occ. eigenvalues --  -11.28559 -11.28416 -11.28401 -11.28338 -11.27773
 Alpha  occ. eigenvalues --  -11.27692 -11.27533 -11.27501  -1.60459  -1.60328
 Alpha  occ. eigenvalues --   -1.40006  -1.39877  -1.20239  -1.20038  -1.09635
 Alpha  occ. eigenvalues --   -1.09432  -1.05662  -1.05455  -0.96431  -0.96231
 Alpha  occ. eigenvalues --   -0.87080  -0.86862  -0.83239  -0.83053  -0.78216
 Alpha  occ. eigenvalues --   -0.78048  -0.72666  -0.72534  -0.71783  -0.71652
 Alpha  occ. eigenvalues --   -0.71629  -0.71059  -0.65919  -0.65758  -0.65693
 Alpha  occ. eigenvalues --   -0.65405  -0.63004  -0.62777  -0.56475  -0.55875
 Alpha  occ. eigenvalues --   -0.54022  -0.53784  -0.53764  -0.53519  -0.49442
 Alpha  occ. eigenvalues --   -0.49405  -0.49304  -0.49275  -0.45363  -0.45246
 Alpha  occ. eigenvalues --   -0.38304  -0.38044  -0.37247  -0.37039
 Alpha virt. eigenvalues --    0.04286   0.04482   0.10232   0.10589   0.15660
 Alpha virt. eigenvalues --    0.15910   0.17603   0.22216   0.24216   0.25278
 Alpha virt. eigenvalues --    0.27468   0.28987   0.30018   0.31264   0.33135

 Mulliken charges:
               1
     1  C   -0.174265
     2  C   -0.220039
     3  C   -0.170459
     4  C    0.159611
     5  C   -0.170190
     6  C   -0.217627
     7  H    0.216904
     8  H    0.221211
     9  H    0.278196
    10  H    0.277809
    11  H    0.224848
    12  N    0.487887
    13  O   -0.458628
    14  O   -0.458372
    15  C   -0.173627
    16  C   -0.224159
    17  C   -0.169249
    18  C    0.159739
    19  C   -0.169223
    20  C   -0.218265
    21  H    0.219909
    22  H    0.222827
    23  H    0.278832
    24  H    0.278919
    25  H    0.225216
    26  N    0.487872
    27  O   -0.457751
    28  O   -0.457928
 Sum of Mulliken charges =  -0.00000

 Dipole moment (field-independent basis, Debye):
    X=              0.3481    Y=              6.2740    Z=              1.7859  Tot=              6.5325
 Quadrupole moment (field-independent basis, Debye-Ang):
   XX=           -168.3114   YY=           -103.4179   ZZ=           -102.4176
   XY=              5.1377   XZ=             -1.1761   YZ=             -4.5428

 Normal termination of Gaussian 16 at Fri May  7 00:17:59 2021.
