 Gaussian 16, Revision A.03,
 Gaussian 16:  EM64L-G16RevA.03 25-Dec-2016

 -------------
 #p 6-31g* mp2
 -------------

 ------------------------------------------------------
 Input file generated by CHIRIPA (05-May-2021 14:51:14)
 ------------------------------------------------------
 Symbolic Z-matrix:
 Charge =  0 Multiplicity = 1

                         Standard orientation:
 ---------------------------------------------------------------------
 Center     Atomic      Atomic             Coordinates (Angstroms)
 Number     Number       Type             X           Y           Z
 ---------------------------------------------------------------------
      1          6           0       -2.609088   -0.640125    0.213181
      2          6           0       -1.964624   -1.312701    1.425737
      3          6           0       -1.997639   -2.839040    1.342108
      4          1           0       -3.649403   -0.981378    0.122435
      5          1           0       -2.091414   -0.969608   -0.698329
      6          1           0       -2.482469   -0.980977    2.334808
      7          1           0       -0.925779   -0.969660    1.513718
      8          1           0       -1.464006   -3.187718    0.452018
      9          1           0       -3.029540   -3.199099    1.277774
     10          1           0       -1.531762   -3.299324    2.219011
     11          6           0       -2.583790    0.885761    0.282172
     12          6           0       -3.228253    1.558338   -0.930384
     13          6           0       -3.195238    3.084677   -0.846756
     14          1           0       -3.101463    1.215244    1.193682
     15          1           0       -1.543474    1.227015    0.372917
     16          1           0       -4.267098    1.215297   -1.018365
     17          1           0       -2.710408    1.226613   -1.839456
     18          1           0       -2.163337    3.444736   -0.782422
     19          1           0       -3.728872    3.433355    0.043334
     20          1           0       -3.661115    3.544961   -1.723658
     21          6           0        2.525542    0.601680   -0.016360
     22          6           0        3.823193    1.191151    0.537365
     23          6           0        3.665365    2.641158    0.996020
     24          1           0        2.179766    1.218202   -0.857363
     25          1           0        1.745695    0.660252    0.755522
     26          1           0        4.600733    1.130222   -0.234862
     27          1           0        4.166023    0.573045    1.377025
     28          1           0        2.909176    2.715759    1.784191
     29          1           0        3.346356    3.276103    0.163146
     30          1           0        4.604941    3.042703    1.388216
     31          6           0        2.667334   -0.847317   -0.478992
     32          6           0        1.369684   -1.436788   -1.032717
     33          6           0        1.527513   -2.886794   -1.491373
     34          1           0        3.447182   -0.905889   -1.250874
     35          1           0        3.013112   -1.463839    0.362010
     36          1           0        1.026854   -0.818682   -1.872377
     37          1           0        0.592144   -1.375859   -0.260490
     38          1           0        1.846521   -3.521739   -0.658498
     39          1           0        2.283702   -2.961396   -2.279544
     40          1           0        0.587936   -3.288339   -1.883569
 ---------------------------------------------------------------------

 SCF Done:  E(RHF) =  -470.733076414     A.U. after   11 cycles
 E2 =    -0.1584282654D+01 EUMP2 =    -0.47231735906770D+03

 The electronic state is 1-A.
 Alpha  occ. eigenvalues --  -11.21652 -11.21633 -11.21620 -11.21580 -11.21475
 Alpha  occ. eigenvalues --  -11.21412 -11.21379 -11.21319 -11.21132 -11.21107
 Alpha  occ. eigenvalues --  -11.21083 -11.21050  -1.08513  -1.08403  -1.03616
 Alpha  occ. eigenvalues --   -1.03501  -0.96040  -0.95966  -0.87062  -0.86977
 Alpha  occ. eigenvalues --   -0.79670  -0.79578  -0.78323  -0.78225  -0.65345
 Alpha  occ. eigenvalues --   -0.64883  -0.61255  -0.60687  -0.59388  -0.59330
 Alpha  occ. eigenvalues --   -0.57642  -0.57581  -0.55385  -0.55183  -0.52730
 Alpha  occ. eigenvalues --   -0.52668  -0.52465  -0.52389  -0.50053  -0.49853
 Alpha  occ. eigenvalues --   -0.48027  -0.47861  -0.46807  -0.46523  -0.46072
 Alpha  occ. eigenvalues --   -0.45825  -0.45680  -0.45402  -0.43841  -0.43775
 Alpha virt. eigenvalues --    0.19706   0.22652   0.23445   0.24380   0.25405
 Alpha virt. eigenvalues --    0.26197   0.26834   0.27887   0.28933   0.30194
 Alpha virt. eigenvalues --    0.30804   0.31114   0.31663   0.31784   0.32300

 Mulliken charges:
               1
     1  C   -0.300317
     2  C   -0.303690
     3  C   -0.478664
     4  H    0.149741
     5  H    0.152249
     6  H    0.153146
     7  H    0.152459
     8  H    0.158183
     9  H    0.155615
    10  H    0.160018
    11  C   -0.299396
    12  C   -0.299583
    13  C   -0.475796
    14  H    0.149243
    15  H    0.151107
    16  H    0.151774
    17  H    0.152008
    18  H    0.155446
    19  H    0.155094
    20  H    0.160080
    21  C   -0.300336
    22  C   -0.299664
    23  C   -0.475856
    24  H    0.149625
    25  H    0.150085
    26  H    0.152274
    27  H    0.152212
    28  H    0.155398
    29  H    0.155161
    30  H    0.160519
    31  C   -0.297694
    32  C   -0.310683
    33  C   -0.475982
    34  H    0.149860
    35  H    0.149818
    36  H    0.151325
    37  H    0.163774
    38  H    0.155873
    39  H    0.155494
    40  H    0.160077
 Sum of Mulliken charges =  -0.00000

 Dipole moment (field-independent basis, Debye):
    X=              0.0179    Y=             -0.0080    Z=             -0.0029  Tot=              0.0198
 Quadrupole moment (field-independent basis, Debye-Ang):
   XX=            -83.8581   YY=            -86.9912   ZZ=            -83.8531
   XY=              0.1232   XZ=             -0.6686   YZ=             -0.6030

 Normal termination of Gaussian 16 at Wed May  5 18:25:17 2021.
