 Gaussian 16, Revision A.03,
 Gaussian 16:  EM64L-G16RevA.03 25-Dec-2016

 -------------
 #p 6-31g* mp2
 -------------

 ------------------------------------------------------
 Input file generated by CHIRIPA (05-May-2021 14:53:12)
 ------------------------------------------------------
 Symbolic Z-matrix:
 Charge =  0 Multiplicity = 1

                         Standard orientation:
 ---------------------------------------------------------------------
 Center     Atomic      Atomic             Coordinates (Angstroms)
 Number     Number       Type             X           Y           Z
 ---------------------------------------------------------------------
      1          6           0        3.847412   -0.353806   -0.009263
      2          6           0        3.006413   -0.450239    1.264081
      3          6           0        1.524118   -0.691092    0.976700
      4          1           0        3.457613    0.458501   -0.637881
      5          1           0        3.731058   -1.280432   -0.588246
      6          1           0        3.125407    0.475735    1.841166
      7          1           0        3.398378   -1.262286    1.889828
      8          1           0        1.386060   -1.624512    0.421481
      9          1           0        1.111538    0.123384    0.372542
     10          1           0        0.941496   -0.756722    1.900877
     11          6           0        5.331463   -0.113138    0.261660
     12          6           0        6.172462   -0.016704   -1.011685
     13          6           0        7.654756    0.224148   -0.724304
     14          1           0        5.447817    0.813488    0.840642
     15          1           0        5.721261   -0.925445    0.890277
     16          1           0        5.780497    0.795342   -1.637432
     17          1           0        6.053467   -0.942679   -1.588770
     18          1           0        8.067336   -0.590328   -0.120146
     19          1           0        7.792815    1.157569   -0.169085
     20          1           0        8.237379    0.289778   -1.648481
     21          6           0       -4.995264   -1.889541   -0.391065
     22          6           0       -3.628464   -2.005735   -0.117426
     23          6           0       -2.837665   -0.864551    0.046536
     24          6           0       -3.449206    0.382708   -0.070317
     25          6           0       -4.808354    0.531206   -0.342270
     26          6           0       -5.579816   -0.623675   -0.502417
     27          1           0       -5.602065   -2.781361   -0.516953
     28          1           0       -3.171798   -2.987533   -0.030403
     29          1           0       -1.777215   -0.925622    0.258978
     30          1           0       -5.235184    1.523513   -0.423259
     31          1           0       -6.641048   -0.530410   -0.714865
     32          7           0       -2.622259    1.598078    0.101243
     33          8           0       -3.185002    2.685430   -0.006567
     34          8           0       -1.427013    1.440319    0.340273
 ---------------------------------------------------------------------

 SCF Done:  E(RHF) =  -669.536009167     A.U. after   15 cycles
 E2 =    -0.2091057201D+01 EUMP2 =    -0.67162706636782D+03

 The electronic state is 1-A.
 Alpha  occ. eigenvalues --  -20.60818 -20.60806 -15.85862 -11.31182 -11.27760
 Alpha  occ. eigenvalues --  -11.27723 -11.27501 -11.26768 -11.26751 -11.21293
 Alpha  occ. eigenvalues --  -11.21118 -11.21025 -11.20932 -11.20806 -11.20461
 Alpha  occ. eigenvalues --   -1.59887  -1.39442  -1.19357  -1.08764  -1.08029
 Alpha  occ. eigenvalues --   -1.04753  -1.03119  -0.95636  -0.95540  -0.86597
 Alpha  occ. eigenvalues --   -0.86152  -0.82439  -0.79202  -0.77851  -0.77471
 Alpha  occ. eigenvalues --   -0.72091  -0.71205  -0.70466  -0.65016  -0.64758
 Alpha  occ. eigenvalues --   -0.64651  -0.62098  -0.60501  -0.58949  -0.57183
 Alpha  occ. eigenvalues --   -0.55264  -0.54836  -0.53089  -0.52861  -0.52261
 Alpha  occ. eigenvalues --   -0.51995  -0.49526  -0.48839  -0.48803  -0.47502
 Alpha  occ. eigenvalues --   -0.46203  -0.45384  -0.45297  -0.44852  -0.43384
 Alpha  occ. eigenvalues --   -0.37344  -0.36356
 Alpha virt. eigenvalues --    0.05036   0.11295   0.16530   0.21094   0.23282
 Alpha virt. eigenvalues --    0.24536   0.25975   0.27063   0.27690   0.27941
 Alpha virt. eigenvalues --    0.29266   0.30580   0.31647   0.31822   0.32382

 Mulliken charges:
               1
     1  C   -0.298781
     2  C   -0.299758
     3  C   -0.484766
     4  H    0.153482
     5  H    0.146214
     6  H    0.155581
     7  H    0.147786
     8  H    0.142395
     9  H    0.180524
    10  H    0.157598
    11  C   -0.298156
    12  C   -0.299474
    13  C   -0.475532
    14  H    0.150631
    15  H    0.147992
    16  H    0.152976
    17  H    0.150455
    18  H    0.154227
    19  H    0.155606
    20  H    0.159395
    21  C   -0.170357
    22  C   -0.220343
    23  C   -0.174825
    24  C    0.156529
    25  C   -0.170475
    26  C   -0.218971
    27  H    0.225544
    28  H    0.223909
    29  H    0.285010
    30  H    0.275430
    31  H    0.223349
    32  N    0.492574
    33  O   -0.460096
    34  O   -0.465674
 Sum of Mulliken charges =  -0.00000

 Dipole moment (field-independent basis, Debye):
    X=             -3.0093    Y=             -4.1410    Z=             -0.6197  Tot=              5.1564
 Quadrupole moment (field-independent basis, Debye-Ang):
   XX=            -73.2528   YY=            -96.0166   ZZ=            -95.5486
   XY=             11.2590   XZ=              3.0460   YZ=             -0.3745

 Normal termination of Gaussian 16 at Thu May  6 11:58:21 2021.
