 Gaussian 16, Revision A.03,
 Gaussian 16:  EM64L-G16RevA.03 25-Dec-2016

 -------------
 #p 6-31g* mp2
 -------------

 ------------------------------------------------------
 Input file generated by CHIRIPA (05-May-2021 14:53:11)
 ------------------------------------------------------
 Symbolic Z-matrix:
 Charge =  0 Multiplicity = 1

                         Standard orientation:
 ---------------------------------------------------------------------
 Center     Atomic      Atomic             Coordinates (Angstroms)
 Number     Number       Type             X           Y           Z
 ---------------------------------------------------------------------
      1          6           0        2.021337    0.811157   -0.841826
      2          6           0        2.300728    2.192349   -0.248335
      3          6           0        1.490813    3.300259   -0.922404
      4          1           0        2.245701    0.828925   -1.917136
      5          1           0        0.948863    0.590371   -0.749905
      6          1           0        3.372584    2.409880   -0.340099
      7          1           0        2.075855    2.171238    0.825724
      8          1           0        0.417589    3.110278   -0.818974
      9          1           0        1.721686    3.350277   -1.991421
     10          1           0        1.705993    4.279139   -0.482687
     11          6           0        2.823570   -0.306868   -0.178372
     12          6           0        2.544179   -1.688061   -0.771863
     13          6           0        3.354093   -2.795970   -0.097794
     14          1           0        3.896043   -0.086082   -0.270293
     15          1           0        2.599206   -0.324636    0.896938
     16          1           0        2.769052   -1.666949   -1.845922
     17          1           0        1.472322   -1.905591   -0.680099
     18          1           0        3.123221   -2.845988    0.971223
     19          1           0        4.427317   -2.605990   -0.201224
     20          1           0        3.138914   -3.774850   -0.537511
     21          6           0       -0.126564    0.245246    2.145419
     22          6           0       -0.972615    1.278045    1.728233
     23          6           0       -1.954647    1.044460    0.760968
     24          6           0       -2.063270   -0.239742    0.229630
     25          6           0       -1.235387   -1.289423    0.624684
     26          6           0       -0.260413   -1.032938    1.593286
     27          1           0        0.633561    0.435595    2.897333
     28          1           0       -0.870953    2.271690    2.155291
     29          1           0       -2.622920    1.825771    0.419822
     30          1           0       -1.360834   -2.269497    0.180684
     31          1           0        0.395249   -1.836936    1.915373
     32          7           0       -3.099166   -0.499149   -0.795077
     33          8           0       -3.174512   -1.639347   -1.247746
     34          8           0       -3.816142    0.442637   -1.126171
 ---------------------------------------------------------------------

 SCF Done:  E(RHF) =  -669.533511135     A.U. after   15 cycles
 E2 =    -0.2098341685D+01 EUMP2 =    -0.67163185281998D+03

 The electronic state is 1-A.
 Alpha  occ. eigenvalues --  -20.60903 -20.60898 -15.85960 -11.31405 -11.27965
 Alpha  occ. eigenvalues --  -11.27948 -11.27670 -11.26987 -11.26954 -11.22024
 Alpha  occ. eigenvalues --  -11.21989 -11.21817 -11.21684 -11.21550 -11.21410
 Alpha  occ. eigenvalues --   -1.59978  -1.39528  -1.19594  -1.09049  -1.08724
 Alpha  occ. eigenvalues --   -1.05005  -1.03955  -0.96411  -0.95778  -0.87429
 Alpha  occ. eigenvalues --   -0.86371  -0.82608  -0.80029  -0.78627  -0.77646
 Alpha  occ. eigenvalues --   -0.72174  -0.71304  -0.70672  -0.65677  -0.65225
 Alpha  occ. eigenvalues --   -0.64870  -0.62408  -0.61311  -0.59775  -0.58017
 Alpha  occ. eigenvalues --   -0.55796  -0.55448  -0.53272  -0.53088  -0.53050
 Alpha  occ. eigenvalues --   -0.52814  -0.50367  -0.48940  -0.48926  -0.48356
 Alpha  occ. eigenvalues --   -0.47090  -0.46190  -0.45966  -0.44916  -0.44180
 Alpha  occ. eigenvalues --   -0.37484  -0.36511
 Alpha virt. eigenvalues --    0.04809   0.10923   0.16141   0.19422   0.22707
 Alpha virt. eigenvalues --    0.23625   0.25573   0.26595   0.27024   0.27921
 Alpha virt. eigenvalues --    0.29661   0.29900   0.30921   0.31326   0.31996

 Mulliken charges:
               1
     1  C   -0.302549
     2  C   -0.296959
     3  C   -0.477636
     4  H    0.151559
     5  H    0.159563
     6  H    0.151938
     7  H    0.141744
     8  H    0.154109
     9  H    0.158868
    10  H    0.158098
    11  C   -0.295071
    12  C   -0.304141
    13  C   -0.476076
    14  H    0.150275
    15  H    0.138438
    16  H    0.156713
    17  H    0.151120
    18  H    0.145901
    19  H    0.158463
    20  H    0.162914
    21  C   -0.169919
    22  C   -0.216432
    23  C   -0.173594
    24  C    0.159221
    25  C   -0.173725
    26  C   -0.215618
    27  H    0.226895
    28  H    0.225709
    29  H    0.276914
    30  H    0.276913
    31  H    0.227435
    32  N    0.488139
    33  O   -0.459586
    34  O   -0.459624
 Sum of Mulliken charges =  -0.00000

 Dipole moment (field-independent basis, Debye):
    X=              3.5037    Y=              0.8885    Z=              3.5507  Tot=              5.0668
 Quadrupole moment (field-independent basis, Debye-Ang):
   XX=           -109.9817   YY=            -91.7580   ZZ=            -93.3172
   XY=             -3.9074   XZ=             -7.7796   YZ=             -0.0163

 Normal termination of Gaussian 16 at Wed May  5 21:42:22 2021.
