 Gaussian 16, Revision A.03,
 Gaussian 16:  EM64L-G16RevA.03 25-Dec-2016

 -------------
 #p 6-31g* mp2
 -------------

 ------------------------------------------------------
 Input file generated by CHIRIPA (05-May-2021 14:53:13)
 ------------------------------------------------------
 Symbolic Z-matrix:
 Charge =  0 Multiplicity = 1

                         Standard orientation:
 ---------------------------------------------------------------------
 Center     Atomic      Atomic             Coordinates (Angstroms)
 Number     Number       Type             X           Y           Z
 ---------------------------------------------------------------------
      1          6           0        2.907915    1.372881   -0.046782
      2          6           0        1.474946    1.323869   -0.577992
      3          6           0        0.815092    2.702277   -0.626764
      4          1           0        2.904471    1.815115    0.958883
      5          1           0        3.503966    2.043517   -0.681105
      6          1           0        0.882117    0.652445    0.056326
      7          1           0        1.481779    0.881524   -1.582432
      8          1           0        1.381946    3.378004   -1.275355
      9          1           0        0.778876    3.147623    0.372714
     10          1           0       -0.208612    2.644000   -1.009509
     11          6           0        3.580932    0.002559    0.007937
     12          6           0        5.013900    0.051572    0.539147
     13          6           0        5.673754   -1.326836    0.587919
     14          1           0        2.984881   -0.668077    0.642260
     15          1           0        3.584375   -0.439675   -0.997728
     16          1           0        5.007067    0.493917    1.543587
     17          1           0        5.606729    0.722996   -0.095171
     18          1           0        5.709970   -1.772182   -0.411559
     19          1           0        5.106901   -2.002563    1.236510
     20          1           0        6.697458   -1.268559    0.970664
     21          6           0       -4.474289    0.766675    0.965772
     22          6           0       -3.525967    0.198213    1.822543
     23          6           0       -2.447208   -0.526338    1.306934
     24          6           0       -2.347194   -0.663343   -0.076726
     25          6           0       -3.275750   -0.108855   -0.956281
     26          6           0       -4.346379    0.611601   -0.418465
     27          1           0       -5.309138    1.327933    1.374934
     28          1           0       -3.622767    0.317028    2.897977
     29          1           0       -1.698683   -0.976908    1.947337
     30          1           0       -3.152526   -0.244349   -2.023930
     31          1           0       -5.081353    1.051977   -1.086245
     32          7           0       -1.209463   -1.428225   -0.634333
     33          8           0       -1.143916   -1.534528   -1.857051
     34          8           0       -0.404800   -1.906953    0.161892
 ---------------------------------------------------------------------

 SCF Done:  E(RHF) =  -669.536182175     A.U. after   15 cycles
 E2 =    -0.2092349327D+01 EUMP2 =    -0.67162853150154D+03

 The electronic state is 1-A.
 Alpha  occ. eigenvalues --  -20.60926 -20.60899 -15.85924 -11.31273 -11.27833
 Alpha  occ. eigenvalues --  -11.27830 -11.27566 -11.26843 -11.26833 -11.20885
 Alpha  occ. eigenvalues --  -11.20831 -11.20679 -11.20643 -11.20423 -11.20376
 Alpha  occ. eigenvalues --   -1.59960  -1.39520  -1.19436  -1.08837  -1.07667
 Alpha  occ. eigenvalues --   -1.04835  -1.02859  -0.95678  -0.95321  -0.86337
 Alpha  occ. eigenvalues --   -0.86235  -0.82514  -0.78916  -0.77573  -0.77443
 Alpha  occ. eigenvalues --   -0.72160  -0.71267  -0.70544  -0.65094  -0.64839
 Alpha  occ. eigenvalues --   -0.64299  -0.62184  -0.60263  -0.58691  -0.56923
 Alpha  occ. eigenvalues --   -0.55337  -0.54614  -0.53162  -0.52928  -0.52046
 Alpha  occ. eigenvalues --   -0.51736  -0.49264  -0.48927  -0.48915  -0.47230
 Alpha  occ. eigenvalues --   -0.46025  -0.45203  -0.44975  -0.44505  -0.43085
 Alpha  occ. eigenvalues --   -0.37408  -0.36434
 Alpha virt. eigenvalues --    0.04948   0.11183   0.16405   0.21336   0.23579
 Alpha virt. eigenvalues --    0.24804   0.27175   0.27427   0.27912   0.28401
 Alpha virt. eigenvalues --    0.28718   0.30876   0.31897   0.32126   0.32354

 Mulliken charges:
               1
     1  C   -0.297597
     2  C   -0.306753
     3  C   -0.474861
     4  H    0.144940
     5  H    0.146594
     6  H    0.155180
     7  H    0.160479
     8  H    0.154078
     9  H    0.151122
    10  H    0.155405
    11  C   -0.299849
    12  C   -0.299351
    13  C   -0.475144
    14  H    0.159479
    15  H    0.153523
    16  H    0.148446
    17  H    0.149143
    18  H    0.156289
    19  H    0.156667
    20  H    0.156766
    21  C   -0.170507
    22  C   -0.218238
    23  C   -0.171854
    24  C    0.158521
    25  C   -0.171293
    26  C   -0.218460
    27  H    0.225965
    28  H    0.223731
    29  H    0.275437
    30  H    0.275824
    31  H    0.223825
    32  N    0.489831
    33  O   -0.458041
    34  O   -0.459295
 Sum of Mulliken charges =  -0.00000

 Dipole moment (field-independent basis, Debye):
    X=             -4.1508    Y=              2.5008    Z=              1.9059  Tot=              5.2073
 Quadrupole moment (field-independent basis, Debye-Ang):
   XX=            -76.6661   YY=           -100.2657   ZZ=            -89.8763
   XY=             -3.9041   XZ=             -3.2031   YZ=             -2.4012

 Normal termination of Gaussian 16 at Thu May  6 07:21:05 2021.
