 Gaussian 16, Revision A.03,
 Gaussian 16:  EM64L-G16RevA.03 25-Dec-2016

 -------------
 #p 6-31g* mp2
 -------------

 ------------------------------------------------------
 Input file generated by CHIRIPA (05-May-2021 14:53:16)
 ------------------------------------------------------
 Symbolic Z-matrix:
 Charge =  0 Multiplicity = 1

                         Standard orientation:
 ---------------------------------------------------------------------
 Center     Atomic      Atomic             Coordinates (Angstroms)
 Number     Number       Type             X           Y           Z
 ---------------------------------------------------------------------
      1          6           0        2.470974   -0.823336    0.125918
      2          6           0        2.025583   -2.137160   -0.517104
      3          6           0        0.588048   -2.513866   -0.157410
      4          1           0        2.373966   -0.905185    1.217172
      5          1           0        1.790680   -0.019946   -0.188975
      6          1           0        2.707336   -2.937572   -0.202192
      7          1           0        2.123844   -2.052241   -1.606943
      8          1           0       -0.108012   -1.735567   -0.486581
      9          1           0        0.478795   -2.625929    0.926152
     10          1           0        0.290327   -3.456244   -0.627670
     11          6           0        3.905883   -0.433318   -0.224295
     12          6           0        4.351275    0.880506    0.418727
     13          6           0        5.788810    1.257211    0.059033
     14          1           0        4.586178   -1.236709    0.090599
     15          1           0        4.002891   -0.351470   -1.315549
     16          1           0        4.253014    0.795587    1.508567
     17          1           0        3.669522    1.680918    0.103815
     18          1           0        5.898062    1.369274   -1.024529
     19          1           0        6.484869    0.478913    0.388204
     20          1           0        6.086531    2.199590    0.529293
     21          6           0       -1.762081    2.887525   -0.262826
     22          6           0       -2.133142    2.123731   -1.374336
     23          6           0       -2.538676    0.794806   -1.219257
     24          6           0       -2.561426    0.259182    0.067553
     25          6           0       -2.197647    0.994509    1.194606
     26          6           0       -1.795459    2.321474    1.015843
     27          1           0       -1.448353    3.919105   -0.392494
     28          1           0       -2.108193    2.560711   -2.368554
     29          1           0       -2.831161    0.180861   -2.062431
     30          1           0       -2.232757    0.531281    2.173178
     31          1           0       -1.507836    2.912274    1.880871
     32          7           0       -2.988975   -1.146654    0.244264
     33          8           0       -3.000373   -1.595217    1.388510
     34          8           0       -3.304594   -1.773366   -0.764822
 ---------------------------------------------------------------------

 SCF Done:  E(RHF) =  -669.535669108     A.U. after   15 cycles
 E2 =    -0.2092071242D+01 EUMP2 =    -0.67162774034966D+03

 The electronic state is 1-A.
 Alpha  occ. eigenvalues --  -20.60764 -20.60754 -15.85806 -11.31211 -11.27785
 Alpha  occ. eigenvalues --  -11.27773 -11.27529 -11.26806 -11.26794 -11.21724
 Alpha  occ. eigenvalues --  -11.21391 -11.21338 -11.21262 -11.21203 -11.20565
 Alpha  occ. eigenvalues --   -1.59828  -1.39382  -1.19388  -1.08777  -1.08368
 Alpha  occ. eigenvalues --   -1.04791  -1.03420  -0.95850  -0.95604  -0.86863
 Alpha  occ. eigenvalues --   -0.86187  -0.82433  -0.79500  -0.78179  -0.77475
 Alpha  occ. eigenvalues --   -0.72030  -0.71160  -0.70489  -0.65039  -0.65003
 Alpha  occ. eigenvalues --   -0.64792  -0.62136  -0.60821  -0.59236  -0.57461
 Alpha  occ. eigenvalues --   -0.55292  -0.55144  -0.53129  -0.52882  -0.52509
 Alpha  occ. eigenvalues --   -0.52273  -0.49807  -0.48792  -0.48782  -0.47804
 Alpha  occ. eigenvalues --   -0.46556  -0.45709  -0.45646  -0.44756  -0.43665
 Alpha  occ. eigenvalues --   -0.37356  -0.36393
 Alpha virt. eigenvalues --    0.05059   0.11237   0.16524   0.21398   0.22881
 Alpha virt. eigenvalues --    0.24363   0.26614   0.27305   0.27426   0.27894
 Alpha virt. eigenvalues --    0.28359   0.30788   0.31364   0.31858   0.32320

 Mulliken charges:
               1
     1  C   -0.298400
     2  C   -0.300472
     3  C   -0.474753
     4  H    0.149094
     5  H    0.147766
     6  H    0.151934
     7  H    0.150225
     8  H    0.147962
     9  H    0.159744
    10  H    0.167084
    11  C   -0.297896
    12  C   -0.298939
    13  C   -0.475501
    14  H    0.150412
    15  H    0.148936
    16  H    0.151514
    17  H    0.148651
    18  H    0.154888
    19  H    0.156275
    20  H    0.158967
    21  C   -0.171065
    22  C   -0.218527
    23  C   -0.172942
    24  C    0.156529
    25  C   -0.170540
    26  C   -0.218300
    27  H    0.225701
    28  H    0.223503
    29  H    0.276009
    30  H    0.275885
    31  H    0.223746
    32  N    0.492015
    33  O   -0.459467
    34  O   -0.460040
 Sum of Mulliken charges =  -0.00000

 Dipole moment (field-independent basis, Debye):
    X=              1.4295    Y=              4.8679    Z=             -0.5878  Tot=              5.1074
 Quadrupole moment (field-independent basis, Debye-Ang):
   XX=           -104.4237   YY=            -92.3594   ZZ=            -89.3220
   XY=            -12.9700   XZ=              2.9604   YZ=              0.2317

 Normal termination of Gaussian 16 at Wed May  5 21:58:57 2021.
