 Gaussian 16, Revision A.03,
 Gaussian 16:  EM64L-G16RevA.03 25-Dec-2016

 -------------
 #p 6-31g* mp2
 -------------

 ------------------------------------------------------
 Input file generated by CHIRIPA (05-May-2021 14:57:26)
 ------------------------------------------------------
 Symbolic Z-matrix:
 Charge =  0 Multiplicity = 1

                         Standard orientation:
 ---------------------------------------------------------------------
 Center     Atomic      Atomic             Coordinates (Angstroms)
 Number     Number       Type             X           Y           Z
 ---------------------------------------------------------------------
      1          6           0        5.397637    1.262683    0.553886
      2          6           0        5.559166    0.030164   -0.087462
      3          6           0        4.451421   -0.776236   -0.365256
      4          6           0        3.191010   -0.317054    0.013961
      5          6           0        2.997627    0.906019    0.654262
      6          6           0        4.119636    1.695913    0.922052
      7          1           0        6.263701    1.882702    0.765797
      8          1           0        6.550486   -0.308836   -0.374532
      9          1           0        4.547841   -1.734748   -0.860610
     10          1           0        1.996865    1.217108    0.928338
     11          1           0        3.991190    2.652648    1.420252
     12          7           0        2.010740   -1.162016   -0.274831
     13          8           0        0.910924   -0.734813    0.069465
     14          8           0        2.207808   -2.235500   -0.840015
     15          6           0       -3.724201   -2.218074    0.653317
     16          6           0       -4.496941   -1.201382    1.224047
     17          6           0       -4.317878    0.129621    0.835567
     18          6           0       -3.352792    0.409417   -0.130669
     19          6           0       -2.567303   -0.581325   -0.717803
     20          6           0       -2.763542   -1.905351   -0.314080
     21          1           0       -3.869973   -3.249319    0.961019
     22          1           0       -5.243738   -1.441307    1.975563
     23          1           0       -4.902352    0.936309    1.261082
     24          1           0       -1.830614   -0.311188   -1.464619
     25          1           0       -2.161980   -2.692872   -0.759028
     26          7           0       -3.154134    1.814797   -0.550004
     27          8           0       -2.297344    2.035154   -1.403227
     28          8           0       -3.858978    2.669366   -0.017515
 ---------------------------------------------------------------------

 SCF Done:  E(RHF) =  -868.340040995     A.U. after   16 cycles
 E2 =    -0.2598680632D+01 EUMP2 =    -0.87093872162672D+03

 The electronic state is 1-A.
 Alpha  occ. eigenvalues --  -20.61193 -20.61182 -20.59938 -20.59926 -15.86211
 Alpha  occ. eigenvalues --  -15.84976 -11.31313 -11.30040 -11.27881 -11.27819
 Alpha  occ. eigenvalues --  -11.27570 -11.26840 -11.26789 -11.26690 -11.26464
 Alpha  occ. eigenvalues --  -11.26347 -11.25675 -11.25424  -1.60261  -1.59016
 Alpha  occ. eigenvalues --   -1.39816  -1.38576  -1.19468  -1.18208  -1.08919
 Alpha  occ. eigenvalues --   -1.07678  -1.04830  -1.03545  -0.95795  -0.94552
 Alpha  occ. eigenvalues --   -0.86242  -0.84982  -0.82634  -0.81380  -0.77704
 Alpha  occ. eigenvalues --   -0.76448  -0.72455  -0.71557  -0.71209  -0.70579
 Alpha  occ. eigenvalues --   -0.70332  -0.69346  -0.65126  -0.64834  -0.63865
 Alpha  occ. eigenvalues --   -0.63561  -0.62176  -0.60892  -0.55355  -0.54131
 Alpha  occ. eigenvalues --   -0.53176  -0.52919  -0.51920  -0.51642  -0.49213
 Alpha  occ. eigenvalues --   -0.49194  -0.47970  -0.47939  -0.45273  -0.44047
 Alpha  occ. eigenvalues --   -0.37442  -0.36419  -0.36224  -0.35090
 Alpha virt. eigenvalues --    0.04796   0.06055   0.11238   0.12523   0.16339
 Alpha virt. eigenvalues --    0.17588   0.21395   0.22593   0.27331   0.28243
 Alpha virt. eigenvalues --    0.28603   0.29431   0.30977   0.32096   0.32513

 Mulliken charges:
               1
     1  C   -0.169926
     2  C   -0.218796
     3  C   -0.170758
     4  C    0.157324
     5  C   -0.169267
     6  C   -0.218662
     7  H    0.226613
     8  H    0.223615
     9  H    0.274557
    10  H    0.279234
    11  H    0.226092
    12  N    0.490021
    13  O   -0.464828
    14  O   -0.463543
    15  C   -0.172069
    16  C   -0.219844
    17  C   -0.173284
    18  C    0.153358
    19  C   -0.156527
    20  C   -0.214659
    21  H    0.222224
    22  H    0.218250
    23  H    0.270589
    24  H    0.279829
    25  H    0.230486
    26  N    0.488085
    27  O   -0.462095
    28  O   -0.466019
 Sum of Mulliken charges =  -0.00000

 Dipole moment (field-independent basis, Debye):
    X=              3.8773    Y=             -2.0406    Z=              2.4235  Tot=              5.0070
 Quadrupole moment (field-independent basis, Debye-Ang):
   XX=            -71.2111   YY=           -109.0872   ZZ=           -103.6121
   XY=             21.9308   XZ=             -5.1159   YZ=              3.9489

 Normal termination of Gaussian 16 at Wed May  5 22:49:35 2021.
