 Gaussian 16, Revision A.03,
 Gaussian 16:  EM64L-G16RevA.03 25-Dec-2016

 -------------
 #p 6-31g* mp2
 -------------

 ------------------------------------------------------
 Input file generated by CHIRIPA (05-May-2021 14:55:21)
 ------------------------------------------------------
 Symbolic Z-matrix:
 Charge =  0 Multiplicity = 1

                         Standard orientation:
 ---------------------------------------------------------------------
 Center     Atomic      Atomic             Coordinates (Angstroms)
 Number     Number       Type             X           Y           Z
 ---------------------------------------------------------------------
      1          6           0        1.716289    1.942822    0.919881
      2          6           0        2.996297    2.394994    0.582774
      3          6           0        3.948876    1.510783    0.067690
      4          6           0        3.585858    0.175103   -0.098043
      5          6           0        2.318799   -0.305786    0.228449
      6          6           0        1.382214    0.596249    0.741956
      7          1           0        0.982515    2.636621    1.319399
      8          1           0        3.258534    3.440210    0.719886
      9          1           0        4.947090    1.834034   -0.201561
     10          1           0        2.086791   -1.353502    0.080523
     11          1           0        0.388905    0.242277    1.002890
     12          7           0        4.585845   -0.770407   -0.642505
     13          8           0        4.241202   -1.942252   -0.779021
     14          8           0        5.695343   -0.321748   -0.922429
     15          6           0       -4.966886   -0.264647   -0.450331
     16          6           0       -5.564502    1.122862   -0.214415
     17          6           0       -6.739806    1.426185   -1.144174
     18          1           0       -4.638749   -0.342626   -1.495888
     19          1           0       -5.750558   -1.022232   -0.311349
     20          1           0       -4.779605    1.877516   -0.352446
     21          1           0       -5.891080    1.197613    0.830753
     22          1           0       -7.542358    0.695300   -1.001634
     23          1           0       -6.424569    1.379066   -2.191554
     24          1           0       -7.151793    2.422986   -0.958395
     25          6           0       -3.790999   -0.582544    0.471601
     26          6           0       -3.193381   -1.970054    0.235685
     27          6           0       -2.018079   -2.273376    1.165444
     28          1           0       -3.007326    0.175041    0.332619
     29          1           0       -4.119136   -0.504565    1.517159
     30          1           0       -2.866804   -2.044805   -0.809482
     31          1           0       -3.978278   -2.724707    0.373716
     32          1           0       -2.333316   -2.226257    2.212825
     33          1           0       -1.215527   -1.542491    1.022904
     34          1           0       -1.606090   -3.270177    0.979666
 ---------------------------------------------------------------------

 SCF Done:  E(RHF) =  -669.535478443     A.U. after   15 cycles
 E2 =    -0.2090925378D+01 EUMP2 =    -0.67162640382159D+03

 The electronic state is 1-A.
 Alpha  occ. eigenvalues --  -20.60738 -20.60732 -15.85791 -11.31156 -11.27729
 Alpha  occ. eigenvalues --  -11.27717 -11.27473 -11.26746 -11.26722 -11.22311
 Alpha  occ. eigenvalues --  -11.22129 -11.22117 -11.22003 -11.21935 -11.21494
 Alpha  occ. eigenvalues --   -1.59813  -1.39367  -1.19330  -1.09076  -1.08726
 Alpha  occ. eigenvalues --   -1.04735  -1.04174  -0.96637  -0.95560  -0.87654
 Alpha  occ. eigenvalues --   -0.86134  -0.82396  -0.80238  -0.78882  -0.77441
 Alpha  occ. eigenvalues --   -0.72009  -0.71136  -0.70439  -0.65718  -0.64983
 Alpha  occ. eigenvalues --   -0.64753  -0.62143  -0.61526  -0.59996  -0.58235
 Alpha  occ. eigenvalues --   -0.55952  -0.55231  -0.53311  -0.53131  -0.53064
 Alpha  occ. eigenvalues --   -0.52769  -0.50575  -0.48776  -0.48764  -0.48542
 Alpha  occ. eigenvalues --   -0.47264  -0.46424  -0.46337  -0.44772  -0.44419
 Alpha  occ. eigenvalues --   -0.37314  -0.36337
 Alpha virt. eigenvalues --    0.05096   0.11312   0.16584   0.19205   0.22555
 Alpha virt. eigenvalues --    0.23647   0.25123   0.26420   0.26944   0.28349
 Alpha virt. eigenvalues --    0.28771   0.30026   0.31135   0.31460   0.32069

 Mulliken charges:
               1
     1  C   -0.171903
     2  C   -0.218511
     3  C   -0.171085
     4  C    0.158585
     5  C   -0.173250
     6  C   -0.225888
     7  H    0.226182
     8  H    0.223259
     9  H    0.275516
    10  H    0.275822
    11  H    0.233163
    12  N    0.488124
    13  O   -0.460322
    14  O   -0.460668
    15  C   -0.298828
    16  C   -0.299793
    17  C   -0.476068
    18  H    0.151443
    19  H    0.151808
    20  H    0.150152
    21  H    0.152193
    22  H    0.156463
    23  H    0.156245
    24  H    0.161076
    25  C   -0.297841
    26  C   -0.300255
    27  C   -0.480030
    28  H    0.142755
    29  H    0.150564
    30  H    0.154794
    31  H    0.156123
    32  H    0.158496
    33  H    0.144956
    34  H    0.166722
 Sum of Mulliken charges =  -0.00000

 Dipole moment (field-independent basis, Debye):
    X=             -3.7226    Y=              3.2537    Z=              1.8985  Tot=              5.2961
 Quadrupole moment (field-independent basis, Debye-Ang):
   XX=           -117.7391   YY=            -90.7468   ZZ=            -95.8384
   XY=             15.1289   XZ=              6.1070   YZ=             -0.3320

 Normal termination of Gaussian 16 at Wed May  5 17:26:40 2021.
