 Gaussian 16, Revision A.03,
 Gaussian 16:  EM64L-G16RevA.03 25-Dec-2016

 -------------
 #p 6-31g* mp2
 -------------

 ------------------------------------------------------
 Input file generated by CHIRIPA (05-May-2021 14:55:21)
 ------------------------------------------------------
 Symbolic Z-matrix:
 Charge =  0 Multiplicity = 1

                         Standard orientation:
 ---------------------------------------------------------------------
 Center     Atomic      Atomic             Coordinates (Angstroms)
 Number     Number       Type             X           Y           Z
 ---------------------------------------------------------------------
      1          6           0        4.161388   -2.215997   -0.025464
      2          6           0        3.008522   -1.855466   -0.730756
      3          6           0        2.584708   -0.523649   -0.765309
      4          6           0        3.341094    0.426048   -0.080293
      5          6           0        4.494138    0.098167    0.631236
      6          6           0        4.899216   -1.239751    0.652086
      7          1           0        4.483340   -3.252954   -0.003945
      8          1           0        2.433548   -2.611507   -1.257872
      9          1           0        1.696093   -0.216896   -1.303532
     10          1           0        5.046572    0.874204    1.146989
     11          1           0        5.794956   -1.516848    1.200642
     12          7           0        2.902339    1.839212   -0.109619
     13          8           0        3.586216    2.657003    0.502073
     14          8           0        1.882874    2.102301   -0.743741
     15          6           0       -3.755348   -0.530160    0.452414
     16          6           0       -2.473739   -0.427584   -0.375198
     17          6           0       -1.254459   -0.997771    0.350087
     18          1           0       -3.612720   -0.001040    1.404587
     19          1           0       -3.937279   -1.584042    0.704666
     20          1           0       -2.295026    0.625640   -0.626985
     21          1           0       -2.619502   -0.956848   -1.325592
     22          1           0       -1.407273   -2.055536    0.587536
     23          1           0       -1.080955   -0.464058    1.290112
     24          1           0       -0.349331   -0.914239   -0.259525
     25          6           0       -4.982972    0.035719   -0.259238
     26          6           0       -6.264581   -0.066857    0.568373
     27          6           0       -7.483861    0.503330   -0.156912
     28          1           0       -4.801042    1.089601   -0.511490
     29          1           0       -5.125600   -0.493401   -1.211411
     30          1           0       -6.118820    0.462406    1.518768
     31          1           0       -6.443294   -1.120081    0.820161
     32          1           0       -7.657366   -0.030383   -1.096937
     33          1           0       -7.331047    1.561095   -0.394360
     34          1           0       -8.388989    0.419799    0.452700
 ---------------------------------------------------------------------

 SCF Done:  E(RHF) =  -669.535194460     A.U. after   15 cycles
 E2 =    -0.2091370328D+01 EUMP2 =    -0.67162656478805D+03

 The electronic state is 1-A.
 Alpha  occ. eigenvalues --  -20.60770 -20.60765 -15.85823 -11.31187 -11.27760
 Alpha  occ. eigenvalues --  -11.27753 -11.27501 -11.26778 -11.26768 -11.21534
 Alpha  occ. eigenvalues --  -11.21499 -11.21317 -11.21247 -11.21188 -11.20963
 Alpha  occ. eigenvalues --   -1.59844  -1.39398  -1.19365  -1.08757  -1.08349
 Alpha  occ. eigenvalues --   -1.04774  -1.03477  -0.95949  -0.95591  -0.86970
 Alpha  occ. eigenvalues --   -0.86165  -0.82427  -0.79538  -0.78153  -0.77476
 Alpha  occ. eigenvalues --   -0.72043  -0.71166  -0.70487  -0.65020  -0.64971
 Alpha  occ. eigenvalues --   -0.64783  -0.62170  -0.60863  -0.59316  -0.57558
 Alpha  occ. eigenvalues --   -0.55274  -0.55218  -0.53184  -0.52936  -0.52524
 Alpha  occ. eigenvalues --   -0.52326  -0.49870  -0.48801  -0.48797  -0.47858
 Alpha  occ. eigenvalues --   -0.46551  -0.45703  -0.45609  -0.44804  -0.43741
 Alpha  occ. eigenvalues --   -0.37340  -0.36342
 Alpha virt. eigenvalues --    0.05028   0.11246   0.16515   0.20814   0.22987
 Alpha virt. eigenvalues --    0.24110   0.26471   0.26763   0.27599   0.27925
 Alpha virt. eigenvalues --    0.28936   0.30785   0.31473   0.31604   0.32052

 Mulliken charges:
               1
     1  C   -0.170778
     2  C   -0.218189
     3  C   -0.169983
     4  C    0.158087
     5  C   -0.171156
     6  C   -0.218308
     7  H    0.225670
     8  H    0.223923
     9  H    0.276612
    10  H    0.275596
    11  H    0.223471
    12  N    0.488085
    13  O   -0.460485
    14  O   -0.460666
    15  C   -0.298691
    16  C   -0.300908
    17  C   -0.475204
    18  H    0.151402
    19  H    0.147484
    20  H    0.160842
    21  H    0.148595
    22  H    0.151582
    23  H    0.160315
    24  H    0.151634
    25  C   -0.298626
    26  C   -0.299670
    27  C   -0.475762
    28  H    0.152176
    29  H    0.148660
    30  H    0.152625
    31  H    0.150827
    32  H    0.154639
    33  H    0.156260
    34  H    0.159941
 Sum of Mulliken charges =  -0.00000

 Dipole moment (field-independent basis, Debye):
    X=              1.5474    Y=             -4.9105    Z=              0.1361  Tot=              5.1503
 Quadrupole moment (field-independent basis, Debye-Ang):
   XX=            -82.4533   YY=            -98.6692   ZZ=            -93.7604
   XY=            -14.8234   XZ=              2.5432   YZ=              1.8217

 Normal termination of Gaussian 16 at Thu May  6 14:11:40 2021.
