 Gaussian 16, Revision A.03,
 Gaussian 16:  EM64L-G16RevA.03 25-Dec-2016

 -------------
 #p 6-31g* mp2
 -------------

 ------------------------------------------------------
 Input file generated by CHIRIPA (05-May-2021 14:55:25)
 ------------------------------------------------------
 Symbolic Z-matrix:
 Charge =  0 Multiplicity = 1

                         Standard orientation:
 ---------------------------------------------------------------------
 Center     Atomic      Atomic             Coordinates (Angstroms)
 Number     Number       Type             X           Y           Z
 ---------------------------------------------------------------------
      1          6           0        1.551371    0.731403   -0.210022
      2          6           0        1.786039   -0.629432    0.012641
      3          6           0        3.092410   -1.119801    0.099131
      4          6           0        4.145282   -0.217179   -0.042372
      5          6           0        3.943853    1.144136   -0.264944
      6          6           0        2.629127    1.612291   -0.347861
      7          1           0        0.533306    1.103706   -0.275822
      8          1           0        0.950974   -1.315851    0.120074
      9          1           0        3.302649   -2.168478    0.270868
     10          1           0        4.796677    1.804056   -0.367973
     11          1           0        2.449876    2.669641   -0.520851
     12          7           0        5.532701   -0.724552    0.047299
     13          8           0        6.443068    0.091206   -0.080797
     14          8           0        5.683522   -1.928381    0.243983
     15          6           0       -5.648329   -0.039460   -0.295440
     16          6           0       -6.309129   -1.284476    0.297233
     17          6           0       -7.578431   -1.692969   -0.450964
     18          1           0       -6.367194    0.791194   -0.281621
     19          1           0       -5.408320   -0.227587   -1.351091
     20          1           0       -6.546564   -1.094544    1.351826
     21          1           0       -5.588544   -2.112212    0.282178
     22          1           0       -7.354206   -1.909301   -1.500499
     23          1           0       -8.317670   -0.885850   -0.424772
     24          1           0       -8.034480   -2.585138   -0.010607
     25          6           0       -4.378216    0.381367    0.441747
     26          6           0       -3.717415    1.626383   -0.150926
     27          6           0       -2.448112    2.034876    0.597271
     28          1           0       -4.618224    0.569494    1.497399
     29          1           0       -3.659349   -0.449286    0.427928
     30          1           0       -4.438000    2.454119   -0.135870
     31          1           0       -3.479980    1.436451   -1.205519
     32          1           0       -1.708874    1.227758    0.571080
     33          1           0       -2.672338    2.251207    1.646806
     34          1           0       -1.992065    2.927045    0.156914
 ---------------------------------------------------------------------

 SCF Done:  E(RHF) =  -669.535511685     A.U. after   15 cycles
 E2 =    -0.2090750809D+01 EUMP2 =    -0.67162626249458D+03

 The electronic state is 1-A.
 Alpha  occ. eigenvalues --  -20.60720 -20.60715 -15.85775 -11.31128 -11.27705
 Alpha  occ. eigenvalues --  -11.27699 -11.27392 -11.26711 -11.26696 -11.22585
 Alpha  occ. eigenvalues --  -11.22359 -11.22221 -11.22164 -11.22034 -11.21534
 Alpha  occ. eigenvalues --   -1.59797  -1.39350  -1.19301  -1.09212  -1.08693
 Alpha  occ. eigenvalues --   -1.04706  -1.04339  -0.96809  -0.95530  -0.87829
 Alpha  occ. eigenvalues --   -0.86102  -0.82368  -0.80409  -0.78983  -0.77418
 Alpha  occ. eigenvalues --   -0.71992  -0.71120  -0.70420  -0.65843  -0.64952
 Alpha  occ. eigenvalues --   -0.64714  -0.62057  -0.61745  -0.60193  -0.58392
 Alpha  occ. eigenvalues --   -0.56215  -0.55129  -0.53493  -0.53213  -0.53029
 Alpha  occ. eigenvalues --   -0.52798  -0.50732  -0.48758  -0.48748  -0.48707
 Alpha  occ. eigenvalues --   -0.47429  -0.46536  -0.46434  -0.44759  -0.44577
 Alpha  occ. eigenvalues --   -0.37271  -0.36315
 Alpha virt. eigenvalues --    0.05117   0.11338   0.16595   0.19894   0.22431
 Alpha virt. eigenvalues --    0.23747   0.25614   0.26289   0.26711   0.27367
 Alpha virt. eigenvalues --    0.29107   0.30545   0.30788   0.31160   0.31805

 Mulliken charges:
               1
     1  C   -0.176736
     2  C   -0.220818
     3  C   -0.170806
     4  C    0.158156
     5  C   -0.170711
     6  C   -0.220329
     7  H    0.236081
     8  H    0.222295
     9  H    0.275344
    10  H    0.275343
    11  H    0.223682
    12  N    0.488062
    13  O   -0.460586
    14  O   -0.460661
    15  C   -0.298927
    16  C   -0.300075
    17  C   -0.476125
    18  H    0.151409
    19  H    0.150081
    20  H    0.153003
    21  H    0.151624
    22  H    0.155719
    23  H    0.156118
    24  H    0.161902
    25  C   -0.298354
    26  C   -0.300146
    27  C   -0.480451
    28  H    0.151865
    29  H    0.146837
    30  H    0.156394
    31  H    0.152183
    32  H    0.146821
    33  H    0.162203
    34  H    0.159601
 Sum of Mulliken charges =  -0.00000

 Dipole moment (field-independent basis, Debye):
    X=             -5.1624    Y=              1.8296    Z=             -0.2935  Tot=              5.4849
 Quadrupole moment (field-independent basis, Debye-Ang):
   XX=           -134.8173   YY=            -91.0083   ZZ=            -95.2740
   XY=              9.5526   XZ=             -2.2535   YZ=             -0.5657

 Normal termination of Gaussian 16 at Thu May  6 06:25:40 2021.
