 Gaussian 16, Revision A.03,
 Gaussian 16:  EM64L-G16RevA.03 25-Dec-2016

 -------------
 #p 6-31g* mp2
 -------------

 ------------------------------------------------------
 Input file generated by CHIRIPA (05-May-2021 14:51:07)
 ------------------------------------------------------
 Symbolic Z-matrix:
 Charge =  0 Multiplicity = 1

                         Standard orientation:
 ---------------------------------------------------------------------
 Center     Atomic      Atomic             Coordinates (Angstroms)
 Number     Number       Type             X           Y           Z
 ---------------------------------------------------------------------
      1          6           0       -2.930256   -0.649661   -0.748794
      2          6           0       -2.252137   -1.871366   -0.127845
      3          6           0       -2.725470   -3.187697   -0.745115
      4          1           0       -4.018441   -0.741957   -0.629297
      5          1           0       -2.734225   -0.640142   -1.829940
      6          1           0       -2.448232   -1.877823    0.952026
      7          1           0       -1.165428   -1.776058   -0.248665
      8          1           0       -2.515210   -3.207023   -1.819367
      9          1           0       -3.805303   -3.309366   -0.611854
     10          1           0       -2.227981   -4.047960   -0.286515
     11          6           0       -2.467434    0.673784   -0.142151
     12          6           0       -3.145553    1.895489   -0.763100
     13          6           0       -2.672221    3.211820   -0.145831
     14          1           0       -2.663465    0.664265    0.938995
     15          1           0       -1.379249    0.766080   -0.261648
     16          1           0       -4.232262    1.800182   -0.642280
     17          1           0       -2.949458    1.901947   -1.842971
     18          1           0       -1.592388    3.333489   -0.279091
     19          1           0       -2.882480    3.231146    0.928422
     20          1           0       -3.169709    4.072083   -0.604430
     21          6           0        3.180021    0.406675    0.025281
     22          6           0        4.155122   -0.434736   -0.798850
     23          6           0        5.111281    0.417221   -1.634148
     24          1           0        2.602787    1.053489   -0.649537
     25          1           0        3.750355    1.074135    0.686048
     26          1           0        3.583110   -1.101391   -1.456870
     27          1           0        4.729966   -1.079761   -0.122010
     28          1           0        5.707050    1.071753   -0.989750
     29          1           0        4.553678    1.049999   -2.332195
     30          1           0        5.799466   -0.204459   -2.215333
     31          6           0        2.217669   -0.430798    0.865665
     32          6           0        1.242569    0.410613    1.689795
     33          6           0        0.286409   -0.441344    2.525092
     34          1           0        1.647335   -1.098257    0.204898
     35          1           0        2.794903   -1.077611    1.540481
     36          1           0        0.667723    1.055638    1.012955
     37          1           0        1.814579    1.077268    2.347815
     38          1           0        0.844013   -1.074122    3.223139
     39          1           0       -0.309360   -1.095876    1.880695
     40          1           0       -0.401776    0.180335    3.106278
 ---------------------------------------------------------------------

 SCF Done:  E(RHF) =  -470.731875920     A.U. after   11 cycles
 E2 =    -0.1585136555D+01 EUMP2 =    -0.47231701247478D+03

 The electronic state is 1-A.
 Alpha  occ. eigenvalues --  -11.21681 -11.21636 -11.21608 -11.21499 -11.21455
 Alpha  occ. eigenvalues --  -11.21399 -11.21381 -11.21337 -11.21128 -11.21106
 Alpha  occ. eigenvalues --  -11.21078 -11.20833  -1.08520  -1.08383  -1.03598
 Alpha  occ. eigenvalues --   -1.03473  -0.96035  -0.95923  -0.87063  -0.86937
 Alpha  occ. eigenvalues --   -0.79771  -0.79465  -0.78338  -0.78215  -0.65252
 Alpha  occ. eigenvalues --   -0.64928  -0.60993  -0.60900  -0.59464  -0.59261
 Alpha  occ. eigenvalues --   -0.57698  -0.57480  -0.55329  -0.55235  -0.52740
 Alpha  occ. eigenvalues --   -0.52617  -0.52504  -0.52304  -0.50001  -0.49909
 Alpha  occ. eigenvalues --   -0.48144  -0.47822  -0.46776  -0.46491  -0.46084
 Alpha  occ. eigenvalues --   -0.45774  -0.45512  -0.45363  -0.43834  -0.43736
 Alpha virt. eigenvalues --    0.20293   0.23300   0.23470   0.24017   0.25212
 Alpha virt. eigenvalues --    0.26282   0.27056   0.27911   0.28613   0.29696
 Alpha virt. eigenvalues --    0.30349   0.30841   0.31749   0.31761   0.32227

 Mulliken charges:
               1
     1  C   -0.297349
     2  C   -0.307221
     3  C   -0.474635
     4  H    0.149989
     5  H    0.149219
     6  H    0.155240
     7  H    0.154775
     8  H    0.155147
     9  H    0.155538
    10  H    0.160645
    11  C   -0.304477
    12  C   -0.299476
    13  C   -0.476059
    14  H    0.151688
    15  H    0.155016
    16  H    0.152080
    17  H    0.151629
    18  H    0.155031
    19  H    0.155425
    20  H    0.160548
    21  C   -0.297905
    22  C   -0.299595
    23  C   -0.475681
    24  H    0.148594
    25  H    0.149911
    26  H    0.151598
    27  H    0.152110
    28  H    0.155292
    29  H    0.155013
    30  H    0.160264
    31  C   -0.301012
    32  C   -0.303292
    33  C   -0.483543
    34  H    0.149923
    35  H    0.150071
    36  H    0.154962
    37  H    0.151716
    38  H    0.153238
    39  H    0.167078
    40  H    0.158506
 Sum of Mulliken charges =  -0.00000

 Dipole moment (field-independent basis, Debye):
    X=             -0.0656    Y=             -0.0211    Z=             -0.0168  Tot=              0.0709
 Quadrupole moment (field-independent basis, Debye-Ang):
   XX=            -84.3262   YY=            -86.0486   ZZ=            -84.3979
   XY=             -0.5194   XZ=              0.3423   YZ=             -0.0922

 Normal termination of Gaussian 16 at Wed May  5 22:53:41 2021.
