 Gaussian 16, Revision A.03,
 Gaussian 16:  EM64L-G16RevA.03 25-Dec-2016

 -------------
 #p 6-31g* mp2
 -------------

 ------------------------------------------------------
 Input file generated by CHIRIPA (05-May-2021 14:55:21)
 ------------------------------------------------------
 Symbolic Z-matrix:
 Charge =  0 Multiplicity = 1

                         Standard orientation:
 ---------------------------------------------------------------------
 Center     Atomic      Atomic             Coordinates (Angstroms)
 Number     Number       Type             X           Y           Z
 ---------------------------------------------------------------------
      1          6           0       -2.934787    2.135773   -1.131038
      2          6           0       -2.427014    2.389878    0.147289
      3          6           0       -2.052733    1.335168    0.985173
      4          6           0       -2.200302    0.032815    0.510422
      5          6           0       -2.703036   -0.252640   -0.758067
      6          6           0       -3.070937    0.817649   -1.578846
      7          1           0       -3.223059    2.961148   -1.775282
      8          1           0       -2.320176    3.412540    0.497707
      9          1           0       -1.656834    1.503401    1.979346
     10          1           0       -2.797922   -1.282729   -1.079520
     11          1           0       -3.464986    0.617322   -2.571136
     12          7           0       -1.807445   -1.092006    1.388398
     13          8           0       -1.947261   -2.230390    0.946620
     14          8           0       -1.367146   -0.813956    2.501709
     15          6           0        2.346259   -0.380349   -0.985235
     16          6           0        1.591776   -1.699510   -0.816254
     17          6           0        0.488577   -1.887214   -1.858134
     18          1           0        1.633516    0.453200   -0.920896
     19          1           0        2.782140   -0.341804   -1.993162
     20          1           0        1.158612   -1.736159    0.191537
     21          1           0        2.306425   -2.530007   -0.880812
     22          1           0        0.907947   -1.876923   -2.869383
     23          1           0       -0.246389   -1.078566   -1.790941
     24          1           0       -0.037872   -2.836584   -1.718823
     25          6           0        3.452269   -0.178240    0.048990
     26          6           0        4.206752    1.140921   -0.119990
     27          6           0        5.309951    1.328625    0.921889
     28          1           0        3.016388   -0.216786    1.056917
     29          1           0        4.165012   -1.011788   -0.015350
     30          1           0        3.492103    1.971417   -0.055433
     31          1           0        4.639916    1.177570   -1.127782
     32          1           0        6.044917    0.519976    0.854696
     33          1           0        4.890581    1.318335    1.933138
     34          1           0        5.836401    2.277995    0.782578
 ---------------------------------------------------------------------

 SCF Done:  E(RHF) =  -669.535191322     A.U. after   15 cycles
 E2 =    -0.2093693921D+01 EUMP2 =    -0.67162888524321D+03

 The electronic state is 1-A.
 Alpha  occ. eigenvalues --  -20.60908 -20.60882 -15.85934 -11.31272 -11.27864
 Alpha  occ. eigenvalues --  -11.27825 -11.27592 -11.26853 -11.26840 -11.21421
 Alpha  occ. eigenvalues --  -11.21124 -11.21078 -11.21029 -11.20893 -11.20633
 Alpha  occ. eigenvalues --   -1.59965  -1.39517  -1.19465  -1.08854  -1.08117
 Alpha  occ. eigenvalues --   -1.04865  -1.03217  -0.95741  -0.95637  -0.86725
 Alpha  occ. eigenvalues --   -0.86241  -0.82522  -0.79289  -0.77921  -0.77569
 Alpha  occ. eigenvalues --   -0.72153  -0.71307  -0.70566  -0.65110  -0.64864
 Alpha  occ. eigenvalues --   -0.64739  -0.62213  -0.60627  -0.59032  -0.57277
 Alpha  occ. eigenvalues --   -0.55378  -0.55031  -0.53211  -0.52946  -0.52357
 Alpha  occ. eigenvalues --   -0.52072  -0.49642  -0.48912  -0.48908  -0.47591
 Alpha  occ. eigenvalues --   -0.46317  -0.45472  -0.45374  -0.44897  -0.43465
 Alpha  occ. eigenvalues --   -0.37422  -0.36403
 Alpha virt. eigenvalues --    0.04930   0.11160   0.16399   0.21279   0.23037
 Alpha virt. eigenvalues --    0.24474   0.26872   0.27039   0.27711   0.27982
 Alpha virt. eigenvalues --    0.28797   0.30840   0.31580   0.31802   0.32144

 Mulliken charges:
               1
     1  C   -0.170210
     2  C   -0.218784
     3  C   -0.171269
     4  C    0.159765
     5  C   -0.172876
     6  C   -0.218828
     7  H    0.226216
     8  H    0.223834
     9  H    0.275758
    10  H    0.278818
    11  H    0.224549
    12  N    0.488663
    13  O   -0.459103
    14  O   -0.460556
    15  C   -0.298049
    16  C   -0.303138
    17  C   -0.482227
    18  H    0.146021
    19  H    0.146982
    20  H    0.161890
    21  H    0.152844
    22  H    0.149841
    23  H    0.151010
    24  H    0.168418
    25  C   -0.299245
    26  C   -0.298817
    27  C   -0.475667
    28  H    0.154085
    29  H    0.150187
    30  H    0.148853
    31  H    0.150564
    32  H    0.155742
    33  H    0.156317
    34  H    0.158414
 Sum of Mulliken charges =  -0.00000

 Dipole moment (field-independent basis, Debye):
    X=             -1.5060    Y=              3.8863    Z=             -2.9882  Tot=              5.1284
 Quadrupole moment (field-independent basis, Debye-Ang):
   XX=            -89.3257   YY=            -92.4158   ZZ=            -96.0690
   XY=             -8.6503   XZ=              6.6081   YZ=              4.5560

 Normal termination of Gaussian 16 at Thu May  6 01:23:49 2021.
