 Gaussian 16, Revision A.03,
 Gaussian 16:  EM64L-G16RevA.03 25-Dec-2016

 -------------
 #p 6-31g* mp2
 -------------

 ------------------------------------------------------
 Input file generated by CHIRIPA (05-May-2021 14:53:17)
 ------------------------------------------------------
 Symbolic Z-matrix:
 Charge =  0 Multiplicity = 1

                         Standard orientation:
 ---------------------------------------------------------------------
 Center     Atomic      Atomic             Coordinates (Angstroms)
 Number     Number       Type             X           Y           Z
 ---------------------------------------------------------------------
      1          6           0        3.371149   -0.453696   -0.644002
      2          6           0        3.001713   -1.848929   -0.139200
      3          6           0        2.626480   -2.806703   -1.270421
      4          1           0        2.526007   -0.040255   -1.211230
      5          1           0        4.209990   -0.536616   -1.348889
      6          1           0        2.164720   -1.763257    0.565583
      7          1           0        3.847762   -2.259019    0.427055
      8          1           0        3.460445   -2.921770   -1.970323
      9          1           0        1.767841   -2.423191   -1.831008
     10          1           0        2.365963   -3.798215   -0.887150
     11          6           0        3.748657    0.515176    0.475150
     12          6           0        4.118093    1.910409   -0.029653
     13          6           0        4.493326    2.868184    1.101569
     14          1           0        2.909816    0.598096    1.180036
     15          1           0        4.593799    0.101735    1.042378
     16          1           0        3.272044    2.320499   -0.595908
     17          1           0        4.955086    1.824737   -0.734435
     18          1           0        5.351965    2.484671    1.662156
     19          1           0        3.659361    2.983250    1.801471
     20          1           0        4.753843    3.859695    0.718298
     21          6           0       -1.545596   -1.986148    1.060597
     22          6           0       -1.062953   -1.369674   -0.098513
     23          6           0       -1.739388   -0.281772   -0.658380
     24          6           0       -2.900625    0.165676   -0.030200
     25          6           0       -3.406629   -0.427404    1.125441
     26          6           0       -2.713834   -1.513877    1.667804
     27          1           0       -1.013770   -2.830701    1.488717
     28          1           0       -0.155933   -1.734310   -0.572225
     29          1           0       -1.387920    0.214123   -1.555027
     30          1           0       -4.313430   -0.041416    1.575046
     31          1           0       -3.090986   -1.990684    2.568059
     32          7           0       -3.625397    1.316633   -0.613640
     33          8           0       -4.646220    1.691840   -0.041122
     34          8           0       -3.158927    1.821754   -1.632412
 ---------------------------------------------------------------------

 SCF Done:  E(RHF) =  -669.535312236     A.U. after   15 cycles
 E2 =    -0.2091984756D+01 EUMP2 =    -0.67162729699265D+03

 The electronic state is 1-A.
 Alpha  occ. eigenvalues --  -20.60767 -20.60762 -15.85820 -11.31187 -11.27754
 Alpha  occ. eigenvalues --  -11.27746 -11.27489 -11.26768 -11.26710 -11.22593
 Alpha  occ. eigenvalues --  -11.22223 -11.22141 -11.21961 -11.21886 -11.21320
 Alpha  occ. eigenvalues --   -1.59843  -1.39396  -1.19356  -1.09116  -1.08748
 Alpha  occ. eigenvalues --   -1.04763  -1.04219  -0.96668  -0.95585  -0.87680
 Alpha  occ. eigenvalues --   -0.86157  -0.82419  -0.80299  -0.78860  -0.77472
 Alpha  occ. eigenvalues --   -0.72039  -0.71166  -0.70464  -0.65891  -0.65006
 Alpha  occ. eigenvalues --   -0.64718  -0.62268  -0.61421  -0.60068  -0.58248
 Alpha  occ. eigenvalues --   -0.55994  -0.55234  -0.53363  -0.53101  -0.53089
 Alpha  occ. eigenvalues --   -0.52780  -0.50622  -0.48803  -0.48794  -0.48581
 Alpha  occ. eigenvalues --   -0.47360  -0.46406  -0.46302  -0.44802  -0.44445
 Alpha  occ. eigenvalues --   -0.37332  -0.36356
 Alpha virt. eigenvalues --    0.05062   0.11203   0.16536   0.19114   0.22919
 Alpha virt. eigenvalues --    0.23859   0.25573   0.26060   0.27055   0.28390
 Alpha virt. eigenvalues --    0.29050   0.30003   0.30934   0.31436   0.31987

 Mulliken charges:
               1
     1  C   -0.297338
     2  C   -0.305299
     3  C   -0.480977
     4  H    0.146534
     5  H    0.153083
     6  H    0.146727
     7  H    0.157352
     8  H    0.163887
     9  H    0.148582
    10  H    0.160789
    11  C   -0.299130
    12  C   -0.300557
    13  C   -0.476214
    14  H    0.150813
    15  H    0.150499
    16  H    0.154286
    17  H    0.152645
    18  H    0.154966
    19  H    0.156370
    20  H    0.162592
    21  C   -0.174415
    22  C   -0.226575
    23  C   -0.174351
    24  C    0.158931
    25  C   -0.171226
    26  C   -0.218353
    27  H    0.226322
    28  H    0.238577
    29  H    0.275381
    30  H    0.275578
    31  H    0.223401
    32  N    0.488081
    33  O   -0.460469
    34  O   -0.460491
 Sum of Mulliken charges =  -0.00000

 Dipole moment (field-independent basis, Debye):
    X=              2.7473    Y=             -4.0125    Z=              2.0671  Tot=              5.2840
 Quadrupole moment (field-independent basis, Debye-Ang):
   XX=           -106.0075   YY=            -97.1887   ZZ=            -93.0580
   XY=             11.9667   XZ=             -9.3955   YZ=             -0.3481

 Normal termination of Gaussian 16 at Wed May  5 17:15:57 2021.
