 Gaussian 16, Revision A.03,
 Gaussian 16:  EM64L-G16RevA.03 25-Dec-2016

 -------------
 #p 6-31g* mp2
 -------------

 ------------------------------------------------------
 Input file generated by CHIRIPA (05-May-2021 14:53:14)
 ------------------------------------------------------
 Symbolic Z-matrix:
 Charge =  0 Multiplicity = 1

                         Standard orientation:
 ---------------------------------------------------------------------
 Center     Atomic      Atomic             Coordinates (Angstroms)
 Number     Number       Type             X           Y           Z
 ---------------------------------------------------------------------
      1          6           0       -2.223653    1.304300    0.101149
      2          6           0       -1.445544    2.030479   -0.996665
      3          6           0       -0.344872    2.935011   -0.441566
      4          1           0       -2.664753    2.046029    0.781012
      5          1           0       -1.524611    0.706267    0.702057
      6          1           0       -2.146042    2.625877   -1.596180
      7          1           0       -1.006405    1.286940   -1.674103
      8          1           0        0.376331    2.351707    0.140004
      9          1           0       -0.769782    3.698253    0.218370
     10          1           0        0.198678    3.444322   -1.243449
     11          6           0       -3.327427    0.396205   -0.438086
     12          6           0       -4.105536   -0.329974    0.659729
     13          6           0       -5.206208   -1.234506    0.104629
     14          1           0       -4.026469    0.994238   -1.038994
     15          1           0       -2.886327   -0.345524   -1.117949
     16          1           0       -4.544675    0.413565    1.337167
     17          1           0       -3.405038   -0.925372    1.259244
     18          1           0       -4.781298   -1.997747   -0.555306
     19          1           0       -5.927411   -0.651202   -0.476941
     20          1           0       -5.749758   -1.743817    0.906512
     21          6           0        3.940008    1.116840    0.366090
     22          6           0        4.084855    0.107156   -0.591030
     23          6           0        3.109534   -0.884834   -0.729789
     24          6           0        1.997117   -0.836450    0.108948
     25          6           0        1.824197    0.156459    1.072027
     26          6           0        2.812130    1.138231    1.193105
     27          1           0        4.702560    1.883473    0.467014
     28          1           0        4.959733    0.088039   -1.234667
     29          1           0        3.196429   -1.678025   -1.462397
     30          1           0        0.941048    0.149133    1.699251
     31          1           0        2.696995    1.921156    1.937294
     32          7           0        0.957912   -1.881217   -0.028591
     33          8           0       -0.012817   -1.816317    0.722480
     34          8           0        1.133791   -2.745221   -0.884862
 ---------------------------------------------------------------------

 SCF Done:  E(RHF) =  -669.535036963     A.U. after   15 cycles
 E2 =    -0.2094561936D+01 EUMP2 =    -0.67162959889953D+03

 The electronic state is 1-A.
 Alpha  occ. eigenvalues --  -20.61027 -20.61022 -15.86052 -11.31352 -11.27907
 Alpha  occ. eigenvalues --  -11.27903 -11.27628 -11.26904 -11.26891 -11.21306
 Alpha  occ. eigenvalues --  -11.20954 -11.20826 -11.20727 -11.20609 -11.20268
 Alpha  occ. eigenvalues --   -1.60083  -1.39640  -1.19527  -1.08923  -1.07830
 Alpha  occ. eigenvalues --   -1.04931  -1.02989  -0.95774  -0.95459  -0.86494
 Alpha  occ. eigenvalues --   -0.86314  -0.82610  -0.79091  -0.77760  -0.77520
 Alpha  occ. eigenvalues --   -0.72277  -0.71401  -0.70628  -0.65182  -0.64928
 Alpha  occ. eigenvalues --   -0.64429  -0.62272  -0.60393  -0.58864  -0.57080
 Alpha  occ. eigenvalues --   -0.55409  -0.54875  -0.53203  -0.53005  -0.52179
 Alpha  occ. eigenvalues --   -0.51869  -0.49434  -0.49028  -0.49005  -0.47401
 Alpha  occ. eigenvalues --   -0.46119  -0.45327  -0.45104  -0.44751  -0.43219
 Alpha  occ. eigenvalues --   -0.37492  -0.36404
 Alpha virt. eigenvalues --    0.04808   0.11052   0.16227   0.20882   0.23421
 Alpha virt. eigenvalues --    0.24780   0.25989   0.27332   0.27739   0.28497
 Alpha virt. eigenvalues --    0.29346   0.30944   0.31771   0.32130   0.32306

 Mulliken charges:
               1
     1  C   -0.306410
     2  C   -0.298836
     3  C   -0.481233
     4  H    0.144616
     5  H    0.158962
     6  H    0.151412
     7  H    0.151933
     8  H    0.154508
     9  H    0.151888
    10  H    0.157669
    11  C   -0.296139
    12  C   -0.302511
    13  C   -0.475989
    14  H    0.144888
    15  H    0.156740
    16  H    0.145925
    17  H    0.164707
    18  H    0.159582
    19  H    0.151043
    20  H    0.158290
    21  C   -0.170074
    22  C   -0.218330
    23  C   -0.170953
    24  C    0.159014
    25  C   -0.173609
    26  C   -0.216862
    27  H    0.226627
    28  H    0.224163
    29  H    0.275977
    30  H    0.278827
    31  H    0.225772
    32  N    0.488801
    33  O   -0.461885
    34  O   -0.458515
 Sum of Mulliken charges =  -0.00000

 Dipole moment (field-independent basis, Debye):
    X=              3.8644    Y=              3.4315    Z=              0.4996  Tot=              5.1922
 Quadrupole moment (field-independent basis, Debye-Ang):
   XX=            -79.6846   YY=           -100.9603   ZZ=            -92.3810
   XY=              2.5475   XZ=             -1.0685   YZ=              1.7934

 Normal termination of Gaussian 16 at Wed May  5 15:35:46 2021.
