 Gaussian 16, Revision A.03,
 Gaussian 16:  EM64L-G16RevA.03 25-Dec-2016

 -------------
 #p 6-31g* mp2
 -------------

 ------------------------------------------------------
 Input file generated by CHIRIPA (05-May-2021 14:57:25)
 ------------------------------------------------------
 Symbolic Z-matrix:
 Charge =  0 Multiplicity = 1

                         Standard orientation:
 ---------------------------------------------------------------------
 Center     Atomic      Atomic             Coordinates (Angstroms)
 Number     Number       Type             X           Y           Z
 ---------------------------------------------------------------------
      1          6           0        1.475382    1.504919   -0.343345
      2          6           0        2.651672    2.208813   -0.065143
      3          6           0        3.875524    1.538995    0.024747
      4          6           0        3.886591    0.158694   -0.170026
      5          6           0        2.731703   -0.570631   -0.448608
      6          6           0        1.519074    0.119886   -0.533853
      7          1           0        0.529024    2.033290   -0.411370
      8          1           0        2.620743    3.284481    0.083267
      9          1           0        4.801239    2.059203    0.238883
     10          1           0        2.794174   -1.642563   -0.591713
     11          1           0        0.607131   -0.429359   -0.750038
     12          7           0        5.176286   -0.561369   -0.077321
     13          8           0        5.159325   -1.777710   -0.253001
     14          8           0        6.179692    0.104222    0.169264
     15          6           0       -5.720735    0.825997   -0.794245
     16          6           0       -5.227674   -0.357176   -1.354164
     17          6           0       -4.094368   -0.977227   -0.819652
     18          6           0       -3.476166   -0.384039    0.280004
     19          6           0       -3.943339    0.794270    0.860200
     20          6           0       -5.078126    1.396939    0.309205
     21          1           0       -6.601690    1.300916   -1.215868
     22          1           0       -5.724693   -0.802829   -2.211143
     23          1           0       -3.691413   -1.893657   -1.233417
     24          1           0       -3.426401    1.214791    1.714224
     25          1           0       -5.458817    2.315760    0.746112
     26          7           0       -2.275600   -1.031257    0.854593
     27          8           0       -1.749101   -0.488626    1.823606
     28          8           0       -1.883830   -2.068923    0.325062
 ---------------------------------------------------------------------

 SCF Done:  E(RHF) =  -868.338850066     A.U. after   16 cycles
 E2 =    -0.2599142871D+01 EUMP2 =    -0.87093799293673D+03

 The electronic state is 1-A.
 Alpha  occ. eigenvalues --  -20.61832 -20.61812 -20.60082 -20.60068 -15.86843
 Alpha  occ. eigenvalues --  -15.85125 -11.32057 -11.30379 -11.28603 -11.28587
 Alpha  occ. eigenvalues --  -11.28283 -11.27562 -11.27544 -11.26973 -11.26852
 Alpha  occ. eigenvalues --  -11.26685 -11.26011 -11.25820  -1.60901  -1.59154
 Alpha  occ. eigenvalues --   -1.40450  -1.38711  -1.20210  -1.18534  -1.09629
 Alpha  occ. eigenvalues --   -1.07964  -1.05578  -1.03908  -0.96486  -0.94819
 Alpha  occ. eigenvalues --   -0.86981  -0.85327  -0.83313  -0.81643  -0.78392
 Alpha  occ. eigenvalues --   -0.76699  -0.73044  -0.72244  -0.71349  -0.71293
 Alpha  occ. eigenvalues --   -0.70473  -0.69682  -0.65851  -0.65562  -0.64192
 Alpha  occ. eigenvalues --   -0.63909  -0.62920  -0.61254  -0.56064  -0.54471
 Alpha  occ. eigenvalues --   -0.53928  -0.53655  -0.52252  -0.52003  -0.49826
 Alpha  occ. eigenvalues --   -0.49793  -0.48108  -0.48096  -0.45873  -0.44141
 Alpha  occ. eigenvalues --   -0.38180  -0.37179  -0.36522  -0.35489
 Alpha virt. eigenvalues --    0.04093   0.05818   0.10474   0.12151   0.15620
 Alpha virt. eigenvalues --    0.17341   0.20680   0.22153   0.26615   0.27471
 Alpha virt. eigenvalues --    0.28108   0.28969   0.30345   0.31440   0.32042

 Mulliken charges:
               1
     1  C   -0.168527
     2  C   -0.218616
     3  C   -0.172396
     4  C    0.158132
     5  C   -0.171279
     6  C   -0.214816
     7  H    0.219784
     8  H    0.219109
     9  H    0.272674
    10  H    0.277599
    11  H    0.230828
    12  N    0.488118
    13  O   -0.460429
    14  O   -0.463338
    15  C   -0.170082
    16  C   -0.218344
    17  C   -0.171682
    18  C    0.155378
    19  C   -0.173092
    20  C   -0.218611
    21  H    0.228525
    22  H    0.226384
    23  H    0.276748
    24  H    0.275992
    25  H    0.225660
    26  N    0.484837
    27  O   -0.456499
    28  O   -0.462056
 Sum of Mulliken charges =  -0.00000

 Dipole moment (field-independent basis, Debye):
    X=             -9.1880    Y=              4.7091    Z=             -2.3295  Tot=             10.5840
 Quadrupole moment (field-independent basis, Debye-Ang):
   XX=           -110.4708   YY=           -100.0972   ZZ=           -104.4428
   XY=              4.8267   XZ=              6.4885   YZ=              4.8698

 Normal termination of Gaussian 16 at Wed May  5 17:59:01 2021.
