 Gaussian 16, Revision A.03,
 Gaussian 16:  EM64L-G16RevA.03 25-Dec-2016

 -------------
 #p 6-31g* mp2
 -------------

 ------------------------------------------------------
 Input file generated by CHIRIPA (05-May-2021 14:55:25)
 ------------------------------------------------------
 Symbolic Z-matrix:
 Charge =  0 Multiplicity = 1

                         Standard orientation:
 ---------------------------------------------------------------------
 Center     Atomic      Atomic             Coordinates (Angstroms)
 Number     Number       Type             X           Y           Z
 ---------------------------------------------------------------------
      1          6           0        2.581724    2.753607    0.492446
      2          6           0        1.450799    1.941137    0.360455
      3          6           0        1.583302    0.585549    0.045223
      4          6           0        2.867580    0.073186   -0.131989
      5          6           0        4.013631    0.856958   -0.007252
      6          6           0        3.857282    2.209883    0.308495
      7          1           0        2.469530    3.805626    0.737526
      8          1           0        0.458944    2.360684    0.502753
      9          1           0        0.724791   -0.066126   -0.062932
     10          1           0        4.989293    0.410116   -0.155009
     11          1           0        4.737356    2.838480    0.410375
     12          7           0        3.020477   -1.360505   -0.465984
     13          8           0        4.162960   -1.787737   -0.617120
     14          8           0        1.994940   -2.029853   -0.570309
     15          6           0       -2.909154   -0.619378    0.143365
     16          6           0       -2.741417   -2.035050    0.696289
     17          6           0       -1.277211   -2.467349    0.780035
     18          1           0       -2.451848   -0.565589   -0.854093
     19          1           0       -2.354174    0.083554    0.779980
     20          1           0       -3.297684   -2.734928    0.059614
     21          1           0       -3.199344   -2.085526    1.692467
     22          1           0       -0.712872   -1.792251    1.431468
     23          1           0       -0.811771   -2.445341   -0.210663
     24          1           0       -1.180411   -3.482342    1.177877
     25          6           0       -4.367340   -0.172880    0.053609
     26          6           0       -4.535077    1.242792   -0.499315
     27          6           0       -5.999283    1.675090   -0.583061
     28          1           0       -4.922320   -0.875812   -0.583006
     29          1           0       -4.824647   -0.226669    1.051067
     30          1           0       -4.077150    1.293269   -1.495492
     31          1           0       -3.978811    1.942670    0.137360
     32          1           0       -6.464723    1.653084    0.407637
     33          1           0       -6.563623    0.999993   -1.234494
     34          1           0       -6.096083    2.690084   -0.980903
 ---------------------------------------------------------------------

 SCF Done:  E(RHF) =  -669.535685080     A.U. after   15 cycles
 E2 =    -0.2092096200D+01 EUMP2 =    -0.67162778128040D+03

 The electronic state is 1-A.
 Alpha  occ. eigenvalues --  -20.60762 -20.60755 -15.85806 -11.31142 -11.27723
 Alpha  occ. eigenvalues --  -11.27667 -11.27466 -11.26737 -11.26714 -11.21915
 Alpha  occ. eigenvalues --  -11.21666 -11.21583 -11.21447 -11.21319 -11.20542
 Alpha  occ. eigenvalues --   -1.59833  -1.39388  -1.19319  -1.08723  -1.08590
 Alpha  occ. eigenvalues --   -1.04716  -1.03568  -0.95997  -0.95555  -0.87001
 Alpha  occ. eigenvalues --   -0.86117  -0.82394  -0.79645  -0.78449  -0.77414
 Alpha  occ. eigenvalues --   -0.72034  -0.71151  -0.70431  -0.65221  -0.64972
 Alpha  occ. eigenvalues --   -0.64724  -0.62073  -0.60954  -0.59401  -0.57613
 Alpha  occ. eigenvalues --   -0.55280  -0.55215  -0.53053  -0.52847  -0.52630
 Alpha  occ. eigenvalues --   -0.52386  -0.49940  -0.48811  -0.48783  -0.47882
 Alpha  occ. eigenvalues --   -0.46675  -0.45942  -0.45864  -0.44787  -0.43844
 Alpha  occ. eigenvalues --   -0.37308  -0.36319
 Alpha virt. eigenvalues --    0.05071   0.11301   0.16571   0.20327   0.22855
 Alpha virt. eigenvalues --    0.23802   0.25705   0.26467   0.27306   0.28259
 Alpha virt. eigenvalues --    0.29727   0.30991   0.31440   0.31645   0.32219

 Mulliken charges:
               1
     1  C   -0.170447
     2  C   -0.221362
     3  C   -0.175920
     4  C    0.156482
     5  C   -0.170452
     6  C   -0.218968
     7  H    0.225395
     8  H    0.224197
     9  H    0.285931
    10  H    0.275344
    11  H    0.223224
    12  N    0.491553
    13  O   -0.460412
    14  O   -0.464165
    15  C   -0.299995
    16  C   -0.300765
    17  C   -0.480358
    18  H    0.149663
    19  H    0.139638
    20  H    0.153516
    21  H    0.150286
    22  H    0.147353
    23  H    0.174268
    24  H    0.164451
    25  C   -0.297662
    26  C   -0.299376
    27  C   -0.475696
    28  H    0.152343
    29  H    0.150619
    30  H    0.151967
    31  H    0.146920
    32  H    0.155706
    33  H    0.156934
    34  H    0.159787
 Sum of Mulliken charges =  -0.00000

 Dipole moment (field-independent basis, Debye):
    X=             -0.5360    Y=              4.8789    Z=              1.1084  Tot=              5.0318
 Quadrupole moment (field-independent basis, Debye-Ang):
   XX=            -93.8374   YY=            -94.2002   ZZ=            -95.1645
   XY=             15.8958   XZ=              3.4520   YZ=             -0.0707

 Normal termination of Gaussian 16 at Thu May  6 11:04:07 2021.
