 Gaussian 16, Revision A.03,
 Gaussian 16:  EM64L-G16RevA.03 25-Dec-2016

 -------------
 #p 6-31g* mp2
 -------------

 ------------------------------------------------------
 Input file generated by CHIRIPA (05-May-2021 14:57:22)
 ------------------------------------------------------
 Symbolic Z-matrix:
 Charge =  0 Multiplicity = 1

                         Standard orientation:
 ---------------------------------------------------------------------
 Center     Atomic      Atomic             Coordinates (Angstroms)
 Number     Number       Type             X           Y           Z
 ---------------------------------------------------------------------
      1          6           0       -1.172512   -1.295624    1.040486
      2          6           0       -2.430990   -1.547224    1.596770
      3          6           0       -3.566152   -0.891969    1.110358
      4          6           0       -3.405686    0.012719    0.061988
      5          6           0       -2.165355    0.284749   -0.513224
      6          6           0       -1.043937   -0.382051   -0.010881
      7          1           0       -0.296029   -1.809126    1.424530
      8          1           0       -2.533835   -2.256205    2.413356
      9          1           0       -4.552355   -1.067906    1.522509
     10          1           0       -2.094374    0.996884   -1.326393
     11          1           0       -0.067837   -0.184681   -0.444838
     12          7           0       -4.600156    0.712519   -0.461387
     13          8           0       -4.432157    1.505002   -1.385716
     14          8           0       -5.681764    0.455288    0.062631
     15          6           0        3.585184    2.205787    1.193749
     16          6           0        3.229678    2.291140   -0.156381
     17          6           0        3.018654    1.132433   -0.909650
     18          6           0        3.172438   -0.100710   -0.277985
     19          6           0        3.525808   -0.218532    1.065345
     20          6           0        3.731856    0.953431    1.799235
     21          1           0        3.747181    3.111047    1.771380
     22          1           0        3.115063    3.262384   -0.629237
     23          1           0        2.742701    1.169584   -1.956496
     24          1           0        3.632605   -1.200956    1.509031
     25          1           0        4.007870    0.884113    2.847595
     26          7           0        2.951670   -1.334398   -1.065180
     27          8           0        3.093450   -2.408776   -0.485313
     28          8           0        2.641033   -1.203623   -2.247144
 ---------------------------------------------------------------------

 SCF Done:  E(RHF) =  -868.338330660     A.U. after   16 cycles
 E2 =    -0.2600290047D+01 EUMP2 =    -0.87093862070699D+03

 The electronic state is 1-A.
 Alpha  occ. eigenvalues --  -20.61857 -20.61839 -20.60600 -20.60595 -15.86889
 Alpha  occ. eigenvalues --  -15.85651 -11.32220 -11.30954 -11.28747 -11.28731
 Alpha  occ. eigenvalues --  -11.28390 -11.27704 -11.27682 -11.27521 -11.27512
 Alpha  occ. eigenvalues --  -11.27213 -11.26518 -11.26482  -1.60933  -1.59677
 Alpha  occ. eigenvalues --   -1.40481  -1.39232  -1.20361  -1.19116  -1.09748
 Alpha  occ. eigenvalues --   -1.08516  -1.05726  -1.04512  -0.96589  -0.95364
 Alpha  occ. eigenvalues --   -0.87122  -0.85915  -0.83404  -0.82201  -0.78482
 Alpha  occ. eigenvalues --   -0.77267  -0.73082  -0.72301  -0.71869  -0.71405
 Alpha  occ. eigenvalues --   -0.70998  -0.70209  -0.65982  -0.65688  -0.64768
 Alpha  occ. eigenvalues --   -0.64520  -0.63061  -0.61873  -0.56174  -0.54998
 Alpha  occ. eigenvalues --   -0.54093  -0.53787  -0.52837  -0.52587  -0.49858
 Alpha  occ. eigenvalues --   -0.49843  -0.48630  -0.48624  -0.45876  -0.44652
 Alpha  occ. eigenvalues --   -0.38312  -0.37333  -0.37076  -0.36111
 Alpha virt. eigenvalues --    0.04010   0.05274   0.10235   0.11543   0.15541
 Alpha virt. eigenvalues --    0.16791   0.20548   0.21426   0.26422   0.26863
 Alpha virt. eigenvalues --    0.27559   0.28433   0.30372   0.30590   0.32253

 Mulliken charges:
               1
     1  C   -0.170943
     2  C   -0.218766
     3  C   -0.171546
     4  C    0.158387
     5  C   -0.172312
     6  C   -0.217258
     7  H    0.227712
     8  H    0.222738
     9  H    0.274650
    10  H    0.274161
    11  H    0.223155
    12  N    0.488160
    13  O   -0.461484
    14  O   -0.461116
    15  C   -0.169725
    16  C   -0.216685
    17  C   -0.178018
    18  C    0.152460
    19  C   -0.175050
    20  C   -0.217223
    21  H    0.230114
    22  H    0.228282
    23  H    0.277798
    24  H    0.275500
    25  H    0.226622
    26  N    0.487240
    27  O   -0.459697
    28  O   -0.457158
 Sum of Mulliken charges =  -0.00000

 Dipole moment (field-independent basis, Debye):
    X=              5.2674    Y=              1.9892    Z=              4.6653  Tot=              7.3121
 Quadrupole moment (field-independent basis, Debye-Ang):
   XX=           -127.5613   YY=           -103.6157   ZZ=           -101.1134
   XY=             23.8542   XZ=              1.6132   YZ=             -5.9201

 Normal termination of Gaussian 16 at Fri May  7 03:17:03 2021.
