 Gaussian 16, Revision A.03,
 Gaussian 16:  EM64L-G16RevA.03 25-Dec-2016

 -------------
 #p 6-31g* mp2
 -------------

 ------------------------------------------------------
 Input file generated by CHIRIPA (05-May-2021 14:57:26)
 ------------------------------------------------------
 Symbolic Z-matrix:
 Charge =  0 Multiplicity = 1

                         Standard orientation:
 ---------------------------------------------------------------------
 Center     Atomic      Atomic             Coordinates (Angstroms)
 Number     Number       Type             X           Y           Z
 ---------------------------------------------------------------------
      1          6           0       -3.683611   -2.012854    0.933932
      2          6           0       -2.299912   -1.876121    0.781604
      3          6           0       -1.755876   -0.698103    0.261177
      4          6           0       -2.628727    0.327678   -0.098260
      5          6           0       -4.011674    0.221679    0.041426
      6          6           0       -4.533577   -0.965364    0.564009
      7          1           0       -4.097634   -2.931473    1.339050
      8          1           0       -1.637412   -2.687964    1.068047
      9          1           0       -0.688487   -0.565573    0.132588
     10          1           0       -4.646740    1.048370   -0.253009
     11          1           0       -5.608576   -1.068757    0.681192
     12          7           0       -2.064496    1.579570   -0.650355
     13          8           0       -2.854880    2.468589   -0.959510
     14          8           0       -0.842552    1.648080   -0.763477
     15          6           0        2.916066    1.551043    1.886432
     16          6           0        2.624265    1.986171    0.589498
     17          6           0        2.514224    1.068433   -0.459404
     18          6           0        2.702930   -0.283032   -0.174402
     19          6           0        2.994700   -0.747617    1.107129
     20          6           0        3.100027    0.187941    2.140659
     21          1           0        2.999718    2.270885    2.695274
     22          1           0        2.480897    3.044160    0.389128
     23          1           0        2.289241    1.377890   -1.472832
     24          1           0        3.132334   -1.808735    1.275964
     25          1           0        3.326740   -0.152858    3.146892
     26          7           0        2.588930   -1.264032   -1.276691
     27          8           0        2.759641   -2.449219   -0.999515
     28          8           0        2.331024   -0.829178   -2.396969
 ---------------------------------------------------------------------

 SCF Done:  E(RHF) =  -868.339154376     A.U. after   16 cycles
 E2 =    -0.2600618255D+01 EUMP2 =    -0.87093977263150D+03

 The electronic state is 1-A.
 Alpha  occ. eigenvalues --  -20.60937 -20.60919 -20.60596 -20.60542 -15.85972
 Alpha  occ. eigenvalues --  -15.85621 -11.31158 -11.30801 -11.27724 -11.27685
 Alpha  occ. eigenvalues --  -11.27468 -11.27430 -11.27216 -11.27074 -11.26708
 Alpha  occ. eigenvalues --  -11.26656 -11.26407 -11.26164  -1.59999  -1.59665
 Alpha  occ. eigenvalues --   -1.39559  -1.39213  -1.19317  -1.18970  -1.08748
 Alpha  occ. eigenvalues --   -1.08406  -1.04692  -1.04302  -0.95618  -0.95256
 Alpha  occ. eigenvalues --   -0.86101  -0.85727  -0.82462  -0.82067  -0.77527
 Alpha  occ. eigenvalues --   -0.77135  -0.72234  -0.71827  -0.71303  -0.71015
 Alpha  occ. eigenvalues --   -0.70428  -0.70055  -0.64978  -0.64697  -0.64602
 Alpha  occ. eigenvalues --   -0.64295  -0.62045  -0.61635  -0.55213  -0.54845
 Alpha  occ. eigenvalues --   -0.53032  -0.52870  -0.52587  -0.52382  -0.48964
 Alpha  occ. eigenvalues --   -0.48945  -0.48603  -0.48569  -0.45002  -0.44650
 Alpha  occ. eigenvalues --   -0.37294  -0.36980  -0.36284  -0.35837
 Alpha virt. eigenvalues --    0.04983   0.05369   0.11371   0.11770   0.16499
 Alpha virt. eigenvalues --    0.16893   0.21400   0.21898   0.27096   0.27823
 Alpha virt. eigenvalues --    0.28119   0.28770   0.30812   0.31435   0.32118

 Mulliken charges:
               1
     1  C   -0.170226
     2  C   -0.219328
     3  C   -0.168749
     4  C    0.156982
     5  C   -0.170752
     6  C   -0.218908
     7  H    0.226047
     8  H    0.226564
     9  H    0.275657
    10  H    0.274834
    11  H    0.223193
    12  N    0.492000
    13  O   -0.460394
    14  O   -0.468759
    15  C   -0.171724
    16  C   -0.213967
    17  C   -0.153782
    18  C    0.146904
    19  C   -0.178404
    20  C   -0.220026
    21  H    0.224749
    22  H    0.229348
    23  H    0.283852
    24  H    0.270931
    25  H    0.220090
    26  N    0.486522
    27  O   -0.467332
    28  O   -0.455322
 Sum of Mulliken charges =  -0.00000

 Dipole moment (field-independent basis, Debye):
    X=             -1.6768    Y=             -0.6842    Z=              5.6773  Tot=              5.9592
 Quadrupole moment (field-independent basis, Debye-Ang):
   XX=            -88.8387   YY=           -106.8508   ZZ=           -105.7809
   XY=             18.5673   XZ=              6.3094   YZ=             -3.6794

 Normal termination of Gaussian 16 at Thu May  6 05:12:03 2021.
