 Gaussian 16, Revision A.03,
 Gaussian 16:  EM64L-G16RevA.03 25-Dec-2016

 -------------
 #p 6-31g* mp2
 -------------

 ------------------------------------------------------
 Input file generated by CHIRIPA (05-May-2021 14:51:08)
 ------------------------------------------------------
 Symbolic Z-matrix:
 Charge =  0 Multiplicity = 1

                         Standard orientation:
 ---------------------------------------------------------------------
 Center     Atomic      Atomic             Coordinates (Angstroms)
 Number     Number       Type             X           Y           Z
 ---------------------------------------------------------------------
      1          6           0        3.697097   -0.318470    0.175944
      2          6           0        4.717257   -1.142933   -0.609879
      3          6           0        4.792203   -2.595592   -0.138754
      4          1           0        3.956489   -0.346409    1.243127
      5          1           0        2.707467   -0.786752    0.082453
      6          1           0        5.704413   -0.672465   -0.516072
      7          1           0        4.455515   -1.112870   -1.675339
      8          1           0        3.819909   -3.086759   -0.248300
      9          1           0        5.075902   -2.643852    0.917554
     10          1           0        5.527555   -3.166767   -0.713973
     11          6           0        3.610629    1.135914   -0.283423
     12          6           0        2.590468    1.960377    0.502400
     13          6           0        2.515523    3.413036    0.031275
     14          1           0        4.600258    1.604196   -0.189933
     15          1           0        3.351236    1.163853   -1.350606
     16          1           0        2.852210    1.930314    1.567859
     17          1           0        1.603312    1.489909    0.408593
     18          1           0        2.231823    3.461296   -1.025033
     19          1           0        3.487817    3.904203    0.140820
     20          1           0        1.780170    3.984211    0.606493
     21          6           0       -4.183220    0.061034   -0.233561
     22          6           0       -5.614728   -0.369323    0.088253
     23          6           0       -6.662409    0.580399   -0.493283
     24          1           0       -4.016123    1.075316    0.154066
     25          1           0       -4.061633    0.119209   -1.324078
     26          1           0       -5.733180   -0.428009    1.177813
     27          1           0       -5.778375   -1.382774   -0.300018
     28          1           0       -6.573012    0.631828   -1.583220
     29          1           0       -6.527560    1.592017   -0.096993
     30          1           0       -7.678619    0.253895   -0.251264
     31          6           0       -3.124505   -0.878479    0.341041
     32          6           0       -1.692998   -0.448121    0.019226
     33          6           0       -0.645316   -1.397843    0.600763
     34          1           0       -3.246093   -0.936654    1.431557
     35          1           0       -3.291602   -1.892761   -0.046586
     36          1           0       -1.529351    0.565329    0.407497
     37          1           0       -1.574545   -0.389435   -1.070333
     38          1           0       -0.780166   -2.409461    0.204472
     39          1           0       -0.734714   -1.449272    1.690699
     40          1           0        0.370894   -1.071339    0.358743
 ---------------------------------------------------------------------

 SCF Done:  E(RHF) =  -470.733267100     A.U. after   11 cycles
 E2 =    -0.1582985926D+01 EUMP2 =    -0.47231625302640D+03

 The electronic state is 1-A.
 Alpha  occ. eigenvalues --  -11.21644 -11.21615 -11.21598 -11.21593 -11.21428
 Alpha  occ. eigenvalues --  -11.21400 -11.21368 -11.21340 -11.21089 -11.21081
 Alpha  occ. eigenvalues --  -11.21069 -11.21050  -1.08458  -1.08426  -1.03556
 Alpha  occ. eigenvalues --   -1.03521  -0.96012  -0.95965  -0.87027  -0.86982
 Alpha  occ. eigenvalues --   -0.79630  -0.79574  -0.78265  -0.78248  -0.65096
 Alpha  occ. eigenvalues --   -0.65069  -0.60969  -0.60898  -0.59397  -0.59333
 Alpha  occ. eigenvalues --   -0.57664  -0.57545  -0.55289  -0.55262  -0.52775
 Alpha  occ. eigenvalues --   -0.52639  -0.52445  -0.52360  -0.49940  -0.49913
 Alpha  occ. eigenvalues --   -0.47965  -0.47890  -0.46666  -0.46606  -0.45806
 Alpha  occ. eigenvalues --   -0.45778  -0.45741  -0.45681  -0.43797  -0.43725
 Alpha virt. eigenvalues --    0.20735   0.23064   0.23849   0.24304   0.25943
 Alpha virt. eigenvalues --    0.26595   0.27079   0.27392   0.27940   0.28934
 Alpha virt. eigenvalues --    0.30492   0.31431   0.31665   0.31875   0.32194

 Mulliken charges:
               1
     1  C   -0.307316
     2  C   -0.298926
     3  C   -0.475845
     4  H    0.149845
     5  H    0.157511
     6  H    0.151950
     7  H    0.151753
     8  H    0.155595
     9  H    0.155241
    10  H    0.160135
    11  C   -0.297736
    12  C   -0.303455
    13  C   -0.475550
    14  H    0.149668
    15  H    0.149385
    16  H    0.151972
    17  H    0.155385
    18  H    0.155294
    19  H    0.155223
    20  H    0.160080
    21  C   -0.298264
    22  C   -0.299668
    23  C   -0.475720
    24  H    0.149751
    25  H    0.149490
    26  H    0.151997
    27  H    0.151960
    28  H    0.155183
    29  H    0.155229
    30  H    0.160308
    31  C   -0.298616
    32  C   -0.299784
    33  C   -0.485759
    34  H    0.149761
    35  H    0.149777
    36  H    0.152644
    37  H    0.151574
    38  H    0.155079
    39  H    0.156008
    40  H    0.168839
 Sum of Mulliken charges =  -0.00000

 Dipole moment (field-independent basis, Debye):
    X=             -0.0054    Y=             -0.0042    Z=              0.0079  Tot=              0.0104
 Quadrupole moment (field-independent basis, Debye-Ang):
   XX=            -85.0459   YY=            -85.9360   ZZ=            -83.7459
   XY=              0.8887   XZ=              0.1784   YZ=              1.1173

 Normal termination of Gaussian 16 at Wed May  5 22:55:12 2021.
