 Gaussian 16, Revision A.03,
 Gaussian 16:  EM64L-G16RevA.03 25-Dec-2016

 -------------
 #p 6-31g* mp2
 -------------

 ------------------------------------------------------
 Input file generated by CHIRIPA (05-May-2021 14:57:25)
 ------------------------------------------------------
 Symbolic Z-matrix:
 Charge =  0 Multiplicity = 1

                         Standard orientation:
 ---------------------------------------------------------------------
 Center     Atomic      Atomic             Coordinates (Angstroms)
 Number     Number       Type             X           Y           Z
 ---------------------------------------------------------------------
      1          6           0       -2.340534   -2.257023    0.559256
      2          6           0       -2.938960   -1.685202   -0.568320
      3          6           0       -2.948457   -0.297823   -0.740474
      4          6           0       -2.347631    0.491377    0.239046
      5          6           0       -1.743372   -0.048428    1.373406
      6          6           0       -1.745699   -1.438255    1.524818
      7          1           0       -2.337749   -3.335723    0.684933
      8          1           0       -3.401673   -2.318612   -1.319808
      9          1           0       -3.404651    0.171256   -1.603764
     10          1           0       -1.290087    0.608870    2.105464
     11          1           0       -1.280211   -1.879571    2.401519
     12          7           0       -2.351426    1.961429    0.067774
     13          8           0       -1.815368    2.634863    0.945137
     14          8           0       -2.890387    2.412386   -0.940589
     15          6           0        0.894239   -2.247933   -0.777216
     16          6           0        1.994075   -2.381538    0.076618
     17          6           0        2.805935   -1.280830    0.366228
     18          6           0        2.487453   -0.055855   -0.217974
     19          6           0        1.398563    0.109128   -1.072602
     20          6           0        0.600512   -1.005218   -1.348095
     21          1           0        0.268931   -3.108287   -0.996709
     22          1           0        2.224577   -3.345429    0.521397
     23          1           0        3.663482   -1.356143    1.023769
     24          1           0        1.193963    1.082820   -1.500950
     25          1           0       -0.252997   -0.898511   -2.011558
     26          7           0        3.339624    1.116634    0.081150
     27          8           0        3.037785    2.185001   -0.446224
     28          8           0        4.293258    0.945063    0.837312
 ---------------------------------------------------------------------

 SCF Done:  E(RHF) =  -868.334279664     A.U. after   16 cycles
 E2 =    -0.2606649188D+01 EUMP2 =    -0.87094092885193D+03

 The electronic state is 1-A.
 Alpha  occ. eigenvalues --  -20.61287 -20.61244 -20.60690 -20.60650 -15.86324
 Alpha  occ. eigenvalues --  -15.85732 -11.31899 -11.31234 -11.28528 -11.28397
 Alpha  occ. eigenvalues --  -11.28290 -11.27871 -11.27761 -11.27639 -11.27616
 Alpha  occ. eigenvalues --  -11.27474 -11.26937 -11.26759  -1.60345  -1.59749
 Alpha  occ. eigenvalues --   -1.39889  -1.39297  -1.20123  -1.19425  -1.09488
 Alpha  occ. eigenvalues --   -1.08806  -1.05527  -1.04859  -0.96275  -0.95620
 Alpha  occ. eigenvalues --   -0.86918  -0.86257  -0.83081  -0.82452  -0.78082
 Alpha  occ. eigenvalues --   -0.77467  -0.72530  -0.71947  -0.71693  -0.71252
 Alpha  occ. eigenvalues --   -0.71079  -0.70569  -0.65747  -0.65519  -0.65086
 Alpha  occ. eigenvalues --   -0.64901  -0.62847  -0.62219  -0.56066  -0.55402
 Alpha  occ. eigenvalues --   -0.54587  -0.53604  -0.53005  -0.52413  -0.49311
 Alpha  occ. eigenvalues --   -0.49278  -0.48721  -0.48692  -0.45241  -0.44671
 Alpha  occ. eigenvalues --   -0.38592  -0.37309  -0.36760  -0.36369
 Alpha virt. eigenvalues --    0.04316   0.05121   0.10449   0.11157   0.15770
 Alpha virt. eigenvalues --    0.16560   0.20146   0.21598   0.26384   0.26644
 Alpha virt. eigenvalues --    0.27383   0.28833   0.30108   0.31130   0.32080

 Mulliken charges:
               1
     1  C   -0.175687
     2  C   -0.224155
     3  C   -0.180458
     4  C    0.161766
     5  C   -0.167183
     6  C   -0.209764
     7  H    0.223405
     8  H    0.223489
     9  H    0.276798
    10  H    0.280392
    11  H    0.225506
    12  N    0.486226
    13  O   -0.453068
    14  O   -0.460790
    15  C   -0.166450
    16  C   -0.223186
    17  C   -0.172763
    18  C    0.157843
    19  C   -0.175230
    20  C   -0.212276
    21  H    0.216585
    22  H    0.219430
    23  H    0.275060
    24  H    0.280757
    25  H    0.223159
    26  N    0.487854
    27  O   -0.454935
    28  O   -0.462326
 Sum of Mulliken charges =  -0.00000

 Dipole moment (field-independent basis, Debye):
    X=             -3.0704    Y=             -9.0126    Z=             -0.2919  Tot=              9.5257
 Quadrupole moment (field-independent basis, Debye-Ang):
   XX=           -118.4741   YY=           -109.1297   ZZ=            -99.2049
   XY=              0.6022   XZ=              0.6342   YZ=             -1.4990

 Normal termination of Gaussian 16 at Thu May  6 05:06:56 2021.
