 Gaussian 16, Revision A.03,
 Gaussian 16:  EM64L-G16RevA.03 25-Dec-2016

 -------------
 #p 6-31g* mp2
 -------------

 ------------------------------------------------------
 Input file generated by CHIRIPA (05-May-2021 14:53:17)
 ------------------------------------------------------
 Symbolic Z-matrix:
 Charge =  0 Multiplicity = 1

                         Standard orientation:
 ---------------------------------------------------------------------
 Center     Atomic      Atomic             Coordinates (Angstroms)
 Number     Number       Type             X           Y           Z
 ---------------------------------------------------------------------
      1          6           0       -3.605504   -0.101078    0.521948
      2          6           0       -2.600146   -1.221672    0.254539
      3          6           0       -1.263981   -0.998739    0.963593
      4          1           0       -3.172767    0.855805    0.199366
      5          1           0       -3.773177   -0.019068    1.604794
      6          1           0       -2.435469   -1.302462   -0.827575
      7          1           0       -3.035403   -2.176024    0.577618
      8          1           0       -1.408076   -0.939651    2.047266
      9          1           0       -0.804733   -0.061125    0.634088
     10          1           0       -0.560258   -1.811554    0.758740
     11          6           0       -4.946145   -0.309691   -0.180114
     12          6           0       -5.951503    0.810904    0.087294
     13          6           0       -7.287668    0.587970   -0.621760
     14          1           0       -4.778472   -0.391700   -1.262960
     15          1           0       -5.378883   -1.266573    0.142467
     16          1           0       -5.516246    1.765256   -0.235785
     17          1           0       -6.116180    0.891693    1.169408
     18          1           0       -7.746916   -0.349643   -0.292255
     19          1           0       -7.143573    0.528883   -1.705432
     20          1           0       -7.991391    1.400786   -0.416907
     21          6           0        3.474024   -2.353407   -0.302592
     22          6           0        4.618160   -1.610923    0.007557
     23          6           0        4.555874   -0.217582    0.103840
     24          6           0        3.327578    0.403488   -0.117184
     25          6           0        2.170098   -0.308556   -0.427865
     26          6           0        2.255792   -1.701004   -0.518931
     27          1           0        3.531501   -3.435441   -0.375362
     28          1           0        5.565600   -2.114911    0.176075
     29          1           0        5.426140    0.381676    0.342473
     30          1           0        1.239814    0.222044   -0.590510
     31          1           0        1.365618   -2.275064   -0.759952
     32          7           0        3.249248    1.878082   -0.018014
     33          8           0        2.155154    2.401438   -0.217246
     34          8           0        4.283430    2.482592    0.257070
 ---------------------------------------------------------------------

 SCF Done:  E(RHF) =  -669.534658205     A.U. after   15 cycles
 E2 =    -0.2091965749D+01 EUMP2 =    -0.67162662395425D+03

 The electronic state is 1-A.
 Alpha  occ. eigenvalues --  -20.60741 -20.60734 -15.85792 -11.31125 -11.27710
 Alpha  occ. eigenvalues --  -11.27670 -11.27453 -11.26721 -11.26690 -11.22089
 Alpha  occ. eigenvalues --  -11.21703 -11.21688 -11.21634 -11.21545 -11.21138
 Alpha  occ. eigenvalues --   -1.59814  -1.39369  -1.19308  -1.08712  -1.08690
 Alpha  occ. eigenvalues --   -1.04716  -1.03837  -0.96301  -0.95545  -0.87324
 Alpha  occ. eigenvalues --   -0.86114  -0.82383  -0.79911  -0.78471  -0.77427
 Alpha  occ. eigenvalues --   -0.72013  -0.71136  -0.70433  -0.65331  -0.64962
 Alpha  occ. eigenvalues --   -0.64746  -0.62169  -0.61178  -0.59673  -0.57897
 Alpha  occ. eigenvalues --   -0.55614  -0.55182  -0.53237  -0.53004  -0.52816
 Alpha  occ. eigenvalues --   -0.52501  -0.50206  -0.48769  -0.48766  -0.48207
 Alpha  occ. eigenvalues --   -0.46921  -0.46017  -0.45922  -0.44780  -0.44080
 Alpha  occ. eigenvalues --   -0.37295  -0.36274
 Alpha virt. eigenvalues --    0.05089   0.11277   0.16515   0.20187   0.22858
 Alpha virt. eigenvalues --    0.23993   0.25922   0.26474   0.26843   0.27859
 Alpha virt. eigenvalues --    0.28999   0.30061   0.31411   0.31748   0.32465

 Mulliken charges:
               1
     1  C   -0.299507
     2  C   -0.300364
     3  C   -0.483230
     4  H    0.154248
     5  H    0.151356
     6  H    0.148825
     7  H    0.152649
     8  H    0.162015
     9  H    0.159004
    10  H    0.152811
    11  C   -0.298547
    12  C   -0.300237
    13  C   -0.475902
    14  H    0.149396
    15  H    0.149084
    16  H    0.154189
    17  H    0.152562
    18  H    0.154699
    19  H    0.155277
    20  H    0.161327
    21  C   -0.171283
    22  C   -0.218764
    23  C   -0.170702
    24  C    0.157873
    25  C   -0.170165
    26  C   -0.220740
    27  H    0.225334
    28  H    0.223161
    29  H    0.275375
    30  H    0.279340
    31  H    0.224654
    32  N    0.488114
    33  O   -0.461404
    34  O   -0.460444
 Sum of Mulliken charges =  -0.00000

 Dipole moment (field-independent basis, Debye):
    X=              0.1577    Y=             -5.1377    Z=             -0.2931  Tot=              5.1485
 Quadrupole moment (field-independent basis, Debye-Ang):
   XX=            -88.7151   YY=            -99.4750   ZZ=            -94.7574
   XY=            -17.1993   XZ=             -0.8247   YZ=              0.0862

 Normal termination of Gaussian 16 at Thu May  6 04:22:47 2021.
