 Gaussian 16, Revision A.03,
 Gaussian 16:  EM64L-G16RevA.03 25-Dec-2016

 -------------
 #p 6-31g* mp2
 -------------

 ------------------------------------------------------
 Input file generated by CHIRIPA (05-May-2021 14:57:27)
 ------------------------------------------------------
 Symbolic Z-matrix:
 Charge =  0 Multiplicity = 1

                         Standard orientation:
 ---------------------------------------------------------------------
 Center     Atomic      Atomic             Coordinates (Angstroms)
 Number     Number       Type             X           Y           Z
 ---------------------------------------------------------------------
      1          6           0       -3.902801    1.069840    0.597504
      2          6           0       -3.097583    1.331810   -0.515832
      3          6           0       -2.156799    0.392501   -0.948466
      4          6           0       -2.047334   -0.803727   -0.241114
      5          6           0       -2.835092   -1.093980    0.871757
      6          6           0       -3.769221   -0.140085    1.286530
      7          1           0       -4.631040    1.805183    0.926646
      8          1           0       -3.199138    2.270598   -1.052869
      9          1           0       -1.520631    0.569503   -1.807173
     10          1           0       -2.710834   -2.038826    1.386774
     11          1           0       -4.393223   -0.346239    2.151497
     12          7           0       -1.054891   -1.805852   -0.689669
     13          8           0       -0.977890   -2.852118   -0.049330
     14          8           0       -0.372806   -1.526075   -1.673093
     15          6           0        3.680938   -1.356986    0.639090
     16          6           0        3.484311   -0.928183   -0.677719
     17          6           0        2.671879    0.176285   -0.950945
     18          6           0        2.068783    0.831487    0.121564
     19          6           0        2.245254    0.428439    1.444327
     20          6           0        3.061873   -0.678502    1.694050
     21          1           0        4.313680   -2.215925    0.842211
     22          1           0        3.963818   -1.453179   -1.498996
     23          1           0        2.502511    0.529586   -1.960851
     24          1           0        1.753913    0.972041    2.242135
     25          1           0        3.212779   -1.009280    2.717700
     26          7           0        1.206482    2.002047   -0.155248
     27          8           0        0.686420    2.562177    0.807263
     28          8           0        1.066998    2.337238   -1.329483
 ---------------------------------------------------------------------

 SCF Done:  E(RHF) =  -868.340547220     A.U. after   16 cycles
 E2 =    -0.2601154660D+01 EUMP2 =    -0.87094170188051D+03

 The electronic state is 1-A.
 Alpha  occ. eigenvalues --  -20.60665 -20.60634 -20.60614 -20.60600 -15.85667
 Alpha  occ. eigenvalues --  -15.85633 -11.30686 -11.30588 -11.27270 -11.27206
 Alpha  occ. eigenvalues --  -11.27092 -11.27087 -11.26894 -11.26827 -11.26236
 Alpha  occ. eigenvalues --  -11.26113 -11.26059 -11.25988  -1.59725  -1.59677
 Alpha  occ. eigenvalues --   -1.39288  -1.39241  -1.18821  -1.18743  -1.08284
 Alpha  occ. eigenvalues --   -1.08226  -1.04158  -1.04083  -0.95179  -0.95122
 Alpha  occ. eigenvalues --   -0.85589  -0.85515  -0.82013  -0.81981  -0.77110
 Alpha  occ. eigenvalues --   -0.77052  -0.71928  -0.71870  -0.71181  -0.70864
 Alpha  occ. eigenvalues --   -0.69917  -0.69870  -0.64475  -0.64413  -0.64157
 Alpha  occ. eigenvalues --   -0.64109  -0.61503  -0.61456  -0.54696  -0.54634
 Alpha  occ. eigenvalues --   -0.52556  -0.52387  -0.52239  -0.52195  -0.48687
 Alpha  occ. eigenvalues --   -0.48650  -0.48618  -0.48595  -0.44823  -0.44678
 Alpha  occ. eigenvalues --   -0.36834  -0.36666  -0.35727  -0.35590
 Alpha virt. eigenvalues --    0.05203   0.05594   0.11884   0.12040   0.16903
 Alpha virt. eigenvalues --    0.17066   0.21961   0.22169   0.27908   0.28047
 Alpha virt. eigenvalues --    0.28693   0.29145   0.31417   0.31721   0.32737

 Mulliken charges:
               1
     1  C   -0.169316
     2  C   -0.211424
     3  C   -0.175102
     4  C    0.155035
     5  C   -0.172698
     6  C   -0.218532
     7  H    0.225314
     8  H    0.229782
     9  H    0.283122
    10  H    0.271400
    11  H    0.220714
    12  N    0.488868
    13  O   -0.463933
    14  O   -0.464234
    15  C   -0.166716
    16  C   -0.213607
    17  C   -0.154622
    18  C    0.151369
    19  C   -0.173281
    20  C   -0.217776
    21  H    0.225406
    22  H    0.224759
    23  H    0.275410
    24  H    0.271276
    25  H    0.220889
    26  N    0.488052
    27  O   -0.463264
    28  O   -0.466891
 Sum of Mulliken charges =  -0.00000

 Dipole moment (field-independent basis, Debye):
    X=             -0.3945    Y=             -0.5641    Z=              2.3778  Tot=              2.4755
 Quadrupole moment (field-independent basis, Debye-Ang):
   XX=            -78.1648   YY=           -116.8531   ZZ=            -98.2486
   XY=            -10.9028   XZ=             -2.3828   YZ=             -3.8946

 Normal termination of Gaussian 16 at Thu May  6 09:59:32 2021.
