 Gaussian 16, Revision A.03,
 Gaussian 16:  EM64L-G16RevA.03 25-Dec-2016

 -------------
 #p 6-31g* mp2
 -------------

 ------------------------------------------------------
 Input file generated by CHIRIPA (05-May-2021 14:53:12)
 ------------------------------------------------------
 Symbolic Z-matrix:
 Charge =  0 Multiplicity = 1

                         Standard orientation:
 ---------------------------------------------------------------------
 Center     Atomic      Atomic             Coordinates (Angstroms)
 Number     Number       Type             X           Y           Z
 ---------------------------------------------------------------------
      1          6           0        3.162748    0.908070   -0.027015
      2          6           0        2.202701    1.491122    1.010456
      3          6           0        1.996247    2.996974    0.844384
      4          1           0        4.130417    1.422769    0.048122
      5          1           0        2.774853    1.117115   -1.033610
      6          1           0        2.591585    1.279833    2.014818
      7          1           0        1.237264    0.974844    0.932970
      8          1           0        1.585745    3.222720   -0.145125
      9          1           0        2.947761    3.529443    0.942870
     10          1           0        1.306483    3.392957    1.596237
     11          6           0        3.379304   -0.596394    0.126019
     12          6           0        4.339351   -1.179445   -0.911453
     13          6           0        4.545804   -2.685297   -0.745380
     14          1           0        3.767198   -0.805438    1.132614
     15          1           0        2.411634   -1.111093    0.050882
     16          1           0        5.304788   -0.663167   -0.833966
     17          1           0        3.950467   -0.968157   -1.915814
     18          1           0        3.594291   -3.217766   -0.843867
     19          1           0        4.956307   -2.911044    0.244129
     20          1           0        5.235568   -3.081280   -1.497233
     21          6           0       -3.080173   -2.431450    0.830757
     22          6           0       -2.069303   -1.671474    1.428334
     23          6           0       -1.770009   -0.390522    0.954907
     24          6           0       -2.504765    0.101545   -0.122726
     25          6           0       -3.517762   -0.631234   -0.739297
     26          6           0       -3.799908   -1.909824   -0.249248
     27          1           0       -3.306011   -3.425607    1.204982
     28          1           0       -1.508713   -2.074018    2.267228
     29          1           0       -0.992582    0.219360    1.398834
     30          1           0       -4.059369   -0.203018   -1.573990
     31          1           0       -4.585503   -2.497775   -0.715294
     32          7           0       -2.196993    1.456381   -0.632721
     33          8           0       -2.858849    1.867149   -1.583434
     34          8           0       -1.299732    2.081881   -0.072086
 ---------------------------------------------------------------------

 SCF Done:  E(RHF) =  -669.535571868     A.U. after   15 cycles
 E2 =    -0.2092473071D+01 EUMP2 =    -0.67162804493883D+03

 The electronic state is 1-A.
 Alpha  occ. eigenvalues --  -20.60915 -20.60908 -15.85947 -11.31277 -11.27839
 Alpha  occ. eigenvalues --  -11.27821 -11.27574 -11.26851 -11.26838 -11.21473
 Alpha  occ. eigenvalues --  -11.21220 -11.21052 -11.21038 -11.20935 -11.20006
 Alpha  occ. eigenvalues --   -1.59980  -1.39536  -1.19446  -1.08849  -1.08099
 Alpha  occ. eigenvalues --   -1.04842  -1.03104  -0.95707  -0.95512  -0.86548
 Alpha  occ. eigenvalues --   -0.86242  -0.82520  -0.79225  -0.77948  -0.77551
 Alpha  occ. eigenvalues --   -0.72180  -0.71297  -0.70557  -0.65112  -0.64891
 Alpha  occ. eigenvalues --   -0.64677  -0.62212  -0.60456  -0.58955  -0.57150
 Alpha  occ. eigenvalues --   -0.55349  -0.54794  -0.53174  -0.52944  -0.52202
 Alpha  occ. eigenvalues --   -0.51964  -0.49486  -0.48938  -0.48905  -0.47520
 Alpha  occ. eigenvalues --   -0.46243  -0.45475  -0.45340  -0.44886  -0.43373
 Alpha  occ. eigenvalues --   -0.37425  -0.36439
 Alpha virt. eigenvalues --    0.04911   0.11151   0.16424   0.20899   0.23210
 Alpha virt. eigenvalues --    0.24451   0.25955   0.27325   0.27682   0.28375
 Alpha virt. eigenvalues --    0.29086   0.30483   0.31521   0.32006   0.32669

 Mulliken charges:
               1
     1  C   -0.298118
     2  C   -0.305263
     3  C   -0.470374
     4  H    0.149062
     5  H    0.153521
     6  H    0.144344
     7  H    0.152945
     8  H    0.169595
     9  H    0.146935
    10  H    0.161561
    11  C   -0.297567
    12  C   -0.299321
    13  C   -0.475375
    14  H    0.146858
    15  H    0.144743
    16  H    0.152575
    17  H    0.153183
    18  H    0.152968
    19  H    0.153953
    20  H    0.160236
    21  C   -0.170522
    22  C   -0.220615
    23  C   -0.174276
    24  C    0.155796
    25  C   -0.170479
    26  C   -0.218597
    27  H    0.226043
    28  H    0.224678
    29  H    0.284314
    30  H    0.275751
    31  H    0.223779
    32  N    0.490514
    33  O   -0.459312
    34  O   -0.463535
 Sum of Mulliken charges =  -0.00000

 Dipole moment (field-independent basis, Debye):
    X=             -1.2602    Y=             -4.6516    Z=              1.6915  Tot=              5.1075
 Quadrupole moment (field-independent basis, Debye-Ang):
   XX=            -87.0222   YY=            -97.2408   ZZ=            -92.9674
   XY=             13.0119   XZ=             -1.3390   YZ=              0.9994

 Normal termination of Gaussian 16 at Thu May  6 02:31:24 2021.
