 Gaussian 16, Revision A.03,
 Gaussian 16:  EM64L-G16RevA.03 25-Dec-2016

 -------------
 #p 6-31g* mp2
 -------------

 ------------------------------------------------------
 Input file generated by CHIRIPA (05-May-2021 14:57:25)
 ------------------------------------------------------
 Symbolic Z-matrix:
 Charge =  0 Multiplicity = 1

                         Standard orientation:
 ---------------------------------------------------------------------
 Center     Atomic      Atomic             Coordinates (Angstroms)
 Number     Number       Type             X           Y           Z
 ---------------------------------------------------------------------
      1          6           0       -1.982167    1.669373   -0.139526
      2          6           0       -3.276328    2.060153   -0.498635
      3          6           0       -4.327774    1.138981   -0.477379
      4          6           0       -4.048116   -0.170656   -0.090167
      5          6           0       -2.769455   -0.590535    0.273177
      6          6           0       -1.733300    0.347606    0.244557
      7          1           0       -1.171317    2.391553   -0.158899
      8          1           0       -3.472534    3.085981   -0.797338
      9          1           0       -5.339151    1.414565   -0.750487
     10          1           0       -2.604767   -1.620219    0.566514
     11          1           0       -0.729231    0.041297    0.523959
     12          7           0       -5.153141   -1.154842   -0.063766
     13          8           0       -4.880675   -2.302650    0.281104
     14          8           0       -6.270802   -0.759803   -0.388443
     15          6           0        1.935552    1.037695    1.351486
     16          6           0        2.051132    1.225395   -0.029792
     17          6           0        3.116599    0.659795   -0.736492
     18          6           0        4.052623   -0.091053   -0.027001
     19          6           0        3.964923   -0.296088    1.349066
     20          6           0        2.891132    0.278890    2.035301
     21          1           0        1.104638    1.480710    1.892520
     22          1           0        1.310499    1.814214   -0.563459
     23          1           0        3.230303    0.789200   -1.805951
     24          1           0        4.718859   -0.888089    1.853580
     25          1           0        2.803911    0.131454    3.108008
     26          7           0        5.184991   -0.694793   -0.764320
     27          8           0        5.996428   -1.352040   -0.116064
     28          8           0        5.239663   -0.499326   -1.976525
 ---------------------------------------------------------------------

 SCF Done:  E(RHF) =  -868.336052155     A.U. after   16 cycles
 E2 =    -0.2601666772D+01 EUMP2 =    -0.87093771892702D+03

 The electronic state is 1-A.
 Alpha  occ. eigenvalues --  -20.61466 -20.61460 -20.61253 -20.61248 -15.86527
 Alpha  occ. eigenvalues --  -15.86308 -11.32127 -11.31831 -11.28740 -11.28676
 Alpha  occ. eigenvalues --  -11.28579 -11.28385 -11.28381 -11.28316 -11.27915
 Alpha  occ. eigenvalues --  -11.27756 -11.27492 -11.27439  -1.60535  -1.60324
 Alpha  occ. eigenvalues --   -1.40082  -1.39873  -1.20343  -1.20020  -1.09734
 Alpha  occ. eigenvalues --   -1.09417  -1.05770  -1.05427  -0.96509  -0.96226
 Alpha  occ. eigenvalues --   -0.87211  -0.86817  -0.83320  -0.83036  -0.78313
 Alpha  occ. eigenvalues --   -0.78030  -0.72744  -0.72528  -0.71861  -0.71647
 Alpha  occ. eigenvalues --   -0.71537  -0.71194  -0.66060  -0.65899  -0.65655
 Alpha  occ. eigenvalues --   -0.65313  -0.63102  -0.62744  -0.56358  -0.56044
 Alpha  occ. eigenvalues --   -0.54180  -0.53877  -0.53735  -0.53419  -0.49520
 Alpha  occ. eigenvalues --   -0.49480  -0.49297  -0.49270  -0.45434  -0.45242
 Alpha  occ. eigenvalues --   -0.38363  -0.38073  -0.37360  -0.37005
 Alpha virt. eigenvalues --    0.04187   0.04467   0.10096   0.10627   0.15547
 Alpha virt. eigenvalues --    0.15890   0.18092   0.22078   0.24730   0.26577
 Alpha virt. eigenvalues --    0.27441   0.29259   0.29781   0.30928   0.32218

 Mulliken charges:
               1
     1  C   -0.178314
     2  C   -0.217091
     3  C   -0.170644
     4  C    0.159994
     5  C   -0.171214
     6  C   -0.225467
     7  H    0.216607
     8  H    0.225189
     9  H    0.277833
    10  H    0.278367
    11  H    0.229225
    12  N    0.487817
    13  O   -0.458419
    14  O   -0.458574
    15  C   -0.180636
    16  C   -0.222863
    17  C   -0.169251
    18  C    0.159808
    19  C   -0.169594
    20  C   -0.218367
    21  H    0.225568
    22  H    0.220694
    23  H    0.279267
    24  H    0.279492
    25  H    0.227810
    26  N    0.487843
    27  O   -0.457267
    28  O   -0.457813
 Sum of Mulliken charges =  -0.00000

 Dipole moment (field-independent basis, Debye):
    X=              0.0647    Y=              5.4045    Z=              2.4967  Tot=              5.9537
 Quadrupole moment (field-independent basis, Debye-Ang):
   XX=           -164.7160   YY=           -104.2466   ZZ=           -101.5163
   XY=             -9.2250   XZ=             13.7233   YZ=             -3.8884

 Normal termination of Gaussian 16 at Thu May  6 05:07:09 2021.
