 Gaussian 16, Revision A.03,
 Gaussian 16:  EM64L-G16RevA.03 25-Dec-2016

 -------------
 #p 6-31g* mp2
 -------------

 ------------------------------------------------------
 Input file generated by CHIRIPA (05-May-2021 14:57:26)
 ------------------------------------------------------
 Symbolic Z-matrix:
 Charge =  0 Multiplicity = 1

                         Standard orientation:
 ---------------------------------------------------------------------
 Center     Atomic      Atomic             Coordinates (Angstroms)
 Number     Number       Type             X           Y           Z
 ---------------------------------------------------------------------
      1          6           0       -4.055006    1.528347   -0.695410
      2          6           0       -3.486974    0.652925   -1.626805
      3          6           0       -2.734644   -0.445975   -1.201404
      4          6           0       -2.569724   -0.640249    0.169124
      5          6           0       -3.123021    0.214115    1.121602
      6          6           0       -3.871540    1.306539    0.673408
      7          1           0       -4.637953    2.379484   -1.034725
      8          1           0       -3.627802    0.822713   -2.690471
      9          1           0       -2.283733   -1.139438   -1.900837
     10          1           0       -2.965219    0.018823    2.175347
     11          1           0       -4.311512    1.984753    1.399008
     12          7           0       -1.775284   -1.800177    0.631542
     13          8           0       -1.644693   -1.949348    1.844527
     14          8           0       -1.298234   -2.538194   -0.227755
     15          6           0        3.948697   -1.712154   -0.463576
     16          6           0        4.603254   -0.614468    0.104899
     17          6           0        3.921651    0.587974    0.314891
     18          6           0        2.580001    0.658019   -0.057078
     19          6           0        1.900194   -0.418049   -0.625612
     20          6           0        2.601632   -1.610620   -0.826377
     21          1           0        4.485887   -2.642407   -0.623119
     22          1           0        5.649360   -0.690444    0.387626
     23          1           0        4.403983    1.453282    0.753089
     24          1           0        0.856930   -0.311988   -0.897215
     25          1           0        2.090737   -2.461471   -1.268061
     26          7           0        1.847920    1.925766    0.160348
     27          8           0        0.666309    1.961872   -0.175998
     28          8           0        2.469587    2.859314    0.662995
 ---------------------------------------------------------------------

 SCF Done:  E(RHF) =  -868.340145019     A.U. after   16 cycles
 E2 =    -0.2599813698D+01 EUMP2 =    -0.87093995871795D+03

 The electronic state is 1-A.
 Alpha  occ. eigenvalues --  -20.61019 -20.60939 -20.60496 -20.60481 -15.85992
 Alpha  occ. eigenvalues --  -15.85529 -11.30958 -11.30646 -11.27542 -11.27437
 Alpha  occ. eigenvalues --  -11.27205 -11.27134 -11.27117 -11.26855 -11.26440
 Alpha  occ. eigenvalues --  -11.26376 -11.26199 -11.26019  -1.60042  -1.59568
 Alpha  occ. eigenvalues --   -1.39612  -1.39129  -1.19074  -1.18781  -1.08553
 Alpha  occ. eigenvalues --   -1.08228  -1.04434  -1.04128  -0.95462  -0.95108
 Alpha  occ. eigenvalues --   -0.85870  -0.85553  -0.82325  -0.81933  -0.77420
 Alpha  occ. eigenvalues --   -0.77016  -0.72233  -0.71770  -0.71352  -0.70879
 Alpha  occ. eigenvalues --   -0.70218  -0.69893  -0.64757  -0.64464  -0.64429
 Alpha  occ. eigenvalues --   -0.64120  -0.61823  -0.61476  -0.54963  -0.54665
 Alpha  occ. eigenvalues --   -0.52736  -0.52555  -0.52486  -0.52207  -0.49009
 Alpha  occ. eigenvalues --   -0.48941  -0.48526  -0.48493  -0.45096  -0.44591
 Alpha  occ. eigenvalues --   -0.36994  -0.36760  -0.35980  -0.35709
 Alpha virt. eigenvalues --    0.05084   0.05480   0.11572   0.11921   0.16668
 Alpha virt. eigenvalues --    0.17046   0.21560   0.22149   0.27100   0.27870
 Alpha virt. eigenvalues --    0.28573   0.28932   0.31239   0.31631   0.32376

 Mulliken charges:
               1
     1  C   -0.166366
     2  C   -0.214327
     3  C   -0.173069
     4  C    0.161154
     5  C   -0.165618
     6  C   -0.214320
     7  H    0.226401
     8  H    0.222514
     9  H    0.268908
    10  H    0.275056
    11  H    0.224499
    12  N    0.488136
    13  O   -0.455639
    14  O   -0.473025
    15  C   -0.171016
    16  C   -0.218417
    17  C   -0.171995
    18  C    0.158860
    19  C   -0.171788
    20  C   -0.215738
    21  H    0.225161
    22  H    0.221339
    23  H    0.272895
    24  H    0.271734
    25  H    0.233971
    26  N    0.488282
    27  O   -0.465282
    28  O   -0.462312
 Sum of Mulliken charges =  -0.00000

 Dipole moment (field-independent basis, Debye):
    X=             -0.4460    Y=             -0.3348    Z=             -2.3124  Tot=              2.3787
 Quadrupole moment (field-independent basis, Debye-Ang):
   XX=            -74.1389   YY=           -115.9832   ZZ=           -100.7180
   XY=            -18.2089   XZ=              2.3485   YZ=              3.8210

 Normal termination of Gaussian 16 at Fri May  7 08:10:14 2021.
