 Gaussian 16, Revision A.03,
 Gaussian 16:  EM64L-G16RevA.03 25-Dec-2016

 -------------
 #p 6-31g* mp2
 -------------

 ------------------------------------------------------
 Input file generated by CHIRIPA (05-May-2021 14:57:23)
 ------------------------------------------------------
 Symbolic Z-matrix:
 Charge =  0 Multiplicity = 1

                         Standard orientation:
 ---------------------------------------------------------------------
 Center     Atomic      Atomic             Coordinates (Angstroms)
 Number     Number       Type             X           Y           Z
 ---------------------------------------------------------------------
      1          6           0        5.566751    1.358412   -0.709620
      2          6           0        5.537561    0.054229   -1.214371
      3          6           0        4.579607   -0.859646   -0.765255
      4          6           0        3.661836   -0.433693    0.193677
      5          6           0        3.665199    0.858843    0.715815
      6          6           0        4.632125    1.755857    0.252167
      7          1           0        6.314398    2.061783   -1.064148
      8          1           0        6.262163   -0.257204   -1.961370
      9          1           0        4.534314   -1.875349   -1.139038
     10          1           0        2.929801    1.140087    1.459797
     11          1           0        4.652416    2.768069    0.645943
     12          7           0        2.642944   -1.392247    0.676829
     13          8           0        1.845430   -0.992323    1.522209
     14          8           0        2.661144   -2.525334    0.200994
     15          6           0       -1.690935    1.600507    0.076370
     16          6           0       -1.642154    0.221698   -0.153902
     17          6           0       -2.820883   -0.522372   -0.261169
     18          6           0       -4.036536    0.147636   -0.132457
     19          6           0       -4.117959    1.520189    0.097234
     20          6           0       -2.926503    2.244218    0.200985
     21          1           0       -0.770327    2.170735    0.158331
     22          1           0       -0.684016   -0.280866   -0.251101
     23          1           0       -2.812079   -1.590849   -0.439205
     24          1           0       -5.088061    1.993236    0.189687
     25          1           0       -2.967423    3.314910    0.379842
     26          7           0       -5.291140   -0.629469   -0.244155
     27          8           0       -6.349482   -0.015607   -0.127010
     28          8           0       -5.192401   -1.837712   -0.446731
 ---------------------------------------------------------------------

 SCF Done:  E(RHF) =  -868.338779070     A.U. after   16 cycles
 E2 =    -0.2598835404D+01 EUMP2 =    -0.87093761447406D+03

 The electronic state is 1-A.
 Alpha  occ. eigenvalues --  -20.61798 -20.61770 -20.60231 -20.60217 -15.86811
 Alpha  occ. eigenvalues --  -15.85274 -11.32038 -11.30568 -11.28616 -11.28549
 Alpha  occ. eigenvalues --  -11.28268 -11.27570 -11.27521 -11.27158 -11.27034
 Alpha  occ. eigenvalues --  -11.26881 -11.26211 -11.25995  -1.60860  -1.59303
 Alpha  occ. eigenvalues --   -1.40413  -1.38858  -1.20191  -1.18724  -1.09607
 Alpha  occ. eigenvalues --   -1.08146  -1.05568  -1.04098  -0.96464  -0.94996
 Alpha  occ. eigenvalues --   -0.86970  -0.85508  -0.83294  -0.81815  -0.78371
 Alpha  occ. eigenvalues --   -0.76863  -0.73015  -0.72188  -0.71496  -0.71281
 Alpha  occ. eigenvalues --   -0.70624  -0.69870  -0.65837  -0.65557  -0.64377
 Alpha  occ. eigenvalues --   -0.64086  -0.62915  -0.61435  -0.56053  -0.54660
 Alpha  occ. eigenvalues --   -0.53909  -0.53649  -0.52452  -0.52182  -0.49799
 Alpha  occ. eigenvalues --   -0.49766  -0.48256  -0.48248  -0.45828  -0.44279
 Alpha  occ. eigenvalues --   -0.38155  -0.37169  -0.36727  -0.35688
 Alpha virt. eigenvalues --    0.04126   0.05643   0.10481   0.11956   0.15649
 Alpha virt. eigenvalues --    0.17157   0.20590   0.21997   0.26499   0.27295
 Alpha virt. eigenvalues --    0.28044   0.28807   0.30447   0.31314   0.32044

 Mulliken charges:
               1
     1  C   -0.170035
     2  C   -0.218182
     3  C   -0.170473
     4  C    0.157045
     5  C   -0.174156
     6  C   -0.218343
     7  H    0.228395
     8  H    0.226542
     9  H    0.277711
    10  H    0.273300
    11  H    0.224657
    12  N    0.485771
    13  O   -0.463711
    14  O   -0.455565
    15  C   -0.170954
    16  C   -0.216025
    17  C   -0.171884
    18  C    0.158412
    19  C   -0.172496
    20  C   -0.218549
    21  H    0.219238
    22  H    0.233109
    23  H    0.278152
    24  H    0.273225
    25  H    0.219457
    26  N    0.488030
    27  O   -0.462867
    28  O   -0.459804
 Sum of Mulliken charges =  -0.00000

 Dipole moment (field-independent basis, Debye):
    X=              8.4237    Y=              5.9588    Z=             -1.3618  Tot=             10.4077
 Quadrupole moment (field-independent basis, Debye-Ang):
   XX=           -112.6551   YY=           -101.5134   ZZ=           -105.0091
   XY=             -3.1452   XZ=             -9.9580   YZ=              4.2868

 Normal termination of Gaussian 16 at Wed May  5 17:50:26 2021.
