 Gaussian 16, Revision A.03,
 Gaussian 16:  EM64L-G16RevA.03 25-Dec-2016

 -------------
 #p 6-31g* mp2
 -------------

 ------------------------------------------------------
 Input file generated by CHIRIPA (05-May-2021 14:53:12)
 ------------------------------------------------------
 Symbolic Z-matrix:
 Charge =  0 Multiplicity = 1

                         Standard orientation:
 ---------------------------------------------------------------------
 Center     Atomic      Atomic             Coordinates (Angstroms)
 Number     Number       Type             X           Y           Z
 ---------------------------------------------------------------------
      1          6           0       -2.998425   -1.004350    0.171524
      2          6           0       -1.714884   -1.093698   -0.654627
      3          6           0       -0.669948   -2.015750   -0.025561
      4          1           0       -2.752958   -0.647690    1.181219
      5          1           0       -3.420834   -2.011789    0.289985
      6          1           0       -1.295764   -0.086216   -0.772665
      7          1           0       -1.963460   -1.450005   -1.662531
      8          1           0       -1.064681   -3.031725    0.077305
      9          1           0       -0.393192   -1.660187    0.972228
     10          1           0        0.239470   -2.064953   -0.632520
     11          6           0       -4.052677   -0.086279   -0.444451
     12          6           0       -5.336218    0.003069    0.381699
     13          6           0       -6.381154    0.925121   -0.247367
     14          1           0       -3.630268    0.921160   -0.562913
     15          1           0       -4.298144   -0.442939   -1.454147
     16          1           0       -5.087642    0.359375    1.389603
     17          1           0       -5.755338   -1.004414    0.499737
     18          1           0       -6.657911    0.569558   -1.245155
     19          1           0       -5.986421    1.941096   -0.350233
     20          1           0       -7.290572    0.974324    0.359592
     21          6           0        3.918985   -1.803812   -0.086610
     22          6           0        4.180270   -0.794486   -1.019086
     23          6           0        3.540746    0.444906   -0.921796
     24          6           0        2.641743    0.641599    0.125293
     25          6           0        2.360358   -0.344200    1.069914
     26          6           0        3.011464   -1.575850    0.953082
     27          1           0        4.420281   -2.763594   -0.169778
     28          1           0        4.884584   -0.968711   -1.827562
     29          1           0        3.724440    1.243778   -1.629948
     30          1           0        1.653211   -0.140868    1.864910
     31          1           0        2.806598   -2.357873    1.678696
     32          7           0        1.958577    1.949590    0.238633
     33          8           0        1.170820    2.097839    1.170350
     34          8           0        2.223807    2.801776   -0.606392
 ---------------------------------------------------------------------

 SCF Done:  E(RHF) =  -669.534949320     A.U. after   15 cycles
 E2 =    -0.2092488169D+01 EUMP2 =    -0.67162743748881D+03

 The electronic state is 1-A.
 Alpha  occ. eigenvalues --  -20.60816 -20.60811 -15.85867 -11.31193 -11.27769
 Alpha  occ. eigenvalues --  -11.27762 -11.27513 -11.26777 -11.26748 -11.21465
 Alpha  occ. eigenvalues --  -11.21322 -11.21181 -11.21142 -11.21064 -11.20782
 Alpha  occ. eigenvalues --   -1.59890  -1.39445  -1.19378  -1.08776  -1.08208
 Alpha  occ. eigenvalues --   -1.04781  -1.03357  -0.95835  -0.95607  -0.86852
 Alpha  occ. eigenvalues --   -0.86173  -0.82448  -0.79428  -0.78011  -0.77497
 Alpha  occ. eigenvalues --   -0.72085  -0.71214  -0.70494  -0.65030  -0.64854
 Alpha  occ. eigenvalues --   -0.64755  -0.62144  -0.60751  -0.59211  -0.57433
 Alpha  occ. eigenvalues --   -0.55308  -0.55133  -0.53259  -0.52867  -0.52359
 Alpha  occ. eigenvalues --   -0.52230  -0.49757  -0.48842  -0.48840  -0.47746
 Alpha  occ. eigenvalues --   -0.46446  -0.45566  -0.45458  -0.44851  -0.43599
 Alpha  occ. eigenvalues --   -0.37362  -0.36287
 Alpha virt. eigenvalues --    0.05033   0.11221   0.16499   0.20991   0.23060
 Alpha virt. eigenvalues --    0.24299   0.26145   0.27117   0.27781   0.28037
 Alpha virt. eigenvalues --    0.28770   0.30753   0.31419   0.31620   0.32211

 Mulliken charges:
               1
     1  C   -0.298163
     2  C   -0.300728
     3  C   -0.476719
     4  H    0.151735
     5  H    0.146871
     6  H    0.157782
     7  H    0.151007
     8  H    0.152208
     9  H    0.147817
    10  H    0.162595
    11  C   -0.299408
    12  C   -0.299704
    13  C   -0.475911
    14  H    0.155209
    15  H    0.148143
    16  H    0.153205
    17  H    0.149921
    18  H    0.154179
    19  H    0.157429
    20  H    0.159420
    21  C   -0.171799
    22  C   -0.218899
    23  C   -0.171411
    24  C    0.157458
    25  C   -0.166140
    26  C   -0.216437
    27  H    0.225811
    28  H    0.223434
    29  H    0.275559
    30  H    0.274873
    31  H    0.224092
    32  N    0.488084
    33  O   -0.461341
    34  O   -0.460173
 Sum of Mulliken charges =  -0.00000

 Dipole moment (field-independent basis, Debye):
    X=              2.4461    Y=             -4.5350    Z=             -0.4066  Tot=              5.1687
 Quadrupole moment (field-independent basis, Debye-Ang):
   XX=            -82.1078   YY=           -100.7557   ZZ=            -91.7069
   XY=             -9.4278   XZ=             -3.1314   YZ=             -1.7597

 Normal termination of Gaussian 16 at Wed May  5 23:20:33 2021.
