 Gaussian 16, Revision A.03,
 Gaussian 16:  EM64L-G16RevA.03 25-Dec-2016

 -------------
 #p 6-31g* mp2
 -------------

 ------------------------------------------------------
 Input file generated by CHIRIPA (05-May-2021 14:57:26)
 ------------------------------------------------------
 Symbolic Z-matrix:
 Charge =  0 Multiplicity = 1

                         Standard orientation:
 ---------------------------------------------------------------------
 Center     Atomic      Atomic             Coordinates (Angstroms)
 Number     Number       Type             X           Y           Z
 ---------------------------------------------------------------------
      1          6           0       -3.169233    2.356868    0.122377
      2          6           0       -1.985390    1.685660   -0.200914
      3          6           0       -1.971710    0.293964   -0.333363
      4          6           0       -3.165356   -0.398160   -0.134710
      5          6           0       -4.360877    0.241926    0.188260
      6          6           0       -4.351115    1.634133    0.315591
      7          1           0       -3.170755    3.438169    0.223279
      8          1           0       -1.066036    2.244360   -0.351535
      9          1           0       -1.069362   -0.250946   -0.582879
     10          1           0       -5.261636   -0.342257    0.332414
     11          1           0       -5.271985    2.152752    0.566743
     12          7           0       -3.163282   -1.871757   -0.272219
     13          8           0       -4.228140   -2.458519   -0.092145
     14          8           0       -2.096839   -2.412097   -0.557469
     15          6           0        2.126782    2.452412    0.012920
     16          6           0        3.253753    2.159800   -0.762216
     17          6           0        3.837712    0.890417   -0.715245
     18          6           0        3.266137   -0.066783    0.121630
     19          6           0        2.143618    0.194189    0.905937
     20          6           0        1.576282    1.470404    0.843058
     21          1           0        1.679605    3.441152   -0.029747
     22          1           0        3.683414    2.920480   -1.407819
     23          1           0        4.710450    0.636918   -1.304723
     24          1           0        1.737822   -0.584754    1.539968
     25          1           0        0.701090    1.694822    1.446151
     26          7           0        3.875549   -1.414238    0.179775
     27          8           0        3.352985   -2.240090    0.925116
     28          8           0        4.864232   -1.619007   -0.521090
 ---------------------------------------------------------------------

 SCF Done:  E(RHF) =  -868.336298470     A.U. after   16 cycles
 E2 =    -0.2601849741D+01 EUMP2 =    -0.87093814821157D+03

 The electronic state is 1-A.
 Alpha  occ. eigenvalues --  -20.61013 -20.61001 -20.60990 -20.60967 -15.86069
 Alpha  occ. eigenvalues --  -15.86044 -11.31708 -11.31617 -11.28295 -11.28280
 Alpha  occ. eigenvalues --  -11.28214 -11.28206 -11.28186 -11.28035 -11.27422
 Alpha  occ. eigenvalues --  -11.27380 -11.27299 -11.27247  -1.60084  -1.60050
 Alpha  occ. eigenvalues --   -1.39631  -1.39594  -1.19928  -1.19822  -1.09290
 Alpha  occ. eigenvalues --   -1.09187  -1.05399  -1.05215  -0.96058  -0.95986
 Alpha  occ. eigenvalues --   -0.86811  -0.86596  -0.82901  -0.82785  -0.77939
 Alpha  occ. eigenvalues --   -0.77738  -0.72280  -0.72256  -0.71416  -0.71376
 Alpha  occ. eigenvalues --   -0.71055  -0.70929  -0.65675  -0.65535  -0.65445
 Alpha  occ. eigenvalues --   -0.65052  -0.62827  -0.62417  -0.55903  -0.55774
 Alpha  occ. eigenvalues --   -0.53755  -0.53606  -0.53449  -0.53202  -0.49061
 Alpha  occ. eigenvalues --   -0.49037  -0.49026  -0.48991  -0.44995  -0.44932
 Alpha  occ. eigenvalues --   -0.37963  -0.37828  -0.37127  -0.36688
 Alpha virt. eigenvalues --    0.04547   0.04778   0.10435   0.10820   0.15839
 Alpha virt. eigenvalues --    0.16222   0.19819   0.21778   0.25824   0.26903
 Alpha virt. eigenvalues --    0.27849   0.28294   0.30252   0.31092   0.31649

 Mulliken charges:
               1
     1  C   -0.171753
     2  C   -0.225533
     3  C   -0.175518
     4  C    0.159544
     5  C   -0.169826
     6  C   -0.218375
     7  H    0.224258
     8  H    0.219501
     9  H    0.279299
    10  H    0.277653
    11  H    0.224874
    12  N    0.487692
    13  O   -0.459134
    14  O   -0.456765
    15  C   -0.176619
    16  C   -0.217533
    17  C   -0.169649
    18  C    0.160216
    19  C   -0.173939
    20  C   -0.226916
    21  H    0.221735
    22  H    0.225393
    23  H    0.278558
    24  H    0.282204
    25  H    0.226287
    26  N    0.488039
    27  O   -0.454711
    28  O   -0.458986
 Sum of Mulliken charges =  -0.00000

 Dipole moment (field-independent basis, Debye):
    X=             -2.0141    Y=              9.6463    Z=              0.2728  Tot=              9.8581
 Quadrupole moment (field-independent basis, Debye-Ang):
   XX=           -110.6505   YY=           -110.6097   ZZ=           -103.7979
   XY=              0.3921   XZ=             -6.3430   YZ=             -1.5162

 Normal termination of Gaussian 16 at Wed May  5 16:30:00 2021.
