 Gaussian 16, Revision A.03,
 Gaussian 16:  EM64L-G16RevA.03 25-Dec-2016

 -------------
 #p 6-31g* mp2
 -------------

 ------------------------------------------------------
 Input file generated by CHIRIPA (05-May-2021 14:57:26)
 ------------------------------------------------------
 Symbolic Z-matrix:
 Charge =  0 Multiplicity = 1

                         Standard orientation:
 ---------------------------------------------------------------------
 Center     Atomic      Atomic             Coordinates (Angstroms)
 Number     Number       Type             X           Y           Z
 ---------------------------------------------------------------------
      1          6           0       -3.898690    2.135636   -0.096495
      2          6           0       -3.032730    1.773825   -1.133667
      3          6           0       -2.375472    0.540094   -1.112065
      4          6           0       -2.608390   -0.311279   -0.033082
      5          6           0       -3.465240    0.020570    1.015238
      6          6           0       -4.111806    1.259399    0.972762
      7          1           0       -4.405111    3.096008   -0.121383
      8          1           0       -2.865318    2.452320   -1.965329
      9          1           0       -1.699845    0.234727   -1.901810
     10          1           0       -3.612063   -0.676882    1.830971
     11          1           0       -4.783774    1.537738    1.779628
     12          7           0       -1.918240   -1.620073    0.000836
     13          8           0       -2.140378   -2.352324    0.962658
     14          8           0       -1.168230   -1.888873   -0.935042
     15          6           0        3.312413    2.521065    0.405397
     16          6           0        3.056345    2.050584   -0.886733
     17          6           0        2.728367    0.708661   -1.101725
     18          6           0        2.665069   -0.138913    0.003218
     19          6           0        2.914798    0.299760    1.302638
     20          6           0        3.240947    1.645695    1.494038
     21          1           0        3.566484    3.565061    0.563245
     22          1           0        3.111115    2.728134   -1.734064
     23          1           0        2.525366    0.317890   -2.091425
     24          1           0        2.852498   -0.399609    2.127513
     25          1           0        3.439314    2.008295    2.498637
     26          7           0        2.318820   -1.561671   -0.211897
     27          8           0        2.269559   -2.288163    0.778264
     28          8           0        2.103249   -1.923396   -1.366593
 ---------------------------------------------------------------------

 SCF Done:  E(RHF) =  -868.335025053     A.U. after   16 cycles
 E2 =    -0.2601534664D+01 EUMP2 =    -0.87093655971660D+03

 The electronic state is 1-A.
 Alpha  occ. eigenvalues --  -20.60168 -20.60132 -20.59806 -20.59754 -15.85209
 Alpha  occ. eigenvalues --  -15.84850 -11.30922 -11.30718 -11.27537 -11.27524
 Alpha  occ. eigenvalues --  -11.27355 -11.27343 -11.27323 -11.27181 -11.26635
 Alpha  occ. eigenvalues --  -11.26612 -11.26489 -11.26453  -1.59229  -1.58824
 Alpha  occ. eigenvalues --   -1.38773  -1.38376  -1.19130  -1.18936  -1.08462
 Alpha  occ. eigenvalues --   -1.08236  -1.04582  -1.04413  -0.95234  -0.94985
 Alpha  occ. eigenvalues --   -0.85964  -0.85786  -0.82062  -0.81823  -0.77056
 Alpha  occ. eigenvalues --   -0.76779  -0.71450  -0.71058  -0.70679  -0.70238
 Alpha  occ. eigenvalues --   -0.70038  -0.70016  -0.64769  -0.64589  -0.64574
 Alpha  occ. eigenvalues --   -0.64421  -0.61925  -0.61753  -0.55074  -0.54899
 Alpha  occ. eigenvalues --   -0.52901  -0.52720  -0.52672  -0.52511  -0.48209
 Alpha  occ. eigenvalues --   -0.48162  -0.47822  -0.47784  -0.44202  -0.43547
 Alpha  occ. eigenvalues --   -0.37139  -0.36939  -0.36206  -0.36043
 Alpha virt. eigenvalues --    0.05459   0.05789   0.11427   0.11615   0.16897
 Alpha virt. eigenvalues --    0.17185   0.21505   0.21714   0.27347   0.27593
 Alpha virt. eigenvalues --    0.28368   0.28720   0.30920   0.31309   0.32521

 Mulliken charges:
               1
     1  C   -0.172038
     2  C   -0.218569
     3  C   -0.172212
     4  C    0.158469
     5  C   -0.171498
     6  C   -0.218680
     7  H    0.223553
     8  H    0.220618
     9  H    0.275940
    10  H    0.276071
    11  H    0.222198
    12  N    0.485950
    13  O   -0.458509
    14  O   -0.451300
    15  C   -0.172652
    16  C   -0.219310
    17  C   -0.173150
    18  C    0.159853
    19  C   -0.172072
    20  C   -0.218570
    21  H    0.222541
    22  H    0.219731
    23  H    0.274826
    24  H    0.276843
    25  H    0.221580
    26  N    0.490177
    27  O   -0.457920
    28  O   -0.451873
 Sum of Mulliken charges =  -0.00000

 Dipole moment (field-independent basis, Debye):
    X=             -1.2196    Y=              9.2370    Z=              0.5919  Tot=              9.3359
 Quadrupole moment (field-independent basis, Debye-Ang):
   XX=            -86.9098   YY=           -110.0708   ZZ=            -96.4065
   XY=              2.1171   XZ=              0.5637   YZ=             -2.0370

 Normal termination of Gaussian 16 at Thu May  6 09:58:23 2021.
