 Gaussian 16, Revision A.03,
 Gaussian 16:  EM64L-G16RevA.03 25-Dec-2016

 -------------
 #p 6-31g* mp2
 -------------

 ------------------------------------------------------
 Input file generated by CHIRIPA (05-May-2021 14:55:23)
 ------------------------------------------------------
 Symbolic Z-matrix:
 Charge =  0 Multiplicity = 1

                         Standard orientation:
 ---------------------------------------------------------------------
 Center     Atomic      Atomic             Coordinates (Angstroms)
 Number     Number       Type             X           Y           Z
 ---------------------------------------------------------------------
      1          6           0       -0.066935   -1.959487    0.061170
      2          6           0       -0.364550   -1.165537    1.173640
      3          6           0       -1.546375   -0.419977    1.218105
      4          6           0       -2.411868   -0.492125    0.127688
      5          6           0       -2.143453   -1.273824   -0.994893
      6          6           0       -0.955769   -2.011006   -1.017644
      7          1           0        0.853412   -2.535401    0.035063
      8          1           0        0.323874   -1.123601    2.012901
      9          1           0       -1.801580    0.202907    2.066812
     10          1           0       -2.849273   -1.295340   -1.816339
     11          1           0       -0.727237   -2.626735   -1.882916
     12          7           0       -3.666115    0.292731    0.163267
     13          8           0       -4.412097    0.212040   -0.810199
     14          8           0       -3.879462    0.973731    1.163947
     15          6           0        3.381231    0.354668   -0.433482
     16          6           0        4.407981   -0.058976    0.621349
     17          6           0        5.519299   -0.940593    0.050810
     18          1           0        2.942120   -0.546994   -0.881960
     19          1           0        3.894431    0.889156   -1.244866
     20          1           0        3.892795   -0.591316    1.431172
     21          1           0        4.844559    0.843777    1.067504
     22          1           0        6.059119   -0.414435   -0.743138
     23          1           0        5.101946   -1.857681   -0.377404
     24          1           0        6.242202   -1.224622    0.821914
     25          6           0        2.263961    1.236317    0.121611
     26          6           0        1.237211    1.649960   -0.933220
     27          6           0        0.125891    2.531578   -0.362681
     28          1           0        1.750762    0.701829    0.932995
     29          1           0        2.703071    2.137979    0.570090
     30          1           0        0.800632    0.747209   -1.379375
     31          1           0        1.752396    2.182300   -1.743043
     32          1           0        0.543245    3.448666    0.065533
     33          1           0       -0.413928    2.005420    0.431268
     34          1           0       -0.597011    2.815606   -1.133784
 ---------------------------------------------------------------------

 SCF Done:  E(RHF) =  -669.533373660     A.U. after   15 cycles
 E2 =    -0.2096791416D+01 EUMP2 =    -0.67163016507537D+03

 The electronic state is 1-A.
 Alpha  occ. eigenvalues --  -20.60854 -20.60845 -15.85906 -11.31323 -11.27909
 Alpha  occ. eigenvalues --  -11.27887 -11.27660 -11.26939 -11.26922 -11.22289
 Alpha  occ. eigenvalues --  -11.21977 -11.21747 -11.21722 -11.21679 -11.21003
 Alpha  occ. eigenvalues --   -1.59924  -1.39476  -1.19531  -1.08976  -1.08820
 Alpha  occ. eigenvalues --   -1.04953  -1.03902  -0.96369  -0.95720  -0.87384
 Alpha  occ. eigenvalues --   -0.86327  -0.82561  -0.80005  -0.78703  -0.77585
 Alpha  occ. eigenvalues --   -0.72125  -0.71250  -0.70631  -0.65648  -0.65170
 Alpha  occ. eigenvalues --   -0.64898  -0.62287  -0.61388  -0.59746  -0.57968
 Alpha  occ. eigenvalues --   -0.55741  -0.55414  -0.53166  -0.53065  -0.53018
 Alpha  occ. eigenvalues --   -0.52715  -0.50341  -0.48890  -0.48876  -0.48286
 Alpha  occ. eigenvalues --   -0.47092  -0.46212  -0.46182  -0.44860  -0.44171
 Alpha  occ. eigenvalues --   -0.37420  -0.36412
 Alpha virt. eigenvalues --    0.04898   0.10959   0.16274   0.19628   0.23135
 Alpha virt. eigenvalues --    0.23911   0.25211   0.26048   0.27168   0.28591
 Alpha virt. eigenvalues --    0.29488   0.30286   0.31054   0.31576   0.31795

 Mulliken charges:
               1
     1  C   -0.170004
     2  C   -0.214628
     3  C   -0.177681
     4  C    0.165178
     5  C   -0.171007
     6  C   -0.219073
     7  H    0.227000
     8  H    0.224859
     9  H    0.276809
    10  H    0.276439
    11  H    0.224557
    12  N    0.488232
    13  O   -0.460105
    14  O   -0.460021
    15  C   -0.298807
    16  C   -0.298849
    17  C   -0.475054
    18  H    0.142085
    19  H    0.152913
    20  H    0.144028
    21  H    0.155606
    22  H    0.158093
    23  H    0.151157
    24  H    0.161849
    25  C   -0.298212
    26  C   -0.302484
    27  C   -0.478690
    28  H    0.144156
    29  H    0.150868
    30  H    0.154860
    31  H    0.151446
    32  H    0.154671
    33  H    0.156630
    34  H    0.163182
 Sum of Mulliken charges =  -0.00000

 Dipole moment (field-independent basis, Debye):
    X=              4.3110    Y=             -2.7727    Z=             -0.1517  Tot=              5.1279
 Quadrupole moment (field-independent basis, Debye-Ang):
   XX=           -116.7718   YY=            -91.7783   ZZ=            -90.8890
   XY=              6.1664   XZ=              2.2090   YZ=              1.2152

 Normal termination of Gaussian 16 at Thu May  6 09:27:56 2021.
