 Gaussian 16, Revision A.03,
 Gaussian 16:  EM64L-G16RevA.03 25-Dec-2016

 -------------
 #p 6-31g* mp2
 -------------

 ------------------------------------------------------
 Input file generated by CHIRIPA (05-May-2021 14:53:16)
 ------------------------------------------------------
 Symbolic Z-matrix:
 Charge =  0 Multiplicity = 1

                         Standard orientation:
 ---------------------------------------------------------------------
 Center     Atomic      Atomic             Coordinates (Angstroms)
 Number     Number       Type             X           Y           Z
 ---------------------------------------------------------------------
      1          6           0        3.522221   -0.578536   -0.372601
      2          6           0        2.406349   -1.230818    0.444309
      3          6           0        1.215288   -1.655484   -0.415240
      4          1           0        3.118354    0.296476   -0.900040
      5          1           0        3.859616   -1.281776   -1.146560
      6          1           0        2.072111   -0.527072    1.217382
      7          1           0        2.812966   -2.104266    0.970016
      8          1           0        1.527854   -2.376718   -1.177292
      9          1           0        0.782789   -0.790563   -0.928520
     10          1           0        0.429361   -2.119406    0.188875
     11          6           0        4.719842   -0.148556    0.472709
     12          6           0        5.835713    0.503727   -0.344202
     13          6           0        7.026775    0.928393    0.515348
     14          1           0        4.382447    0.554685    1.246668
     15          1           0        5.123709   -1.023567    1.000148
     16          1           0        5.429097    1.377175   -0.869908
     17          1           0        6.169952   -0.200020   -1.117274
     18          1           0        7.459274    0.063471    1.028628
     19          1           0        6.714209    1.649627    1.277400
     20          1           0        7.812702    1.392315   -0.088767
     21          6           0       -3.888188   -2.140495    0.162339
     22          6           0       -2.755717   -1.785873   -0.578115
     23          6           0       -2.375855   -0.445637   -0.696516
     24          6           0       -3.154915    0.518413   -0.058579
     25          6           0       -4.288554    0.196730    0.686184
     26          6           0       -4.649650   -1.149808    0.791017
     27          1           0       -4.175985   -3.184072    0.249046
     28          1           0       -2.162469   -2.553126   -1.067425
     29          1           0       -1.503836   -0.143184   -1.263548
     30          1           0       -4.860055    0.983979    1.162677
     31          1           0       -5.529635   -1.422287    1.366714
     32          7           0       -2.762705    1.940598   -0.176744
     33          8           0       -3.465841    2.771005    0.394799
     34          8           0       -1.759581    2.197969   -0.838665
 ---------------------------------------------------------------------

 SCF Done:  E(RHF) =  -669.535262908     A.U. after   15 cycles
 E2 =    -0.2091634628D+01 EUMP2 =    -0.67162689753565D+03

 The electronic state is 1-A.
 Alpha  occ. eigenvalues --  -20.60759 -20.60753 -15.85810 -11.31136 -11.27723
 Alpha  occ. eigenvalues --  -11.27680 -11.27462 -11.26731 -11.26695 -11.21822
 Alpha  occ. eigenvalues --  -11.21590 -11.21527 -11.21433 -11.21340 -11.20983
 Alpha  occ. eigenvalues --   -1.59833  -1.39388  -1.19319  -1.08722  -1.08485
 Alpha  occ. eigenvalues --   -1.04719  -1.03645  -0.96130  -0.95558  -0.87162
 Alpha  occ. eigenvalues --   -0.86117  -0.82391  -0.79728  -0.78273  -0.77434
 Alpha  occ. eigenvalues --   -0.72031  -0.71155  -0.70441  -0.65120  -0.64970
 Alpha  occ. eigenvalues --   -0.64721  -0.62117  -0.61009  -0.59500  -0.57717
 Alpha  occ. eigenvalues --   -0.55469  -0.55181  -0.53157  -0.52868  -0.52732
 Alpha  occ. eigenvalues --   -0.52486  -0.50041  -0.48787  -0.48785  -0.48031
 Alpha  occ. eigenvalues --   -0.46718  -0.45826  -0.45718  -0.44800  -0.43891
 Alpha  occ. eigenvalues --   -0.37308  -0.36285
 Alpha virt. eigenvalues --    0.05074   0.11290   0.16504   0.20797   0.22898
 Alpha virt. eigenvalues --    0.24159   0.25726   0.26642   0.27311   0.27944
 Alpha virt. eigenvalues --    0.29103   0.29499   0.31418   0.31584   0.32231

 Mulliken charges:
               1
     1  C   -0.299987
     2  C   -0.298614
     3  C   -0.484371
     4  H    0.154938
     5  H    0.148145
     6  H    0.156672
     7  H    0.151651
     8  H    0.153932
     9  H    0.156295
    10  H    0.158715
    11  C   -0.298770
    12  C   -0.300114
    13  C   -0.475878
    14  H    0.151783
    15  H    0.148515
    16  H    0.154352
    17  H    0.151054
    18  H    0.154336
    19  H    0.156255
    20  H    0.160556
    21  C   -0.171315
    22  C   -0.221274
    23  C   -0.170925
    24  C    0.157779
    25  C   -0.170774
    26  C   -0.218843
    27  H    0.225430
    28  H    0.225721
    29  H    0.280178
    30  H    0.275365
    31  H    0.223186
    32  N    0.487894
    33  O   -0.460442
    34  O   -0.461445
 Sum of Mulliken charges =  -0.00000

 Dipole moment (field-independent basis, Debye):
    X=             -1.2973    Y=             -4.9625    Z=              0.4428  Tot=              5.1483
 Quadrupole moment (field-independent basis, Debye-Ang):
   XX=            -83.7767   YY=            -99.6590   ZZ=            -94.0633
   XY=             13.5983   XZ=             -4.3050   YZ=              1.3022

 Normal termination of Gaussian 16 at Thu May  6 15:32:36 2021.
