 Gaussian 16, Revision A.03,
 Gaussian 16:  EM64L-G16RevA.03 25-Dec-2016

 -------------
 #p 6-31g* mp2
 -------------

 ------------------------------------------------------
 Input file generated by CHIRIPA (05-May-2021 14:55:24)
 ------------------------------------------------------
 Symbolic Z-matrix:
 Charge =  0 Multiplicity = 1

                         Standard orientation:
 ---------------------------------------------------------------------
 Center     Atomic      Atomic             Coordinates (Angstroms)
 Number     Number       Type             X           Y           Z
 ---------------------------------------------------------------------
      1          6           0        3.979660    0.979048    1.061034
      2          6           0        3.825699    0.941386   -0.328714
      3          6           0        2.891138    0.083718   -0.916550
      4          6           0        2.123737   -0.726218   -0.080853
      5          6           0        2.253779   -0.711562    1.307010
      6          6           0        3.194593    0.153909    1.873029
      7          1           0        4.708079    1.648336    1.509205
      8          1           0        4.434025    1.581074   -0.961788
      9          1           0        2.751339    0.034383   -1.989602
     10          1           0        1.632964   -1.361096    1.912083
     11          1           0        3.312002    0.181043    2.952623
     12          7           0        1.131049   -1.638323   -0.691620
     13          8           0        0.467129   -2.341863    0.066587
     14          8           0        1.035697   -1.632419   -1.916981
     15          6           0       -2.166019    0.758905   -0.076817
     16          6           0       -1.631538    2.092064   -0.601223
     17          6           0       -0.105912    2.120151   -0.698543
     18          1           0       -1.730384    0.559896    0.911900
     19          1           0       -1.824857   -0.050260   -0.737314
     20          1           0       -1.974757    2.898627    0.059288
     21          1           0       -2.068644    2.288015   -1.588722
     22          1           0        0.251565    1.335683   -1.373392
     23          1           0        0.345985    1.949764    0.283983
     24          1           0        0.254673    3.082279   -1.075569
     25          6           0       -3.689581    0.715379    0.026106
     26          6           0       -4.224063   -0.617781    0.550511
     27          6           0       -5.749688   -0.645868    0.647832
     28          1           0       -4.030744    1.524543    0.686603
     29          1           0       -4.125216    0.914388   -0.962611
     30          1           0       -3.786956   -0.813731    1.538011
     31          1           0       -3.880843   -1.424343   -0.109999
     32          1           0       -6.201585   -0.475480   -0.334694
     33          1           0       -6.107165    0.138601    1.322681
     34          1           0       -6.110274   -1.607996    1.024857
 ---------------------------------------------------------------------

 SCF Done:  E(RHF) =  -669.535102006     A.U. after   15 cycles
 E2 =    -0.2094356097D+01 EUMP2 =    -0.67162945810343D+03

 The electronic state is 1-A.
 Alpha  occ. eigenvalues --  -20.60884 -20.60878 -15.85890 -11.31148 -11.27769
 Alpha  occ. eigenvalues --  -11.27735 -11.27515 -11.26785 -11.26759 -11.21201
 Alpha  occ. eigenvalues --  -11.20917 -11.20822 -11.20811 -11.20746 -11.20525
 Alpha  occ. eigenvalues --   -1.59934  -1.39492  -1.19368  -1.08778  -1.07884
 Alpha  occ. eigenvalues --   -1.04770  -1.03050  -0.95634  -0.95510  -0.86562
 Alpha  occ. eigenvalues --   -0.86161  -0.82462  -0.79119  -0.77686  -0.77512
 Alpha  occ. eigenvalues --   -0.72126  -0.71239  -0.70493  -0.65029  -0.64779
 Alpha  occ. eigenvalues --   -0.64506  -0.62125  -0.60442  -0.58899  -0.57176
 Alpha  occ. eigenvalues --   -0.55286  -0.54810  -0.53341  -0.52864  -0.52216
 Alpha  occ. eigenvalues --   -0.51728  -0.49484  -0.48889  -0.48878  -0.47395
 Alpha  occ. eigenvalues --   -0.46142  -0.45242  -0.45116  -0.44835  -0.43286
 Alpha  occ. eigenvalues --   -0.37290  -0.36330
 Alpha virt. eigenvalues --    0.04984   0.11218   0.16504   0.21345   0.23358
 Alpha virt. eigenvalues --    0.24604   0.26916   0.27403   0.27644   0.28458
 Alpha virt. eigenvalues --    0.28506   0.30784   0.31559   0.31948   0.32341

 Mulliken charges:
               1
     1  C   -0.170622
     2  C   -0.217516
     3  C   -0.169531
     4  C    0.163581
     5  C   -0.172158
     6  C   -0.219145
     7  H    0.225687
     8  H    0.223538
     9  H    0.274974
    10  H    0.275438
    11  H    0.223368
    12  N    0.489315
    13  O   -0.458720
    14  O   -0.462066
    15  C   -0.303728
    16  C   -0.297978
    17  C   -0.482241
    18  H    0.146074
    19  H    0.163404
    20  H    0.148520
    21  H    0.152500
    22  H    0.157810
    23  H    0.154546
    24  H    0.155579
    25  C   -0.298052
    26  C   -0.299991
    27  C   -0.475675
    28  H    0.145730
    29  H    0.149374
    30  H    0.150869
    31  H    0.160472
    32  H    0.154496
    33  H    0.152228
    34  H    0.159921
 Sum of Mulliken charges =  -0.00000

 Dipole moment (field-independent basis, Debye):
    X=              3.5918    Y=              3.0505    Z=              2.1069  Tot=              5.1619
 Quadrupole moment (field-independent basis, Debye-Ang):
   XX=            -81.6329   YY=            -99.8337   ZZ=            -90.2302
   XY=              5.1418   XZ=              3.4120   YZ=             -3.1478

 Normal termination of Gaussian 16 at Wed May  5 19:09:18 2021.
