 Gaussian 16, Revision A.03,
 Gaussian 16:  EM64L-G16RevA.03 25-Dec-2016

 -------------
 #p 6-31g* mp2
 -------------

 ------------------------------------------------------
 Input file generated by CHIRIPA (05-May-2021 14:51:09)
 ------------------------------------------------------
 Symbolic Z-matrix:
 Charge =  0 Multiplicity = 1

                         Standard orientation:
 ---------------------------------------------------------------------
 Center     Atomic      Atomic             Coordinates (Angstroms)
 Number     Number       Type             X           Y           Z
 ---------------------------------------------------------------------
      1          6           0        2.832303    0.764771   -0.012572
      2          6           0        3.751189    1.957541   -0.278906
      3          6           0        3.221690    3.258270    0.325684
      4          1           0        1.834823    0.980467   -0.419332
      5          1           0        2.707630    0.641899    1.072211
      6          1           0        3.875201    2.077277   -1.362834
      7          1           0        4.746649    1.738902    0.128366
      8          1           0        3.114776    3.163079    1.411091
      9          1           0        2.238376    3.503377   -0.088582
     10          1           0        3.893954    4.097900    0.123341
     11          6           0        3.348169   -0.542819   -0.610752
     12          6           0        2.429284   -1.735589   -0.344418
     13          6           0        2.958782   -3.036318   -0.949008
     14          1           0        3.472842   -0.419947   -1.695535
     15          1           0        4.345649   -0.758515   -0.203992
     16          1           0        1.433823   -1.516950   -0.751690
     17          1           0        2.305272   -1.855325    0.739510
     18          1           0        3.942097   -3.281425   -0.534742
     19          1           0        3.065696   -2.941127   -2.034416
     20          1           0        2.286518   -3.875948   -0.746665
     21          6           0       -3.462430    0.377229   -0.142827
     22          6           0       -4.932719    0.012125   -0.350031
     23          6           0       -5.663895    0.998177   -1.261553
     24          1           0       -3.398668    1.388250    0.282281
     25          1           0       -2.960466    0.416588   -1.119494
     26          1           0       -5.431438   -0.027889    0.626850
     27          1           0       -4.992994   -0.998220   -0.774517
     28          1           0       -5.192508    1.032172   -2.249096
     29          1           0       -5.633444    2.008014   -0.839767
     30          1           0       -6.713362    0.718186   -1.396027
     31          6           0       -2.718043   -0.599181    0.766151
     32          6           0       -1.247753   -0.234076    0.973355
     33          6           0       -0.516577   -1.220129    1.884877
     34          1           0       -3.220006   -0.638539    1.742818
     35          1           0       -2.781805   -1.610201    0.341043
     36          1           0       -1.187478    0.776268    1.397841
     37          1           0       -0.749034   -0.194063   -0.003526
     38          1           0       -0.547029   -2.229966    1.463092
     39          1           0       -0.987964   -1.254123    2.872420
     40          1           0        0.532890   -0.940137    2.019351
 ---------------------------------------------------------------------

 SCF Done:  E(RHF) =  -470.732186073     A.U. after   11 cycles
 E2 =    -0.1584257237D+01 EUMP2 =    -0.47231644330990D+03

 The electronic state is 1-A.
 Alpha  occ. eigenvalues --  -11.21605 -11.21597 -11.21549 -11.21527 -11.21401
 Alpha  occ. eigenvalues --  -11.21390 -11.21339 -11.21327 -11.21071 -11.21070
 Alpha  occ. eigenvalues --  -11.21051 -11.20942  -1.08459  -1.08379  -1.03561
 Alpha  occ. eigenvalues --   -1.03455  -0.95973  -0.95946  -0.87027  -0.86931
 Alpha  occ. eigenvalues --   -0.79653  -0.79501  -0.78311  -0.78169  -0.65122
 Alpha  occ. eigenvalues --   -0.64990  -0.60969  -0.60876  -0.59487  -0.59181
 Alpha  occ. eigenvalues --   -0.57627  -0.57519  -0.55265  -0.55231  -0.52786
 Alpha  occ. eigenvalues --   -0.52574  -0.52407  -0.52334  -0.49936  -0.49879
 Alpha  occ. eigenvalues --   -0.47962  -0.47821  -0.46755  -0.46514  -0.45968
 Alpha  occ. eigenvalues --   -0.45733  -0.45687  -0.45408  -0.43784  -0.43673
 Alpha virt. eigenvalues --    0.20995   0.23126   0.23802   0.24421   0.24708
 Alpha virt. eigenvalues --    0.26092   0.26878   0.27594   0.28262   0.29503
 Alpha virt. eigenvalues --    0.30563   0.31288   0.31703   0.32070   0.32321

 Mulliken charges:
               1
     1  C   -0.301962
     2  C   -0.299562
     3  C   -0.475700
     4  H    0.152902
     5  H    0.149674
     6  H    0.151988
     7  H    0.151939
     8  H    0.155056
     9  H    0.155413
    10  H    0.160230
    11  C   -0.298350
    12  C   -0.304377
    13  C   -0.475388
    14  H    0.149022
    15  H    0.149353
    16  H    0.154890
    17  H    0.156131
    18  H    0.155032
    19  H    0.154652
    20  H    0.159861
    21  C   -0.298201
    22  C   -0.299595
    23  C   -0.475690
    24  H    0.149668
    25  H    0.148906
    26  H    0.152006
    27  H    0.151899
    28  H    0.155039
    29  H    0.155186
    30  H    0.160256
    31  C   -0.298357
    32  C   -0.302846
    33  C   -0.477683
    34  H    0.149602
    35  H    0.149393
    36  H    0.151975
    37  H    0.154195
    38  H    0.154728
    39  H    0.153582
    40  H    0.165134
 Sum of Mulliken charges =  -0.00000

 Dipole moment (field-independent basis, Debye):
    X=              0.0168    Y=              0.0033    Z=              0.0079  Tot=              0.0189
 Quadrupole moment (field-independent basis, Debye-Ang):
   XX=            -85.0956   YY=            -85.8914   ZZ=            -83.9623
   XY=              0.4203   XZ=             -0.0255   YZ=              0.2875

 Normal termination of Gaussian 16 at Thu May  6 06:53:25 2021.
