 Gaussian 16, Revision A.03,
 Gaussian 16:  EM64L-G16RevA.03 25-Dec-2016

 -------------
 #p 6-31g* mp2
 -------------

 ------------------------------------------------------
 Input file generated by CHIRIPA (05-May-2021 14:53:12)
 ------------------------------------------------------
 Symbolic Z-matrix:
 Charge =  0 Multiplicity = 1

                         Standard orientation:
 ---------------------------------------------------------------------
 Center     Atomic      Atomic             Coordinates (Angstroms)
 Number     Number       Type             X           Y           Z
 ---------------------------------------------------------------------
      1          6           0       -3.462548   -0.521213    0.424007
      2          6           0       -3.219446   -1.843909   -0.303567
      3          6           0       -2.637139   -2.922810    0.610043
      4          1           0       -2.515698   -0.167382    0.854382
      5          1           0       -4.144011   -0.695026    1.268277
      6          1           0       -2.539737   -1.667395   -1.147045
      7          1           0       -4.166947   -2.194536   -0.732423
      8          1           0       -3.315230   -3.127913    1.444745
      9          1           0       -1.678775   -2.597777    1.027767
     10          1           0       -2.471278   -3.859935    0.069536
     11          6           0       -4.044524    0.567277   -0.476115
     12          6           0       -4.287627    1.889972    0.251459
     13          6           0       -4.869933    2.968874   -0.662151
     14          1           0       -3.363061    0.741090   -1.320385
     15          1           0       -4.991374    0.213446   -0.906490
     16          1           0       -3.340125    2.240600    0.680315
     17          1           0       -4.967335    1.713459    1.094937
     18          1           0       -5.828297    2.643841   -1.079875
     19          1           0       -4.191842    3.173977   -1.496853
     20          1           0       -5.035794    3.905999   -0.121644
     21          6           0        4.627154    1.847950    0.130615
     22          6           0        3.509911    1.866422    0.972012
     23          6           0        2.564489    0.837844    0.919558
     24          6           0        2.768613   -0.198386    0.009695
     25          6           0        3.871446   -0.245097   -0.841697
     26          6           0        4.804044    0.794106   -0.771962
     27          1           0        5.356600    2.651101    0.178075
     28          1           0        3.369957    2.683579    1.673946
     29          1           0        1.690465    0.827167    1.559391
     30          1           0        3.983783   -1.073072   -1.531086
     31          1           0        5.670756    0.777142   -1.426612
     32          7           0        1.774524   -1.292921   -0.054982
     33          8           0        1.977300   -2.194535   -0.865297
     34          8           0        0.811405   -1.228477    0.705863
 ---------------------------------------------------------------------

 SCF Done:  E(RHF) =  -669.536438433     A.U. after   15 cycles
 E2 =    -0.2091204273D+01 EUMP2 =    -0.67162764270663D+03

 The electronic state is 1-A.
 Alpha  occ. eigenvalues --  -20.61051 -20.61042 -15.86076 -11.31361 -11.27919
 Alpha  occ. eigenvalues --  -11.27914 -11.27648 -11.26916 -11.26907 -11.21089
 Alpha  occ. eigenvalues --  -11.20694 -11.20629 -11.20313 -11.20246 -11.19310
 Alpha  occ. eigenvalues --   -1.60102  -1.39660  -1.19524  -1.08934  -1.07517
 Alpha  occ. eigenvalues --   -1.04915  -1.02539  -0.95783  -0.94982  -0.86317
 Alpha  occ. eigenvalues --   -0.86004  -0.82618  -0.78682  -0.77676  -0.77259
 Alpha  occ. eigenvalues --   -0.72301  -0.71412  -0.70632  -0.65182  -0.64917
 Alpha  occ. eigenvalues --   -0.64146  -0.62262  -0.59918  -0.58449  -0.56583
 Alpha  occ. eigenvalues --   -0.55421  -0.54255  -0.53248  -0.53005  -0.51695
 Alpha  occ. eigenvalues --   -0.51416  -0.49240  -0.49044  -0.48721  -0.46958
 Alpha  occ. eigenvalues --   -0.45713  -0.45097  -0.44798  -0.44642  -0.42811
 Alpha  occ. eigenvalues --   -0.37501  -0.36514
 Alpha virt. eigenvalues --    0.04847   0.11142   0.16347   0.21251   0.23674
 Alpha virt. eigenvalues --    0.25361   0.27135   0.27420   0.28075   0.28526
 Alpha virt. eigenvalues --    0.29084   0.30858   0.32185   0.32452   0.32617

 Mulliken charges:
               1
     1  C   -0.299900
     2  C   -0.296055
     3  C   -0.485508
     4  H    0.155988
     5  H    0.145239
     6  H    0.154528
     7  H    0.144637
     8  H    0.144555
     9  H    0.183747
    10  H    0.156903
    11  C   -0.297533
    12  C   -0.298249
    13  C   -0.475020
    14  H    0.148257
    15  H    0.147707
    16  H    0.148732
    17  H    0.150966
    18  H    0.154996
    19  H    0.153741
    20  H    0.157345
    21  C   -0.170463
    22  C   -0.218518
    23  C   -0.170839
    24  C    0.157512
    25  C   -0.170426
    26  C   -0.218593
    27  H    0.226276
    28  H    0.224120
    29  H    0.275587
    30  H    0.276041
    31  H    0.224073
    32  N    0.491292
    33  O   -0.457924
    34  O   -0.463215
 Sum of Mulliken charges =  -0.00000

 Dipole moment (field-independent basis, Debye):
    X=              3.9034    Y=              3.8100    Z=              0.2385  Tot=              5.4598
 Quadrupole moment (field-independent basis, Debye-Ang):
   XX=            -74.8403   YY=            -96.9592   ZZ=            -92.8921
   XY=              9.4522   XZ=             -2.0779   YZ=              2.3564

 Normal termination of Gaussian 16 at Thu May  6 12:00:41 2021.
