 Gaussian 16, Revision A.03,
 Gaussian 16:  EM64L-G16RevA.03 25-Dec-2016

 -------------
 #p 6-31g* mp2
 -------------

 ------------------------------------------------------
 Input file generated by CHIRIPA (05-May-2021 14:53:17)
 ------------------------------------------------------
 Symbolic Z-matrix:
 Charge =  0 Multiplicity = 1

                         Standard orientation:
 ---------------------------------------------------------------------
 Center     Atomic      Atomic             Coordinates (Angstroms)
 Number     Number       Type             X           Y           Z
 ---------------------------------------------------------------------
      1          6           0        2.714278    1.300714    0.514843
      2          6           0        1.273050    1.604417    0.925467
      3          6           0        1.100725    3.021147    1.474077
      4          1           0        3.373516    1.442283    1.382200
      5          1           0        3.033668    2.029665   -0.242794
      6          1           0        0.956008    0.874263    1.681095
      7          1           0        0.617142    1.461923    0.057080
      8          1           0        1.390578    3.763030    0.722947
      9          1           0        1.731370    3.172030    2.356189
     10          1           0        0.062962    3.216910    1.761455
     11          6           0        2.902520   -0.111847   -0.035580
     12          6           0        4.343748   -0.415551   -0.446203
     13          6           0        4.516073   -1.832281   -0.994814
     14          1           0        2.583130   -0.840798    0.722058
     15          1           0        2.243282   -0.253416   -0.902937
     16          1           0        4.999657   -0.273056    0.422183
     17          1           0        4.660790    0.314604   -1.201832
     18          1           0        3.885428   -1.983164   -1.876926
     19          1           0        4.226220   -2.574163   -0.243684
     20          1           0        5.553836   -2.028043   -1.282191
     21          6           0       -1.492766   -2.591619    0.974273
     22          6           0       -0.625455   -1.968747    0.070768
     23          6           0       -1.003510   -0.789762   -0.578554
     24          6           0       -2.261861   -0.258750   -0.299501
     25          6           0       -3.148310   -0.855810    0.595494
     26          6           0       -2.749209   -2.034147    1.233296
     27          1           0       -1.190909   -3.507231    1.474207
     28          1           0        0.350920   -2.399428   -0.132333
     29          1           0       -0.351768   -0.286798   -1.282598
     30          1           0       -4.115251   -0.402694    0.777506
     31          1           0       -3.424839   -2.515703    1.934490
     32          7           0       -2.673230    0.989045   -0.980810
     33          8           0       -3.787206    1.436782   -0.717699
     34          8           0       -1.873898    1.495702   -1.765032
 ---------------------------------------------------------------------

 SCF Done:  E(RHF) =  -669.534525627     A.U. after   15 cycles
 E2 =    -0.2094525233D+01 EUMP2 =    -0.67162905086061D+03

 The electronic state is 1-A.
 Alpha  occ. eigenvalues --  -20.60840 -20.60827 -15.85861 -11.31134 -11.27727
 Alpha  occ. eigenvalues --  -11.27701 -11.27458 -11.26714 -11.26660 -11.22094
 Alpha  occ. eigenvalues --  -11.22007 -11.21659 -11.21603 -11.21509 -11.20865
 Alpha  occ. eigenvalues --   -1.59894  -1.39453  -1.19324  -1.08784  -1.08731
 Alpha  occ. eigenvalues --   -1.04718  -1.03763  -0.96246  -0.95583  -0.87258
 Alpha  occ. eigenvalues --   -0.86126  -0.82419  -0.79883  -0.78676  -0.77415
 Alpha  occ. eigenvalues --   -0.72087  -0.71207  -0.70461  -0.65460  -0.64978
 Alpha  occ. eigenvalues --   -0.64681  -0.62096  -0.61125  -0.59640  -0.57853
 Alpha  occ. eigenvalues --   -0.55545  -0.55238  -0.53148  -0.52865  -0.52828
 Alpha  occ. eigenvalues --   -0.52615  -0.50187  -0.48862  -0.48837  -0.48179
 Alpha  occ. eigenvalues --   -0.46931  -0.46124  -0.46004  -0.44793  -0.44051
 Alpha  occ. eigenvalues --   -0.37295  -0.36228
 Alpha virt. eigenvalues --    0.05037   0.11254   0.16473   0.20048   0.23005
 Alpha virt. eigenvalues --    0.23739   0.24834   0.26114   0.27512   0.28336
 Alpha virt. eigenvalues --    0.30019   0.30635   0.31247   0.31576   0.32146

 Mulliken charges:
               1
     1  C   -0.298057
     2  C   -0.308298
     3  C   -0.474476
     4  H    0.150166
     5  H    0.153587
     6  H    0.149885
     7  H    0.160057
     8  H    0.159058
     9  H    0.152252
    10  H    0.163243
    11  C   -0.301573
    12  C   -0.299261
    13  C   -0.476938
    14  H    0.146081
    15  H    0.142150
    16  H    0.154342
    17  H    0.155985
    18  H    0.153686
    19  H    0.151235
    20  H    0.163974
    21  C   -0.171366
    22  C   -0.220206
    23  C   -0.170155
    24  C    0.160313
    25  C   -0.170831
    26  C   -0.218995
    27  H    0.225344
    28  H    0.226519
    29  H    0.276645
    30  H    0.275222
    31  H    0.223048
    32  N    0.488843
    33  O   -0.459497
    34  O   -0.461984
 Sum of Mulliken charges =  -0.00000

 Dipole moment (field-independent basis, Debye):
    X=              1.4901    Y=             -4.2751    Z=              2.3910  Tot=              5.1200
 Quadrupole moment (field-independent basis, Debye-Ang):
   XX=            -97.3181   YY=            -93.8533   ZZ=            -95.0705
   XY=             10.1262   XZ=             -8.1611   YZ=             -0.2355

 Normal termination of Gaussian 16 at Thu May  6 18:57:18 2021.
