 Gaussian 16, Revision A.03,
 Gaussian 16:  EM64L-G16RevA.03 25-Dec-2016

 -------------
 #p 6-31g* mp2
 -------------

 ------------------------------------------------------
 Input file generated by CHIRIPA (05-May-2021 14:53:17)
 ------------------------------------------------------
 Symbolic Z-matrix:
 Charge =  0 Multiplicity = 1

                         Standard orientation:
 ---------------------------------------------------------------------
 Center     Atomic      Atomic             Coordinates (Angstroms)
 Number     Number       Type             X           Y           Z
 ---------------------------------------------------------------------
      1          6           0       -3.232872    1.041084   -0.427737
      2          6           0       -1.729006    1.218588   -0.639552
      3          6           0       -1.387618    2.489437   -1.418135
      4          1           0       -3.734382    1.019960   -1.404971
      5          1           0       -3.626669    1.916622    0.106821
      6          1           0       -1.337918    0.342340   -1.172332
      7          1           0       -1.230997    1.239100    0.338294
      8          1           0       -1.750507    3.375565   -0.887391
      9          1           0       -1.858035    2.473710   -2.406599
     10          1           0       -0.307435    2.596500   -1.558146
     11          6           0       -3.589988   -0.224914    0.349080
     12          6           0       -5.093854   -0.402418    0.560895
     13          6           0       -5.435242   -1.673266    1.339478
     14          1           0       -3.196192   -1.100452   -0.185478
     15          1           0       -3.088479   -0.203790    1.326314
     16          1           0       -5.591863   -0.422930   -0.416951
     17          1           0       -5.484943    0.473830    1.093675
     18          1           0       -4.964826   -1.657539    2.327943
     19          1           0       -5.072354   -2.559395    0.808734
     20          1           0       -6.515425   -1.780330    1.479489
     21          6           0        3.433737    1.706873    1.323717
     22          6           0        2.403325    1.824992    0.385198
     23          6           0        1.969381    0.709328   -0.336976
     24          6           0        2.590879   -0.514653   -0.094277
     25          6           0        3.619945   -0.664401    0.834103
     26          6           0        4.037694    0.464742    1.544784
     27          1           0        3.764544    2.578782    1.880256
     28          1           0        1.932457    2.788390    0.211438
     29          1           0        1.173826    0.772481   -1.069451
     30          1           0        4.070073   -1.638003    0.985442
     31          1           0        4.838151    0.370043    2.273032
     32          7           0        2.140055   -1.702891   -0.852726
     33          8           0        2.703853   -2.770043   -0.620441
     34          8           0        1.231436   -1.544582   -1.665123
 ---------------------------------------------------------------------

 SCF Done:  E(RHF) =  -669.535284989     A.U. after   15 cycles
 E2 =    -0.2092829527D+01 EUMP2 =    -0.67162811451640D+03

 The electronic state is 1-A.
 Alpha  occ. eigenvalues --  -20.60798 -20.60793 -15.85838 -11.31138 -11.27732
 Alpha  occ. eigenvalues --  -11.27657 -11.27472 -11.26734 -11.26708 -11.21776
 Alpha  occ. eigenvalues --  -11.21656 -11.21482 -11.21446 -11.21245 -11.20906
 Alpha  occ. eigenvalues --   -1.59863  -1.39419  -1.19324  -1.08731  -1.08461
 Alpha  occ. eigenvalues --   -1.04731  -1.03639  -0.96118  -0.95567  -0.87117
 Alpha  occ. eigenvalues --   -0.86124  -0.82410  -0.79709  -0.78253  -0.77444
 Alpha  occ. eigenvalues --   -0.72062  -0.71177  -0.70454  -0.65098  -0.64970
 Alpha  occ. eigenvalues --   -0.64728  -0.62226  -0.61012  -0.59430  -0.57687
 Alpha  occ. eigenvalues --   -0.55367  -0.55210  -0.53053  -0.52864  -0.52784
 Alpha  occ. eigenvalues --   -0.52505  -0.50008  -0.48831  -0.48811  -0.48012
 Alpha  occ. eigenvalues --   -0.46681  -0.45789  -0.45661  -0.44814  -0.43880
 Alpha  occ. eigenvalues --   -0.37311  -0.36302
 Alpha virt. eigenvalues --    0.05043   0.11317   0.16503   0.20101   0.23046
 Alpha virt. eigenvalues --    0.23999   0.26358   0.26588   0.27427   0.27981
 Alpha virt. eigenvalues --    0.29333   0.29924   0.31334   0.31689   0.32092

 Mulliken charges:
               1
     1  C   -0.297400
     2  C   -0.315175
     3  C   -0.478911
     4  H    0.151753
     5  H    0.147543
     6  H    0.170116
     7  H    0.150232
     8  H    0.156021
     9  H    0.162646
    10  H    0.146791
    11  C   -0.300012
    12  C   -0.299873
    13  C   -0.475971
    14  H    0.157187
    15  H    0.148481
    16  H    0.152577
    17  H    0.150181
    18  H    0.154539
    19  H    0.157931
    20  H    0.159712
    21  C   -0.170390
    22  C   -0.223830
    23  C   -0.174646
    24  C    0.157578
    25  C   -0.170313
    26  C   -0.219156
    27  H    0.225463
    28  H    0.224886
    29  H    0.287141
    30  H    0.275337
    31  H    0.223258
    32  N    0.488672
    33  O   -0.459983
    34  O   -0.462386
 Sum of Mulliken charges =  -0.00000

 Dipole moment (field-independent basis, Debye):
    X=              1.4788    Y=              4.0572    Z=              2.6268  Tot=              5.0545
 Quadrupole moment (field-independent basis, Debye-Ang):
   XX=            -84.6287   YY=            -98.6712   ZZ=            -94.2230
   XY=              7.7706   XZ=              9.3521   YZ=             -2.2774

 Normal termination of Gaussian 16 at Wed May  5 20:23:23 2021.
