 Gaussian 16, Revision A.03,
 Gaussian 16:  EM64L-G16RevA.03 25-Dec-2016

 -------------
 #p 6-31g* mp2
 -------------

 ------------------------------------------------------
 Input file generated by CHIRIPA (05-May-2021 14:51:09)
 ------------------------------------------------------
 Symbolic Z-matrix:
 Charge =  0 Multiplicity = 1

                         Standard orientation:
 ---------------------------------------------------------------------
 Center     Atomic      Atomic             Coordinates (Angstroms)
 Number     Number       Type             X           Y           Z
 ---------------------------------------------------------------------
      1          6           0        3.416570   -0.195268    0.161165
      2          6           0        4.011770   -0.499285   -1.214079
      3          6           0        5.338728    0.220683   -1.456201
      4          1           0        3.270114    0.889161    0.258678
      5          1           0        4.138551   -0.484225    0.937466
      6          1           0        3.288321   -0.211121   -1.987513
      7          1           0        4.156647   -1.583134   -1.308403
      8          1           0        6.079596   -0.074428   -0.706118
      9          1           0        5.206337    1.305380   -1.389086
     10          1           0        5.746453   -0.010784   -2.445162
     11          6           0        2.089883   -0.907756    0.418050
     12          6           0        1.494683   -0.603739    1.793295
     13          6           0        0.167725   -1.323707    2.035416
     14          1           0        1.367902   -0.618800   -0.358250
     15          1           0        2.236339   -1.992185    0.320537
     16          1           0        1.349806    0.480110    1.887619
     17          1           0        2.218131   -0.891903    2.566729
     18          1           0        0.300116   -2.408404    1.968302
     19          1           0       -0.573143   -1.028596    1.285333
     20          1           0       -0.240000   -1.092240    3.024377
     21          6           0       -2.880359   -0.201245   -0.264585
     22          6           0       -4.174991   -0.621043   -0.961495
     23          6           0       -4.415426   -2.129871   -0.902981
     24          1           0       -2.034590   -0.727017   -0.728464
     25          1           0       -2.914149   -0.527694    0.784073
     26          1           0       -4.139356   -0.292684   -2.008169
     27          1           0       -5.017756   -0.094066   -0.496029
     28          1           0       -4.477395   -2.470095    0.135773
     29          1           0       -3.594005   -2.669841   -1.384958
     30          1           0       -5.346210   -2.407930   -1.407149
     31          6           0       -2.626094    1.304269   -0.314630
     32          6           0       -1.331462    1.724067    0.382279
     33          6           0       -1.091027    3.232895    0.323765
     34          1           0       -2.592304    1.630717   -1.363288
     35          1           0       -3.471863    1.830041    0.149249
     36          1           0       -0.488697    1.197090   -0.083186
     37          1           0       -1.367097    1.395708    1.428954
     38          1           0       -1.912448    3.772865    0.805743
     39          1           0       -1.029058    3.573119   -0.714988
     40          1           0       -0.160243    3.510954    0.827933
 ---------------------------------------------------------------------

 SCF Done:  E(RHF) =  -470.731412088     A.U. after   11 cycles
 E2 =    -0.1585563750D+01 EUMP2 =    -0.47231697583778D+03

 The electronic state is 1-A.
 Alpha  occ. eigenvalues --  -11.21639 -11.21638 -11.21597 -11.21482 -11.21468
 Alpha  occ. eigenvalues --  -11.21408 -11.21379 -11.21319 -11.21133 -11.21083
 Alpha  occ. eigenvalues --  -11.21067 -11.20803  -1.08538  -1.08362  -1.03613
 Alpha  occ. eigenvalues --   -1.03434  -0.96045  -0.95909  -0.87052  -0.86936
 Alpha  occ. eigenvalues --   -0.79670  -0.79555  -0.78414  -0.78145  -0.65188
 Alpha  occ. eigenvalues --   -0.64983  -0.61004  -0.60901  -0.59355  -0.59286
 Alpha  occ. eigenvalues --   -0.57765  -0.57443  -0.55320  -0.55231  -0.52743
 Alpha  occ. eigenvalues --   -0.52607  -0.52512  -0.52274  -0.50008  -0.49863
 Alpha  occ. eigenvalues --   -0.47982  -0.47899  -0.46728  -0.46657  -0.46066
 Alpha  occ. eigenvalues --   -0.45749  -0.45650  -0.45171  -0.43834  -0.43726
 Alpha virt. eigenvalues --    0.20605   0.23103   0.23854   0.24290   0.25151
 Alpha virt. eigenvalues --    0.26170   0.26449   0.28151   0.28640   0.29796
 Alpha virt. eigenvalues --    0.30925   0.31197   0.31764   0.31807   0.32313

 Mulliken charges:
               1
     1  C   -0.298230
     2  C   -0.299540
     3  C   -0.475689
     4  H    0.149451
     5  H    0.149773
     6  H    0.151386
     7  H    0.151956
     8  H    0.155246
     9  H    0.155190
    10  H    0.160162
    11  C   -0.301456
    12  C   -0.300788
    13  C   -0.486000
    14  H    0.150090
    15  H    0.149861
    16  H    0.153868
    17  H    0.151468
    18  H    0.153430
    19  H    0.170788
    20  H    0.157173
    21  C   -0.304904
    22  C   -0.298422
    23  C   -0.475874
    24  H    0.150365
    25  H    0.153213
    26  H    0.151892
    27  H    0.152113
    28  H    0.155655
    29  H    0.155418
    30  H    0.160329
    31  C   -0.296645
    32  C   -0.308684
    33  C   -0.475739
    34  H    0.149323
    35  H    0.149890
    36  H    0.156636
    37  H    0.156638
    38  H    0.155571
    39  H    0.155098
    40  H    0.159991
 Sum of Mulliken charges =  -0.00000

 Dipole moment (field-independent basis, Debye):
    X=             -0.0723    Y=              0.0203    Z=             -0.0158  Tot=              0.0768
 Quadrupole moment (field-independent basis, Debye-Ang):
   XX=            -85.2294   YY=            -85.5474   ZZ=            -84.0953
   XY=             -1.1981   XZ=             -0.0295   YZ=             -0.0148

 Normal termination of Gaussian 16 at Thu May  6 00:34:31 2021.
