 Gaussian 16, Revision A.03,
 Gaussian 16:  EM64L-G16RevA.03 25-Dec-2016

 -------------
 #p 6-31g* mp2
 -------------

 ------------------------------------------------------
 Input file generated by CHIRIPA (05-May-2021 14:51:12)
 ------------------------------------------------------
 Symbolic Z-matrix:
 Charge =  0 Multiplicity = 1

                         Standard orientation:
 ---------------------------------------------------------------------
 Center     Atomic      Atomic             Coordinates (Angstroms)
 Number     Number       Type             X           Y           Z
 ---------------------------------------------------------------------
      1          6           0        3.769884   -0.444689    0.289652
      2          6           0        4.521428    0.351178   -0.777944
      3          6           0        5.922849    0.766021   -0.328813
      4          1           0        3.699563    0.157985    1.205503
      5          1           0        4.352914   -1.339445    0.548268
      6          1           0        3.936493    1.243449   -1.035470
      7          1           0        4.589801   -0.253386   -1.691423
      8          1           0        6.527622   -0.114970   -0.090684
      9          1           0        5.870602    1.390369    0.568996
     10          1           0        6.442225    1.333781   -1.107117
     11          6           0        2.367312   -0.866579   -0.144546
     12          6           0        1.615767   -1.662446    0.923050
     13          6           0        0.214346   -2.077289    0.473919
     14          1           0        1.784282    0.028178   -0.403163
     15          1           0        2.437633   -1.469252   -1.060398
     16          1           0        1.547395   -1.057882    1.836529
     17          1           0        2.200703   -2.554717    1.180576
     18          1           0        0.266593   -2.701637   -0.423890
     19          1           0       -0.390427   -1.196298    0.235790
     20          1           0       -0.305029   -2.645049    1.252223
     21          6           0       -2.771160    1.301099   -0.352441
     22          6           0       -2.217491    2.231652    0.727147
     23          6           0       -1.625866    3.518713    0.151610
     24          1           0       -1.968605    1.052877   -1.060420
     25          1           0       -3.540912    1.834663   -0.927060
     26          1           0       -1.449989    1.696038    1.300451
     27          1           0       -3.021410    2.477533    1.432748
     28          1           0       -2.386032    4.077340   -0.403986
     29          1           0       -0.805683    3.291405   -0.537034
     30          1           0       -1.235918    4.169239    0.940672
     31          6           0       -3.366036    0.010168    0.207334
     32          6           0       -3.919705   -0.920383   -0.872253
     33          6           0       -4.511329   -2.207446   -0.296715
     34          1           0       -2.596283   -0.523394    0.781955
     35          1           0       -4.168591    0.258390    0.915315
     36          1           0       -3.115786   -1.166265   -1.577853
     37          1           0       -4.687206   -0.384771   -1.445556
     38          1           0       -5.331512   -1.980137    0.391929
     39          1           0       -3.751163   -2.766072    0.258881
     40          1           0       -4.901277   -2.857970   -1.085777
 ---------------------------------------------------------------------

 SCF Done:  E(RHF) =  -470.733207341     A.U. after   11 cycles
 E2 =    -0.1583248474D+01 EUMP2 =    -0.47231645581557D+03

 The electronic state is 1-A.
 Alpha  occ. eigenvalues --  -11.21681 -11.21637 -11.21631 -11.21539 -11.21467
 Alpha  occ. eigenvalues --  -11.21402 -11.21389 -11.21283 -11.21161 -11.21105
 Alpha  occ. eigenvalues --  -11.21096 -11.21006  -1.08494  -1.08409  -1.03593
 Alpha  occ. eigenvalues --   -1.03509  -0.96054  -0.95952  -0.87073  -0.86967
 Alpha  occ. eigenvalues --   -0.79667  -0.79567  -0.78307  -0.78215  -0.65240
 Alpha  occ. eigenvalues --   -0.64968  -0.60995  -0.60901  -0.59414  -0.59322
 Alpha  occ. eigenvalues --   -0.57656  -0.57567  -0.55499  -0.55098  -0.52742
 Alpha  occ. eigenvalues --   -0.52656  -0.52479  -0.52368  -0.50078  -0.49816
 Alpha  occ. eigenvalues --   -0.47980  -0.47887  -0.46762  -0.46574  -0.45906
 Alpha  occ. eigenvalues --   -0.45797  -0.45720  -0.45526  -0.43839  -0.43763
 Alpha virt. eigenvalues --    0.19957   0.22949   0.23861   0.24630   0.26043
 Alpha virt. eigenvalues --    0.26911   0.27067   0.27473   0.27935   0.29420
 Alpha virt. eigenvalues --    0.30473   0.31373   0.31742   0.31973   0.32457

 Mulliken charges:
               1
     1  C   -0.298361
     2  C   -0.299724
     3  C   -0.475755
     4  H    0.149859
     5  H    0.149733
     6  H    0.152002
     7  H    0.151992
     8  H    0.155230
     9  H    0.155307
    10  H    0.160416
    11  C   -0.298534
    12  C   -0.299586
    13  C   -0.482603
    14  H    0.149082
    15  H    0.149857
    16  H    0.152063
    17  H    0.152433
    18  H    0.155731
    19  H    0.161758
    20  H    0.160319
    21  C   -0.299601
    22  C   -0.300029
    23  C   -0.475613
    24  H    0.149506
    25  H    0.149940
    26  H    0.151210
    27  H    0.152395
    28  H    0.155536
    29  H    0.154687
    30  H    0.160222
    31  C   -0.303815
    32  C   -0.299478
    33  C   -0.476254
    34  H    0.155260
    35  H    0.149656
    36  H    0.152605
    37  H    0.151518
    38  H    0.154725
    39  H    0.156386
    40  H    0.159925
 Sum of Mulliken charges =  -0.00000

 Dipole moment (field-independent basis, Debye):
    X=              0.0265    Y=             -0.0163    Z=              0.0045  Tot=              0.0315
 Quadrupole moment (field-independent basis, Debye-Ang):
   XX=            -85.0989   YY=            -84.8913   ZZ=            -84.7486
   XY=             -1.6135   XZ=             -0.2954   YZ=              0.5663

 Normal termination of Gaussian 16 at Thu May  6 03:53:14 2021.
