 Gaussian 16, Revision A.03,
 Gaussian 16:  EM64L-G16RevA.03 25-Dec-2016

 -------------
 #p 6-31g* mp2
 -------------

 ------------------------------------------------------
 Input file generated by CHIRIPA (05-May-2021 14:53:13)
 ------------------------------------------------------
 Symbolic Z-matrix:
 Charge =  0 Multiplicity = 1

                         Standard orientation:
 ---------------------------------------------------------------------
 Center     Atomic      Atomic             Coordinates (Angstroms)
 Number     Number       Type             X           Y           Z
 ---------------------------------------------------------------------
      1          6           0        3.539982    0.369343   -0.335794
      2          6           0        3.454511    1.873791   -0.076342
      3          6           0        2.197651    2.506380   -0.674614
      4          1           0        3.516961    0.188655   -1.419199
      5          1           0        2.648426   -0.118883    0.081531
      6          1           0        4.346628    2.358861   -0.492815
      7          1           0        3.477930    2.050931    1.006566
      8          1           0        1.297418    2.049298   -0.251226
      9          1           0        2.171052    2.358978   -1.759126
     10          1           0        2.156807    3.582148   -0.477346
     11          6           0        4.790991   -0.277393    0.256183
     12          6           0        4.876461   -1.781841   -0.003269
     13          6           0        6.133321   -2.414430    0.595003
     14          1           0        5.682546    0.210833   -0.161142
     15          1           0        4.814011   -0.096705    1.339588
     16          1           0        4.853042   -1.958981   -1.086177
     17          1           0        3.984344   -2.266911    0.413204
     18          1           0        6.159921   -2.267028    1.679515
     19          1           0        7.033554   -1.957348    0.171615
     20          1           0        6.174165   -3.490198    0.397735
     21          6           0       -1.622785    1.871072    0.290939
     22          6           0       -2.569671    1.619010    1.289133
     23          6           0       -3.478559    0.565121    1.155764
     24          6           0       -3.412013   -0.220279    0.005978
     25          6           0       -2.480275    0.005608   -1.006015
     26          6           0       -1.581182    1.064987   -0.851436
     27          1           0       -0.920543    2.691891    0.402780
     28          1           0       -2.604301    2.243387    2.177388
     29          1           0       -4.221903    0.347705    1.913120
     30          1           0       -2.470212   -0.634075   -1.880156
     31          1           0       -0.846897    1.258406   -1.628262
     32          7           0       -4.369028   -1.338891   -0.146441
     33          8           0       -4.289752   -2.016246   -1.168959
     34          8           0       -5.180290   -1.517121    0.759497
 ---------------------------------------------------------------------

 SCF Done:  E(RHF) =  -669.535240543     A.U. after   15 cycles
 E2 =    -0.2091735462D+01 EUMP2 =    -0.67162697600459D+03

 The electronic state is 1-A.
 Alpha  occ. eigenvalues --  -20.60747 -20.60742 -15.85800 -11.31166 -11.27731
 Alpha  occ. eigenvalues --  -11.27719 -11.27425 -11.26740 -11.26704 -11.22454
 Alpha  occ. eigenvalues --  -11.22257 -11.22044 -11.21977 -11.21864 -11.21366
 Alpha  occ. eigenvalues --   -1.59823  -1.39376  -1.19333  -1.09051  -1.08727
 Alpha  occ. eigenvalues --   -1.04734  -1.04189  -0.96673  -0.95562  -0.87703
 Alpha  occ. eigenvalues --   -0.86126  -0.82394  -0.80276  -0.78817  -0.77441
 Alpha  occ. eigenvalues --   -0.72018  -0.71146  -0.70458  -0.65682  -0.64984
 Alpha  occ. eigenvalues --   -0.64741  -0.62093  -0.61577  -0.60052  -0.58244
 Alpha  occ. eigenvalues --   -0.56048  -0.55166  -0.53363  -0.53199  -0.52994
 Alpha  occ. eigenvalues --   -0.52772  -0.50596  -0.48782  -0.48774  -0.48566
 Alpha  occ. eigenvalues --   -0.47277  -0.46371  -0.46259  -0.44782  -0.44421
 Alpha  occ. eigenvalues --   -0.37294  -0.36334
 Alpha virt. eigenvalues --    0.05063   0.11224   0.16524   0.20612   0.22445
 Alpha virt. eigenvalues --    0.23898   0.25974   0.26011   0.27028   0.27696
 Alpha virt. eigenvalues --    0.29270   0.30171   0.30986   0.31568   0.31619

 Mulliken charges:
               1
     1  C   -0.299952
     2  C   -0.298454
     3  C   -0.486296
     4  H    0.149672
     5  H    0.151217
     6  H    0.155373
     7  H    0.153445
     8  H    0.152698
     9  H    0.156094
    10  H    0.160910
    11  C   -0.298769
    12  C   -0.300357
    13  C   -0.476095
    14  H    0.150426
    15  H    0.150457
    16  H    0.152452
    17  H    0.153409
    18  H    0.155665
    19  H    0.155454
    20  H    0.162073
    21  C   -0.174135
    22  C   -0.219299
    23  C   -0.171139
    24  C    0.158423
    25  C   -0.171583
    26  C   -0.219709
    27  H    0.229469
    28  H    0.223344
    29  H    0.275446
    30  H    0.275613
    31  H    0.227000
    32  N    0.488090
    33  O   -0.460420
    34  O   -0.460522
 Sum of Mulliken charges =  -0.00000

 Dipole moment (field-independent basis, Debye):
    X=              3.5396    Y=              3.8964    Z=              0.5528  Tot=              5.2931
 Quadrupole moment (field-independent basis, Debye-Ang):
   XX=           -117.4773   YY=            -97.2749   ZZ=            -90.3845
   XY=            -14.3029   XZ=             -4.6381   YZ=              1.2061

 Normal termination of Gaussian 16 at Wed May  5 23:26:24 2021.
