 Gaussian 16, Revision A.03,
 Gaussian 16:  EM64L-G16RevA.03 25-Dec-2016

 -------------
 #p 6-31g* mp2
 -------------

 ------------------------------------------------------
 Input file generated by CHIRIPA (05-May-2021 14:57:22)
 ------------------------------------------------------
 Symbolic Z-matrix:
 Charge =  0 Multiplicity = 1

                         Standard orientation:
 ---------------------------------------------------------------------
 Center     Atomic      Atomic             Coordinates (Angstroms)
 Number     Number       Type             X           Y           Z
 ---------------------------------------------------------------------
      1          6           0       -1.305579   -0.551610    0.049071
      2          6           0       -1.815982    0.749187   -0.013682
      3          6           0       -3.195321    0.968431   -0.076159
      4          6           0       -4.039197   -0.141145   -0.073968
      5          6           0       -3.561215   -1.449204   -0.012281
      6          6           0       -2.178286   -1.644726    0.049570
      7          1           0       -0.232681   -0.712710    0.097361
      8          1           0       -1.140597    1.600009   -0.014226
      9          1           0       -3.617411    1.964837   -0.125476
     10          1           0       -4.259445   -2.277390   -0.013389
     11          1           0       -1.784725   -2.656056    0.098227
     12          7           0       -5.501342    0.078402   -0.139779
     13          8           0       -6.223715   -0.915984   -0.136455
     14          8           0       -5.897313    1.240712   -0.193439
     15          6           0        5.073632   -1.979709   -0.230865
     16          6           0        3.884862   -1.964260    0.506093
     17          6           0        3.169900   -0.774854    0.675481
     18          6           0        3.674916    0.385864    0.091543
     19          6           0        4.856289    0.402695   -0.648297
     20          6           0        5.554704   -0.798265   -0.804697
     21          1           0        5.622604   -2.908156   -0.357405
     22          1           0        3.508877   -2.880269    0.952868
     23          1           0        2.246922   -0.734461    1.241076
     24          1           0        5.206032    1.331785   -1.081758
     25          1           0        6.477639   -0.807284   -1.377545
     26          7           0        2.926777    1.651150    0.263992
     27          8           0        3.392852    2.660264   -0.260508
     28          8           0        1.888477    1.609810    0.920393
 ---------------------------------------------------------------------

 SCF Done:  E(RHF) =  -868.339381924     A.U. after   16 cycles
 E2 =    -0.2599659646D+01 EUMP2 =    -0.87093904156944D+03

 The electronic state is 1-A.
 Alpha  occ. eigenvalues --  -20.62059 -20.61983 -20.60347 -20.60334 -15.87042
 Alpha  occ. eigenvalues --  -15.85389 -11.32257 -11.30666 -11.28857 -11.28729
 Alpha  occ. eigenvalues --  -11.28443 -11.27786 -11.27708 -11.27260 -11.27116
 Alpha  occ. eigenvalues --  -11.26914 -11.26316 -11.25987  -1.61075  -1.59420
 Alpha  occ. eigenvalues --   -1.40638  -1.38976  -1.20393  -1.18809  -1.09805
 Alpha  occ. eigenvalues --   -1.08220  -1.05774  -1.04180  -0.96674  -0.95079
 Alpha  occ. eigenvalues --   -0.87175  -0.85574  -0.83511  -0.81906  -0.78597
 Alpha  occ. eigenvalues --   -0.76962  -0.73265  -0.72385  -0.71609  -0.71491
 Alpha  occ. eigenvalues --   -0.70741  -0.69930  -0.66044  -0.65760  -0.64451
 Alpha  occ. eigenvalues --   -0.64142  -0.63130  -0.61508  -0.56248  -0.54736
 Alpha  occ. eigenvalues --   -0.54090  -0.53829  -0.52539  -0.52243  -0.50035
 Alpha  occ. eigenvalues --   -0.49995  -0.48372  -0.48357  -0.46064  -0.44401
 Alpha  occ. eigenvalues --   -0.38336  -0.37367  -0.36798  -0.35781
 Alpha virt. eigenvalues --    0.03868   0.05532   0.10185   0.11870   0.15432
 Alpha virt. eigenvalues --    0.17029   0.19793   0.22069   0.25571   0.26920
 Alpha virt. eigenvalues --    0.28087   0.28814   0.30573   0.31003   0.32805

 Mulliken charges:
               1
     1  C   -0.173927
     2  C   -0.222566
     3  C   -0.172444
     4  C    0.158634
     5  C   -0.172376
     6  C   -0.219304
     7  H    0.222903
     8  H    0.243611
     9  H    0.275958
    10  H    0.272813
    11  H    0.216898
    12  N    0.488013
    13  O   -0.462787
    14  O   -0.460332
    15  C   -0.169838
    16  C   -0.218052
    17  C   -0.177616
    18  C    0.159028
    19  C   -0.169896
    20  C   -0.217506
    21  H    0.229306
    22  H    0.224991
    23  H    0.272624
    24  H    0.278284
    25  H    0.227421
    26  N    0.489426
    27  O   -0.452803
    28  O   -0.470462
 Sum of Mulliken charges =  -0.00000

 Dipole moment (field-independent basis, Debye):
    X=              8.3340    Y=             -5.0306    Z=             -0.4529  Tot=              9.7451
 Quadrupole moment (field-independent basis, Debye-Ang):
   XX=           -124.3593   YY=           -102.1863   ZZ=           -105.0106
   XY=            -10.9332   XZ=             -5.9194   YZ=             -2.3253

 Normal termination of Gaussian 16 at Wed May  5 22:36:59 2021.
