 Gaussian 16, Revision A.03,
 Gaussian 16:  EM64L-G16RevA.03 25-Dec-2016

 -------------
 #p 6-31g* mp2
 -------------

 ------------------------------------------------------
 Input file generated by CHIRIPA (05-May-2021 14:55:25)
 ------------------------------------------------------
 Symbolic Z-matrix:
 Charge =  0 Multiplicity = 1

                         Standard orientation:
 ---------------------------------------------------------------------
 Center     Atomic      Atomic             Coordinates (Angstroms)
 Number     Number       Type             X           Y           Z
 ---------------------------------------------------------------------
      1          6           0       -2.551700    2.522919    0.137570
      2          6           0       -1.736604    1.386197    0.139024
      3          6           0       -2.298749    0.109310    0.049020
      4          6           0       -3.685943    0.005436   -0.041489
      5          6           0       -4.524667    1.118907   -0.045413
      6          6           0       -3.940681    2.385887    0.045518
      7          1           0       -2.106529    3.510987    0.207847
      8          1           0       -0.657595    1.489597    0.210402
      9          1           0       -1.691220   -0.787532    0.047962
     10          1           0       -5.597043    0.984009   -0.117739
     11          1           0       -4.576158    3.266917    0.044160
     12          7           0       -4.292622   -1.341103   -0.137263
     13          8           0       -5.517472   -1.405749   -0.216010
     14          8           0       -3.531800   -2.306378   -0.131770
     15          6           0        5.300602   -0.238082    0.308050
     16          6           0        6.272750    0.449106   -0.651475
     17          6           0        7.690265    0.547488   -0.086879
     18          1           0        5.281066    0.313860    1.257746
     19          1           0        5.674855   -1.244973    0.539351
     20          1           0        5.896062    1.453888   -0.881985
     21          1           0        6.289830   -0.104426   -1.599064
     22          1           0        8.090033   -0.449162    0.126364
     23          1           0        7.694029    1.118007    0.847518
     24          1           0        8.368657    1.042032   -0.789068
     25          6           0        3.879444   -0.343965   -0.242247
     26          6           0        2.907295   -1.031153    0.717277
     27          6           0        1.489781   -1.129536    0.152681
     28          1           0        3.505190    0.662926   -0.473548
     29          1           0        3.898980   -0.895907   -1.191943
     30          1           0        2.890216   -0.477620    1.664867
     31          1           0        3.283983   -2.035935    0.947788
     32          1           0        1.486018   -1.700053   -0.781715
     33          1           0        1.090013   -0.132884   -0.060561
     34          1           0        0.811388   -1.624079    0.854871
 ---------------------------------------------------------------------

 SCF Done:  E(RHF) =  -669.535307866     A.U. after   15 cycles
 E2 =    -0.2091415762D+01 EUMP2 =    -0.67162672362812D+03

 The electronic state is 1-A.
 Alpha  occ. eigenvalues --  -20.60694 -20.60689 -15.85746 -11.31088 -11.27675
 Alpha  occ. eigenvalues --  -11.27617 -11.27420 -11.26690 -11.26650 -11.22239
 Alpha  occ. eigenvalues --  -11.21969 -11.21963 -11.21931 -11.21795 -11.21371
 Alpha  occ. eigenvalues --   -1.59770  -1.39324  -1.19267  -1.08939  -1.08671
 Alpha  occ. eigenvalues --   -1.04671  -1.04063  -0.96539  -0.95504  -0.87567
 Alpha  occ. eigenvalues --   -0.86071  -0.82342  -0.80139  -0.78729  -0.77380
 Alpha  occ. eigenvalues --   -0.71966  -0.71092  -0.70382  -0.65581  -0.64921
 Alpha  occ. eigenvalues --   -0.64693  -0.62110  -0.61398  -0.59896  -0.58122
 Alpha  occ. eigenvalues --   -0.55844  -0.55175  -0.53252  -0.53031  -0.52971
 Alpha  occ. eigenvalues --   -0.52687  -0.50464  -0.48725  -0.48720  -0.48439
 Alpha  occ. eigenvalues --   -0.47149  -0.46275  -0.46186  -0.44734  -0.44306
 Alpha  occ. eigenvalues --   -0.37259  -0.36268
 Alpha virt. eigenvalues --    0.05144   0.11376   0.16626   0.20089   0.22544
 Alpha virt. eigenvalues --    0.23813   0.25522   0.25958   0.26761   0.27643
 Alpha virt. eigenvalues --    0.28872   0.29413   0.31246   0.31538   0.32225

 Mulliken charges:
               1
     1  C   -0.170906
     2  C   -0.224188
     3  C   -0.176484
     4  C    0.158696
     5  C   -0.170525
     6  C   -0.218964
     7  H    0.225269
     8  H    0.227372
     9  H    0.283336
    10  H    0.275231
    11  H    0.222982
    12  N    0.487974
    13  O   -0.460874
    14  O   -0.460477
    15  C   -0.298779
    16  C   -0.299883
    17  C   -0.475979
    18  H    0.149611
    19  H    0.151602
    20  H    0.151008
    21  H    0.153115
    22  H    0.156312
    23  H    0.155212
    24  H    0.161177
    25  C   -0.298449
    26  C   -0.300368
    27  C   -0.484470
    28  H    0.146005
    29  H    0.152212
    30  H    0.152099
    31  H    0.157268
    32  H    0.163581
    33  H    0.145461
    34  H    0.164824
 Sum of Mulliken charges =  -0.00000

 Dipole moment (field-independent basis, Debye):
    X=              2.3487    Y=              4.6364    Z=              0.3385  Tot=              5.2084
 Quadrupole moment (field-independent basis, Debye-Ang):
   XX=           -107.0107   YY=            -93.4257   ZZ=            -95.5767
   XY=            -20.3921   XZ=             -1.5155   YZ=              0.0656

 Normal termination of Gaussian 16 at Thu May  6 11:06:02 2021.
