 Gaussian 16, Revision A.03,
 Gaussian 16:  EM64L-G16RevA.03 25-Dec-2016

 -------------
 #p 6-31g* mp2
 -------------

 ------------------------------------------------------
 Input file generated by CHIRIPA (05-May-2021 14:55:18)
 ------------------------------------------------------
 Symbolic Z-matrix:
 Charge =  0 Multiplicity = 1

                         Standard orientation:
 ---------------------------------------------------------------------
 Center     Atomic      Atomic             Coordinates (Angstroms)
 Number     Number       Type             X           Y           Z
 ---------------------------------------------------------------------
      1          6           0       -0.725895   -1.721605    0.281998
      2          6           0       -0.989896   -0.670437    1.166233
      3          6           0       -2.189838    0.042241    1.083904
      4          6           0       -3.107526   -0.324717    0.100806
      5          6           0       -2.873561   -1.367149   -0.794675
      6          6           0       -1.666911   -2.065998   -0.693913
      7          1           0        0.208854   -2.269859    0.353112
      8          1           0       -0.260929   -0.400773    1.925135
      9          1           0       -2.419866    0.860319    1.755658
     10          1           0       -3.619597   -1.612740   -1.540687
     11          1           0       -1.464573   -2.881898   -1.381963
     12          7           0       -4.381401    0.422444    0.003892
     13          8           0       -5.173536    0.079546   -0.871082
     14          8           0       -4.563608    1.336819    0.804739
     15          6           0        4.060264   -0.076589    0.044614
     16          6           0        5.579619   -0.015827   -0.116177
     17          6           0        6.268339   -1.323358    0.276023
     18          1           0        3.817833   -0.321839    1.087699
     19          1           0        3.666128   -0.898212   -0.569377
     20          1           0        5.970624    0.806316    0.496859
     21          1           0        5.818458    0.229495   -1.158957
     22          1           0        5.906215   -2.150351   -0.343291
     23          1           0        6.059244   -1.570252    1.321932
     24          1           0        7.353938   -1.257775    0.153414
     25          6           0        3.357529    1.223105   -0.343569
     26          6           0        1.838174    1.162344   -0.182777
     27          6           0        1.149455    2.469875   -0.574978
     28          1           0        3.751667    2.044729    0.270423
     29          1           0        3.599961    1.468355   -1.386653
     30          1           0        1.599335    0.917022    0.860003
     31          1           0        1.447170    0.340201   -0.795812
     32          1           0        1.358549    2.716769   -1.620886
     33          1           0        1.511580    3.296867    0.044337
     34          1           0        0.063856    2.404292   -0.452369
 ---------------------------------------------------------------------

 SCF Done:  E(RHF) =  -669.534897275     A.U. after   15 cycles
 E2 =    -0.2092904007D+01 EUMP2 =    -0.67162780128197D+03

 The electronic state is 1-A.
 Alpha  occ. eigenvalues --  -20.60771 -20.60765 -15.85825 -11.31200 -11.27758
 Alpha  occ. eigenvalues --  -11.27753 -11.27483 -11.26787 -11.26762 -11.22207
 Alpha  occ. eigenvalues --  -11.22188 -11.22102 -11.21943 -11.21631 -11.21457
 Alpha  occ. eigenvalues --   -1.59846  -1.39399  -1.19372  -1.09059  -1.08757
 Alpha  occ. eigenvalues --   -1.04782  -1.04085  -0.96524  -0.95595  -0.87539
 Alpha  occ. eigenvalues --   -0.86175  -0.82428  -0.80176  -0.78903  -0.77470
 Alpha  occ. eigenvalues --   -0.72042  -0.71170  -0.70466  -0.65698  -0.65020
 Alpha  occ. eigenvalues --   -0.64781  -0.62153  -0.61468  -0.59902  -0.58162
 Alpha  occ. eigenvalues --   -0.55814  -0.55263  -0.53286  -0.53025  -0.52922
 Alpha  occ. eigenvalues --   -0.52862  -0.50465  -0.48812  -0.48797  -0.48466
 Alpha  occ. eigenvalues --   -0.47205  -0.46423  -0.46352  -0.44804  -0.44356
 Alpha  occ. eigenvalues --   -0.37290  -0.36345
 Alpha virt. eigenvalues --    0.05027   0.11241   0.16436   0.20298   0.22618
 Alpha virt. eigenvalues --    0.23839   0.25115   0.26034   0.27128   0.28021
 Alpha virt. eigenvalues --    0.29280   0.29972   0.31185   0.31416   0.31739

 Mulliken charges:
               1
     1  C   -0.170805
     2  C   -0.212140
     3  C   -0.174129
     4  C    0.158571
     5  C   -0.170965
     6  C   -0.219558
     7  H    0.226764
     8  H    0.224599
     9  H    0.275661
    10  H    0.275573
    11  H    0.223402
    12  N    0.488085
    13  O   -0.460377
    14  O   -0.460404
    15  C   -0.297886
    16  C   -0.299769
    17  C   -0.476006
    18  H    0.145430
    19  H    0.145366
    20  H    0.153871
    21  H    0.153881
    22  H    0.154126
    23  H    0.154562
    24  H    0.162643
    25  C   -0.298502
    26  C   -0.299022
    27  C   -0.477791
    28  H    0.151212
    29  H    0.152073
    30  H    0.141184
    31  H    0.153151
    32  H    0.157641
    33  H    0.155802
    34  H    0.163755
 Sum of Mulliken charges =  -0.00000

 Dipole moment (field-independent basis, Debye):
    X=              4.5422    Y=             -2.5954    Z=              0.2899  Tot=              5.2394
 Quadrupole moment (field-independent basis, Debye-Ang):
   XX=           -123.1364   YY=            -92.4236   ZZ=            -91.2013
   XY=              8.4040   XZ=              0.4202   YZ=              2.6587

 Normal termination of Gaussian 16 at Wed May  5 23:41:53 2021.
