 Gaussian 16, Revision A.03,
 Gaussian 16:  EM64L-G16RevA.03 25-Dec-2016

 -------------
 #p 6-31g* mp2
 -------------

 ------------------------------------------------------
 Input file generated by CHIRIPA (05-May-2021 14:53:12)
 ------------------------------------------------------
 Symbolic Z-matrix:
 Charge =  0 Multiplicity = 1

                         Standard orientation:
 ---------------------------------------------------------------------
 Center     Atomic      Atomic             Coordinates (Angstroms)
 Number     Number       Type             X           Y           Z
 ---------------------------------------------------------------------
      1          6           0       -4.829842    0.488698   -0.371759
      2          6           0       -6.132047    0.463947    0.429261
      3          6           0       -7.172275    1.450106   -0.102915
      4          1           0       -4.415377    1.505980   -0.354359
      5          1           0       -5.050016    0.258834   -1.423463
      6          1           0       -5.909295    0.692429    1.479400
      7          1           0       -6.543361   -0.553437    0.410112
      8          1           0       -7.423429    1.220881   -1.143578
      9          1           0       -6.785760    2.473826   -0.068214
     10          1           0       -8.095248    1.415860    0.484290
     11          6           0       -3.780054   -0.491796    0.148148
     12          6           0       -2.477848   -0.467045   -0.652872
     13          6           0       -1.437620   -1.453204   -0.120696
     14          1           0       -3.559879   -0.261932    1.199852
     15          1           0       -4.194519   -1.509077    0.130748
     16          1           0       -2.066534    0.550339   -0.633723
     17          1           0       -2.700600   -0.695527   -1.703011
     18          1           0       -1.824135   -2.476924   -0.155397
     19          1           0       -1.186466   -1.223979    0.919967
     20          1           0       -0.514648   -1.418958   -0.707901
     21          6           0        4.828371    2.031328   -0.225601
     22          6           0        4.660692    1.120744   -1.274048
     23          6           0        3.851251   -0.007556   -1.111897
     24          6           0        3.221597   -0.195055    0.117603
     25          6           0        3.368908    0.694029    1.181144
     26          6           0        4.183082    1.815445    0.996494
     27          1           0        5.459003    2.905144   -0.360303
     28          1           0        5.160605    1.285849   -2.224244
     29          1           0        3.704011   -0.728519   -1.906850
     30          1           0        2.857644    0.502553    2.116754
     31          1           0        4.311477    2.520938    1.812485
     32          7           0        2.362173   -1.385891    0.301174
     33          8           0        1.818360   -1.528374    1.394153
     34          8           0        2.248643   -2.154236   -0.651397
 ---------------------------------------------------------------------

 SCF Done:  E(RHF) =  -669.535885654     A.U. after   15 cycles
 E2 =    -0.2091724544D+01 EUMP2 =    -0.67162761019770D+03

 The electronic state is 1-A.
 Alpha  occ. eigenvalues --  -20.60930 -20.60914 -15.85924 -11.31277 -11.27841
 Alpha  occ. eigenvalues --  -11.27838 -11.27581 -11.26851 -11.26841 -11.21168
 Alpha  occ. eigenvalues --  -11.20846 -11.20737 -11.20677 -11.20617 -11.19553
 Alpha  occ. eigenvalues --   -1.59967  -1.39525  -1.19445  -1.08845  -1.07766
 Alpha  occ. eigenvalues --   -1.04844  -1.02775  -0.95689  -0.95182  -0.86244
 Alpha  occ. eigenvalues --   -0.86188  -0.82521  -0.78861  -0.77573  -0.77557
 Alpha  occ. eigenvalues --   -0.72158  -0.71293  -0.70555  -0.65101  -0.64847
 Alpha  occ. eigenvalues --   -0.64409  -0.62192  -0.60181  -0.58613  -0.56801
 Alpha  occ. eigenvalues --   -0.55349  -0.54480  -0.53182  -0.52936  -0.51842
 Alpha  occ. eigenvalues --   -0.51609  -0.49177  -0.48918  -0.48850  -0.47169
 Alpha  occ. eigenvalues --   -0.45943  -0.45142  -0.45061  -0.44765  -0.42993
 Alpha  occ. eigenvalues --   -0.37421  -0.36446
 Alpha virt. eigenvalues --    0.04918   0.11209   0.16393   0.21340   0.23470
 Alpha virt. eigenvalues --    0.25115   0.27255   0.27274   0.28107   0.28166
 Alpha virt. eigenvalues --    0.28943   0.30899   0.32131   0.32351   0.32445

 Mulliken charges:
               1
     1  C   -0.297261
     2  C   -0.299092
     3  C   -0.475240
     4  H    0.147126
     5  H    0.148367
     6  H    0.151194
     7  H    0.151974
     8  H    0.154590
     9  H    0.153807
    10  H    0.159005
    11  C   -0.297275
    12  C   -0.300792
    13  C   -0.477833
    14  H    0.148624
    15  H    0.149644
    16  H    0.145039
    17  H    0.148348
    18  H    0.154297
    19  H    0.162468
    20  H    0.167148
    21  C   -0.170610
    22  C   -0.218541
    23  C   -0.170961
    24  C    0.159226
    25  C   -0.170832
    26  C   -0.218585
    27  H    0.225939
    28  H    0.223800
    29  H    0.275811
    30  H    0.275638
    31  H    0.223729
    32  N    0.487476
    33  O   -0.457046
    34  O   -0.459181
 Sum of Mulliken charges =  -0.00000

 Dipole moment (field-independent basis, Debye):
    X=              3.3155    Y=              4.0977    Z=             -0.5789  Tot=              5.3027
 Quadrupole moment (field-independent basis, Debye-Ang):
   XX=            -77.1906   YY=            -96.4355   ZZ=            -90.3120
   XY=             13.9786   XZ=             -2.9792   YZ=              2.7939

 Normal termination of Gaussian 16 at Wed May  5 20:09:17 2021.
