 Gaussian 16, Revision A.03,
 Gaussian 16:  EM64L-G16RevA.03 25-Dec-2016

 -------------
 #p 6-31g* mp2
 -------------

 ------------------------------------------------------
 Input file generated by CHIRIPA (05-May-2021 14:53:13)
 ------------------------------------------------------
 Symbolic Z-matrix:
 Charge =  0 Multiplicity = 1

                         Standard orientation:
 ---------------------------------------------------------------------
 Center     Atomic      Atomic             Coordinates (Angstroms)
 Number     Number       Type             X           Y           Z
 ---------------------------------------------------------------------
      1          6           0        2.935880   -1.027791    0.341048
      2          6           0        1.695811   -1.313968    1.188583
      3          6           0        1.320685   -2.796121    1.205762
      4          1           0        2.758108   -1.374424   -0.686176
      5          1           0        3.779536   -1.616038    0.727836
      6          1           0        0.855086   -0.724303    0.801164
      7          1           0        1.876484   -0.966439    2.213862
      8          1           0        2.141001   -3.396435    1.612340
      9          1           0        1.113800   -3.152922    0.191616
     10          1           0        0.431534   -2.978142    1.817430
     11          6           0        3.323464    0.449632    0.314050
     12          6           0        4.563534    0.735808   -0.533484
     13          6           0        4.938659    2.217962   -0.550663
     14          1           0        2.479808    1.037879   -0.072738
     15          1           0        3.501236    0.796264    1.341274
     16          1           0        4.382860    0.388280   -1.558764
     17          1           0        5.404258    0.146144   -0.146066
     18          1           0        5.145544    2.574763    0.463483
     19          1           0        4.118343    2.818276   -0.957242
     20          1           0        5.827810    2.399983   -1.162332
     21          6           0       -3.201323    2.423677    0.725688
     22          6           0       -1.943719    2.322548    0.121763
     23          6           0       -1.514300    1.109801   -0.425405
     24          6           0       -2.371943    0.013365   -0.350794
     25          6           0       -3.630638    0.082450    0.244356
     26          6           0       -4.039292    1.305278    0.784953
     27          1           0       -3.526842    3.369683    1.148189
     28          1           0       -1.290837    3.189460    0.074298
     29          1           0       -0.545745    1.003563   -0.898727
     30          1           0       -4.259288   -0.799130    0.276504
     31          1           0       -5.016492    1.380887    1.253362
     32          7           0       -1.928328   -1.275852   -0.926577
     33          8           0       -2.702635   -2.227123   -0.848039
     34          8           0       -0.814716   -1.310656   -1.445512
 ---------------------------------------------------------------------

 SCF Done:  E(RHF) =  -669.536158959     A.U. after   15 cycles
 E2 =    -0.2093028422D+01 EUMP2 =    -0.67162918738094D+03

 The electronic state is 1-A.
 Alpha  occ. eigenvalues --  -20.60985 -20.60976 -15.85995 -11.31308 -11.27866
 Alpha  occ. eigenvalues --  -11.27857 -11.27591 -11.26868 -11.26857 -11.21426
 Alpha  occ. eigenvalues --  -11.21192 -11.21047 -11.20874 -11.20770 -11.20050
 Alpha  occ. eigenvalues --   -1.60029  -1.39589  -1.19470  -1.08875  -1.08012
 Alpha  occ. eigenvalues --   -1.04864  -1.03047  -0.95724  -0.95505  -0.86519
 Alpha  occ. eigenvalues --   -0.86265  -0.82557  -0.79169  -0.77835  -0.77586
 Alpha  occ. eigenvalues --   -0.72230  -0.71351  -0.70579  -0.65136  -0.64885
 Alpha  occ. eigenvalues --   -0.64603  -0.62214  -0.60409  -0.58926  -0.57124
 Alpha  occ. eigenvalues --   -0.55367  -0.54782  -0.53193  -0.52957  -0.52199
 Alpha  occ. eigenvalues --   -0.51933  -0.49485  -0.48978  -0.48947  -0.47486
 Alpha  occ. eigenvalues --   -0.46211  -0.45490  -0.45234  -0.44764  -0.43323
 Alpha  occ. eigenvalues --   -0.37438  -0.36450
 Alpha virt. eigenvalues --    0.04880   0.11079   0.16367   0.20396   0.22988
 Alpha virt. eigenvalues --    0.24751   0.25466   0.27476   0.27829   0.28232
 Alpha virt. eigenvalues --    0.29341   0.31120   0.31734   0.32076   0.32481

 Mulliken charges:
               1
     1  C   -0.299752
     2  C   -0.298286
     3  C   -0.479629
     4  H    0.159589
     5  H    0.147652
     6  H    0.150439
     7  H    0.144430
     8  H    0.149378
     9  H    0.174176
    10  H    0.156115
    11  C   -0.296052
    12  C   -0.299793
    13  C   -0.474889
    14  H    0.139521
    15  H    0.147607
    16  H    0.154328
    17  H    0.152900
    18  H    0.154109
    19  H    0.150991
    20  H    0.160561
    21  C   -0.170507
    22  C   -0.219000
    23  C   -0.172808
    24  C    0.159484
    25  C   -0.170677
    26  C   -0.218365
    27  H    0.226176
    28  H    0.224309
    29  H    0.277416
    30  H    0.275854
    31  H    0.223939
    32  N    0.488908
    33  O   -0.458057
    34  O   -0.460066
 Sum of Mulliken charges =  -0.00000

 Dipole moment (field-independent basis, Debye):
    X=             -1.7394    Y=              4.4182    Z=              1.8762  Tot=              5.1055
 Quadrupole moment (field-independent basis, Debye-Ang):
   XX=            -83.5418   YY=            -95.1521   ZZ=            -96.2272
   XY=             -9.6413   XZ=             -5.5548   YZ=             -1.8247

 Normal termination of Gaussian 16 at Thu May  6 04:10:19 2021.
