 Gaussian 16, Revision A.03,
 Gaussian 16:  EM64L-G16RevA.03 25-Dec-2016

 -------------
 #p 6-31g* mp2
 -------------

 ------------------------------------------------------
 Input file generated by CHIRIPA (05-May-2021 14:57:26)
 ------------------------------------------------------
 Symbolic Z-matrix:
 Charge =  0 Multiplicity = 1

                         Standard orientation:
 ---------------------------------------------------------------------
 Center     Atomic      Atomic             Coordinates (Angstroms)
 Number     Number       Type             X           Y           Z
 ---------------------------------------------------------------------
      1          6           0       -4.232133    2.308004   -0.344613
      2          6           0       -5.000863    1.198352   -0.711012
      3          6           0       -4.546766   -0.097702   -0.449115
      4          6           0       -3.313726   -0.248137    0.183555
      5          6           0       -2.524788    0.837465    0.560826
      6          6           0       -2.998724    2.124343    0.289019
      7          1           0       -4.592592    3.311245   -0.551910
      8          1           0       -5.959130    1.337975   -1.203226
      9          1           0       -5.121566   -0.974379   -0.721987
     10          1           0       -1.573597    0.666559    1.050158
     11          1           0       -2.399588    2.984266    0.574700
     12          7           0       -2.822493   -1.615354    0.466059
     13          8           0       -1.732758   -1.721105    1.024566
     14          8           0       -3.536502   -2.555338    0.123630
     15          6           0        2.761428   -2.390545   -0.512033
     16          6           0        4.076082   -2.056795   -0.170248
     17          6           0        4.438247   -0.722922    0.039910
     18          6           0        3.455909    0.256117   -0.100738
     19          6           0        2.137749   -0.044653   -0.440270
     20          6           0        1.798155   -1.385182   -0.645717
     21          1           0        2.488857   -3.429315   -0.673459
     22          1           0        4.826264   -2.835481   -0.065738
     23          1           0        5.448653   -0.436526    0.305387
     24          1           0        1.411964    0.753632   -0.537185
     25          1           0        0.776407   -1.641441   -0.911060
     26          7           0        3.827369    1.671752    0.119253
     27          8           0        2.943326    2.515667   -0.010791
     28          8           0        4.995529    1.910605    0.417562
 ---------------------------------------------------------------------

 SCF Done:  E(RHF) =  -868.339851924     A.U. after   16 cycles
 E2 =    -0.2598765767D+01 EUMP2 =    -0.87093861769094D+03

 The electronic state is 1-A.
 Alpha  occ. eigenvalues --  -20.61517 -20.61479 -20.60624 -20.60600 -15.86522
 Alpha  occ. eigenvalues --  -15.85658 -11.31659 -11.30810 -11.28182 -11.28178
 Alpha  occ. eigenvalues --  -11.27842 -11.27332 -11.27325 -11.27141 -11.27095
 Alpha  occ. eigenvalues --  -11.26932 -11.26308 -11.26164  -1.60573  -1.59691
 Alpha  occ. eigenvalues --   -1.40130  -1.39253  -1.19796  -1.18926  -1.09228
 Alpha  occ. eigenvalues --   -1.08345  -1.05153  -1.04289  -0.96103  -0.95232
 Alpha  occ. eigenvalues --   -0.86560  -0.85687  -0.82935  -0.82071  -0.78022
 Alpha  occ. eigenvalues --   -0.77162  -0.72739  -0.71894  -0.71882  -0.71008
 Alpha  occ. eigenvalues --   -0.70885  -0.70020  -0.65440  -0.65132  -0.64569
 Alpha  occ. eigenvalues --   -0.64256  -0.62500  -0.61644  -0.55642  -0.54756
 Alpha  occ. eigenvalues --   -0.53506  -0.53226  -0.52627  -0.52362  -0.49518
 Alpha  occ. eigenvalues --   -0.49481  -0.48655  -0.48612  -0.45572  -0.44708
 Alpha  occ. eigenvalues --   -0.37755  -0.36862  -0.36751  -0.35875
 Alpha virt. eigenvalues --    0.04447   0.05346   0.10882   0.11777   0.15996
 Alpha virt. eigenvalues --    0.16923   0.20731   0.22070   0.26086   0.27503
 Alpha virt. eigenvalues --    0.28423   0.29164   0.30856   0.31579   0.32084

 Mulliken charges:
               1
     1  C   -0.170133
     2  C   -0.218242
     3  C   -0.171217
     4  C    0.157302
     5  C   -0.176404
     6  C   -0.218365
     7  H    0.228743
     8  H    0.225128
     9  H    0.275731
    10  H    0.275684
    11  H    0.230472
    12  N    0.487024
    13  O   -0.465462
    14  O   -0.457838
    15  C   -0.170947
    16  C   -0.218245
    17  C   -0.172479
    18  C    0.158890
    19  C   -0.174542
    20  C   -0.212465
    21  H    0.229041
    22  H    0.222502
    23  H    0.273640
    24  H    0.267101
    25  H    0.233328
    26  N    0.488518
    27  O   -0.466236
    28  O   -0.460527
 Sum of Mulliken charges =  -0.00000

 Dipole moment (field-independent basis, Debye):
    X=             -3.3248    Y=             -0.2415    Z=             -1.7877  Tot=              3.7826
 Quadrupole moment (field-independent basis, Debye-Ang):
   XX=            -94.5553   YY=           -109.2232   ZZ=           -105.5525
   XY=            -33.9403   XZ=              3.6158   YZ=              2.1367

 Normal termination of Gaussian 16 at Thu May  6 14:47:07 2021.
