 Gaussian 16, Revision A.03,
 Gaussian 16:  EM64L-G16RevA.03 25-Dec-2016

 -------------
 #p 6-31g* mp2
 -------------

 ------------------------------------------------------
 Input file generated by CHIRIPA (05-May-2021 14:53:15)
 ------------------------------------------------------
 Symbolic Z-matrix:
 Charge =  0 Multiplicity = 1

                         Standard orientation:
 ---------------------------------------------------------------------
 Center     Atomic      Atomic             Coordinates (Angstroms)
 Number     Number       Type             X           Y           Z
 ---------------------------------------------------------------------
      1          6           0       -4.258298    0.154398   -0.377306
      2          6           0       -5.517111    0.296364    0.478978
      3          6           0       -6.606875    1.122850   -0.204490
      4          1           0       -3.868515    1.154022   -0.613453
      5          1           0       -4.525949   -0.311218   -1.335930
      6          1           0       -5.246932    0.760309    1.436251
      7          1           0       -5.903834   -0.703720    0.713273
      8          1           0       -6.904910    0.659986   -1.150816
      9          1           0       -6.244276    2.132334   -0.423730
     10          1           0       -7.497693    1.211632    0.425129
     11          6           0       -3.159751   -0.669245    0.292422
     12          6           0       -1.900939   -0.811210   -0.563862
     13          6           0       -0.811175   -1.637697    0.119606
     14          1           0       -2.892100   -0.203629    1.251046
     15          1           0       -3.549535   -1.668869    0.528568
     16          1           0       -1.514216    0.188873   -0.798158
     17          1           0       -2.171118   -1.275156   -1.521136
     18          1           0       -1.173774   -2.647180    0.338845
     19          1           0       -0.513140   -1.174832    1.065932
     20          1           0        0.079643   -1.726479   -0.510014
     21          6           0        2.797472   -2.319895    0.012974
     22          6           0        3.001501   -1.617882   -1.179532
     23          6           0        3.058769   -0.221004   -1.180221
     24          6           0        2.907363    0.444834    0.035109
     25          6           0        2.702818   -0.226230    1.239736
     26          6           0        2.649043   -1.623057    1.216680
     27          1           0        2.754342   -3.405003    0.004287
     28          1           0        3.117098   -2.156426   -2.115829
     29          1           0        3.215605    0.347502   -2.088857
     30          1           0        2.591019    0.338332    2.157444
     31          1           0        2.490475   -2.165626    2.144323
     32          7           0        2.966141    1.923619    0.046949
     33          8           0        2.829854    2.486823    1.130860
     34          8           0        3.147386    2.491485   -1.027907
 ---------------------------------------------------------------------

 SCF Done:  E(RHF) =  -669.534066841     A.U. after   15 cycles
 E2 =    -0.2093444271D+01 EUMP2 =    -0.67162751111196D+03

 The electronic state is 1-A.
 Alpha  occ. eigenvalues --  -20.60817 -20.60812 -15.85871 -11.31254 -11.27833
 Alpha  occ. eigenvalues --  -11.27801 -11.27512 -11.26824 -11.26776 -11.21618
 Alpha  occ. eigenvalues --  -11.21573 -11.21409 -11.21331 -11.21064 -11.21021
 Alpha  occ. eigenvalues --   -1.59893  -1.39445  -1.19427  -1.08820  -1.08426
 Alpha  occ. eigenvalues --   -1.04826  -1.03533  -0.95993  -0.95643  -0.87017
 Alpha  occ. eigenvalues --   -0.86218  -0.82475  -0.79611  -0.78245  -0.77523
 Alpha  occ. eigenvalues --   -0.72088  -0.71216  -0.70521  -0.65072  -0.65058
 Alpha  occ. eigenvalues --   -0.64821  -0.62168  -0.60943  -0.59434  -0.57631
 Alpha  occ. eigenvalues --   -0.55342  -0.55302  -0.53679  -0.52910  -0.52443
 Alpha  occ. eigenvalues --   -0.52050  -0.49913  -0.48848  -0.48843  -0.47926
 Alpha  occ. eigenvalues --   -0.46637  -0.45788  -0.45710  -0.44848  -0.43785
 Alpha  occ. eigenvalues --   -0.37299  -0.36390
 Alpha virt. eigenvalues --    0.04995   0.11166   0.16459   0.21314   0.22872
 Alpha virt. eigenvalues --    0.24331   0.26608   0.27099   0.27580   0.28034
 Alpha virt. eigenvalues --    0.28328   0.30875   0.31405   0.31930   0.32246

 Mulliken charges:
               1
     1  C   -0.298581
     2  C   -0.299647
     3  C   -0.475820
     4  H    0.152019
     5  H    0.148735
     6  H    0.152477
     7  H    0.150788
     8  H    0.154714
     9  H    0.156485
    10  H    0.160107
    11  C   -0.298245
    12  C   -0.299561
    13  C   -0.480433
    14  H    0.149841
    15  H    0.147692
    16  H    0.154647
    17  H    0.149686
    18  H    0.148337
    19  H    0.152634
    20  H    0.166559
    21  C   -0.172015
    22  C   -0.220128
    23  C   -0.170691
    24  C    0.159714
    25  C   -0.171294
    26  C   -0.211198
    27  H    0.226340
    28  H    0.223988
    29  H    0.276014
    30  H    0.275581
    31  H    0.223968
    32  N    0.487968
    33  O   -0.460423
    34  O   -0.460258
 Sum of Mulliken charges =  -0.00000

 Dipole moment (field-independent basis, Debye):
    X=             -0.0821    Y=             -5.1823    Z=             -0.0367  Tot=              5.1831
 Quadrupole moment (field-independent basis, Debye-Ang):
   XX=            -97.3420   YY=            -99.7296   ZZ=            -89.8402
   XY=            -14.9178   XZ=             -1.0910   YZ=              0.3407

 Normal termination of Gaussian 16 at Thu May  6 13:49:26 2021.
