 Gaussian 16, Revision A.03,
 Gaussian 16:  EM64L-G16RevA.03 25-Dec-2016

 -------------
 #p 6-31g* mp2
 -------------

 ------------------------------------------------------
 Input file generated by CHIRIPA (05-May-2021 14:53:15)
 ------------------------------------------------------
 Symbolic Z-matrix:
 Charge =  0 Multiplicity = 1

                         Standard orientation:
 ---------------------------------------------------------------------
 Center     Atomic      Atomic             Coordinates (Angstroms)
 Number     Number       Type             X           Y           Z
 ---------------------------------------------------------------------
      1          6           0       -2.636142    0.078405    0.218631
      2          6           0       -3.695031   -0.594314   -0.655548
      3          6           0       -4.195764   -1.913897   -0.067534
      4          1           0       -1.789983   -0.609251    0.353124
      5          1           0       -3.055610    0.257148    1.218378
      6          1           0       -3.274144   -0.770480   -1.653765
      7          1           0       -4.538683    0.095097   -0.788134
      8          1           0       -4.640740   -1.751582    0.919507
      9          1           0       -3.369015   -2.622076    0.048958
     10          1           0       -4.952009   -2.377716   -0.708490
     11          6           0       -2.125754    1.398664   -0.355954
     12          6           0       -1.066866    2.071383    0.518225
     13          6           0       -0.566133    3.390966   -0.069789
     14          1           0       -1.706287    1.219921   -1.355701
     15          1           0       -2.971914    2.086320   -0.490447
     16          1           0       -0.223213    1.381972    0.650811
     17          1           0       -1.487753    2.247549    1.516441
     18          1           0       -1.392881    4.099145   -0.186282
     19          1           0       -0.121157    3.228650   -1.056831
     20          1           0        0.190112    3.854785    0.571167
     21          6           0        1.428582   -0.725932    2.535076
     22          6           0        2.442812    0.106067    2.049650
     23          6           0        2.690782    0.196434    0.676736
     24          6           0        1.901835   -0.562580   -0.186254
     25          6           0        0.884044   -1.400583    0.266672
     26          6           0        0.653802   -1.475280    1.643610
     27          1           0        1.242839   -0.790044    3.603151
     28          1           0        3.046090    0.689170    2.739644
     29          1           0        3.469532    0.832542    0.273833
     30          1           0        0.299247   -1.969745   -0.445708
     31          1           0       -0.134537   -2.122259    2.017757
     32          7           0        2.154967   -0.475207   -1.641826
     33          8           0        1.445905   -1.154118   -2.381387
     34          8           0        3.057639    0.270532   -2.015582
 ---------------------------------------------------------------------

 SCF Done:  E(RHF) =  -669.533714609     A.U. after   15 cycles
 E2 =    -0.2096297882D+01 EUMP2 =    -0.67163001249087D+03

 The electronic state is 1-A.
 Alpha  occ. eigenvalues --  -20.60891 -20.60884 -15.85944 -11.31316 -11.27891
 Alpha  occ. eigenvalues --  -11.27877 -11.27619 -11.26914 -11.26880 -11.21718
 Alpha  occ. eigenvalues --  -11.21497 -11.21477 -11.21388 -11.21330 -11.20982
 Alpha  occ. eigenvalues --   -1.59966  -1.39518  -1.19526  -1.08891  -1.08497
 Alpha  occ. eigenvalues --   -1.04922  -1.03599  -0.96069  -0.95725  -0.87083
 Alpha  occ. eigenvalues --   -0.86298  -0.82564  -0.79668  -0.78334  -0.77593
 Alpha  occ. eigenvalues --   -0.72160  -0.71300  -0.70603  -0.65258  -0.65090
 Alpha  occ. eigenvalues --   -0.64889  -0.62261  -0.61017  -0.59445  -0.57678
 Alpha  occ. eigenvalues --   -0.55415  -0.55354  -0.53427  -0.52988  -0.52701
 Alpha  occ. eigenvalues --   -0.52495  -0.50015  -0.48920  -0.48914  -0.47974
 Alpha  occ. eigenvalues --   -0.46698  -0.45803  -0.45649  -0.44914  -0.43841
 Alpha  occ. eigenvalues --   -0.37488  -0.36401
 Alpha virt. eigenvalues --    0.04901   0.11086   0.16290   0.20376   0.22950
 Alpha virt. eigenvalues --    0.23892   0.26084   0.27041   0.27966   0.28093
 Alpha virt. eigenvalues --    0.29078   0.30728   0.31473   0.31637   0.31952

 Mulliken charges:
               1
     1  C   -0.302007
     2  C   -0.301030
     3  C   -0.474285
     4  H    0.147304
     5  H    0.145747
     6  H    0.157436
     7  H    0.153346
     8  H    0.153852
     9  H    0.147305
    10  H    0.163338
    11  C   -0.299656
    12  C   -0.307360
    13  C   -0.476040
    14  H    0.155372
    15  H    0.149795
    16  H    0.161653
    17  H    0.146775
    18  H    0.154790
    19  H    0.160027
    20  H    0.156592
    21  C   -0.171057
    22  C   -0.216732
    23  C   -0.173319
    24  C    0.159343
    25  C   -0.174640
    26  C   -0.213530
    27  H    0.226684
    28  H    0.224428
    29  H    0.276428
    30  H    0.276292
    31  H    0.225573
    32  N    0.487976
    33  O   -0.460631
    34  O   -0.459767
 Sum of Mulliken charges =  -0.00000

 Dipole moment (field-independent basis, Debye):
    X=             -0.7736    Y=             -0.3203    Z=              5.0871  Tot=              5.1555
 Quadrupole moment (field-independent basis, Debye-Ang):
   XX=            -95.4507   YY=            -93.7232   ZZ=            -96.7796
   XY=              1.8818   XZ=             10.8640   YZ=             -1.8490

 Normal termination of Gaussian 16 at Wed May  5 20:18:05 2021.
