 Gaussian 16, Revision A.03,
 Gaussian 16:  EM64L-G16RevA.03 25-Dec-2016

 -------------
 #p 6-31g* mp2
 -------------

 ------------------------------------------------------
 Input file generated by CHIRIPA (05-May-2021 14:51:10)
 ------------------------------------------------------
 Symbolic Z-matrix:
 Charge =  0 Multiplicity = 1

                         Standard orientation:
 ---------------------------------------------------------------------
 Center     Atomic      Atomic             Coordinates (Angstroms)
 Number     Number       Type             X           Y           Z
 ---------------------------------------------------------------------
      1          6           0       -2.390135   -0.958017    0.588709
      2          6           0       -1.092741   -1.426976   -0.070706
      3          6           0       -0.124577   -2.071521    0.921774
      4          1           0       -2.150389   -0.242135    1.386819
      5          1           0       -2.877425   -1.815186    1.073689
      6          1           0       -0.608741   -0.569447   -0.555478
      7          1           0       -1.335615   -2.141680   -0.867466
      8          1           0       -0.584364   -2.943983    1.397177
      9          1           0        0.146640   -1.362816    1.710938
     10          1           0        0.796118   -2.399426    0.429170
     11          6           0       -3.368195   -0.311500   -0.390649
     12          6           0       -4.665590    0.157459    0.268766
     13          6           0       -5.633754    0.802004   -0.723713
     14          1           0       -2.880906    0.545669   -0.875628
     15          1           0       -3.607942   -1.027383   -1.188759
     16          1           0       -4.422716    0.872162    1.065526
     17          1           0       -5.149590   -0.700071    0.753538
     18          1           0       -5.904971    0.093299   -1.512877
     19          1           0       -5.173967    1.674465   -1.199116
     20          1           0       -6.554449    1.129909   -0.231110
     21          6           0        2.644927    1.303934   -0.383231
     22          6           0        2.188836    2.292424    0.690479
     23          6           0        1.723156    3.626483    0.106337
     24          1           0        3.459809    1.755217   -0.965687
     25          1           0        1.818260    1.129086   -1.085687
     26          1           0        3.015674    2.464290    1.391491
     27          1           0        1.375074    1.838660    1.270571
     28          1           0        0.882009    3.474818   -0.577819
     29          1           0        2.531929    4.104004   -0.456212
     30          1           0        1.401572    4.318062    0.891297
     31          6           0        3.113404   -0.034416    0.185170
     32          6           0        3.569495   -1.022907   -0.888540
     33          6           0        4.035174   -2.356966   -0.304397
     34          1           0        3.940071    0.140432    0.887626
     35          1           0        2.298522   -0.485699    0.767627
     36          1           0        4.383256   -0.569142   -1.468631
     37          1           0        2.742658   -1.194773   -1.589551
     38          1           0        3.226402   -2.834486    0.258152
     39          1           0        4.876323   -2.205301    0.379759
     40          1           0        4.356759   -3.048544   -1.089358
 ---------------------------------------------------------------------

 SCF Done:  E(RHF) =  -470.732331878     A.U. after   11 cycles
 E2 =    -0.1584441503D+01 EUMP2 =    -0.47231677338183D+03

 The electronic state is 1-A.
 Alpha  occ. eigenvalues --  -11.21716 -11.21644 -11.21619 -11.21569 -11.21478
 Alpha  occ. eigenvalues --  -11.21415 -11.21362 -11.21225 -11.21172 -11.21102
 Alpha  occ. eigenvalues --  -11.21095 -11.21056  -1.08519  -1.08390  -1.03626
 Alpha  occ. eigenvalues --   -1.03512  -0.96071  -0.95963  -0.87098  -0.86975
 Alpha  occ. eigenvalues --   -0.79702  -0.79568  -0.78329  -0.78189  -0.65318
 Alpha  occ. eigenvalues --   -0.64928  -0.61058  -0.60970  -0.59454  -0.59246
 Alpha  occ. eigenvalues --   -0.57667  -0.57558  -0.55512  -0.55113  -0.52777
 Alpha  occ. eigenvalues --   -0.52660  -0.52492  -0.52377  -0.50138  -0.49810
 Alpha  occ. eigenvalues --   -0.48026  -0.47858  -0.46769  -0.46610  -0.45893
 Alpha  occ. eigenvalues --   -0.45841  -0.45687  -0.45508  -0.43805  -0.43757
 Alpha virt. eigenvalues --    0.19489   0.22790   0.23600   0.24678   0.25788
 Alpha virt. eigenvalues --    0.26274   0.26997   0.27446   0.28332   0.29765
 Alpha virt. eigenvalues --    0.30277   0.31495   0.31758   0.31905   0.32134

 Mulliken charges:
               1
     1  C   -0.298717
     2  C   -0.302135
     3  C   -0.484869
     4  H    0.149826
     5  H    0.150049
     6  H    0.153580
     7  H    0.152674
     8  H    0.156810
     9  H    0.155918
    10  H    0.167352
    11  C   -0.298263
    12  C   -0.299729
    13  C   -0.475767
    14  H    0.149381
    15  H    0.149847
    16  H    0.152114
    17  H    0.152053
    18  H    0.155238
    19  H    0.155300
    20  H    0.160445
    21  C   -0.299238
    22  C   -0.299895
    23  C   -0.475553
    24  H    0.149519
    25  H    0.149875
    26  H    0.152268
    27  H    0.150948
    28  H    0.154589
    29  H    0.155506
    30  H    0.160156
    31  C   -0.306866
    32  C   -0.300576
    33  C   -0.479702
    34  H    0.148741
    35  H    0.161553
    36  H    0.152188
    37  H    0.151705
    38  H    0.157804
    39  H    0.155642
    40  H    0.160231
 Sum of Mulliken charges =  -0.00000

 Dipole moment (field-independent basis, Debye):
    X=             -0.0367    Y=             -0.0299    Z=              0.0194  Tot=              0.0511
 Quadrupole moment (field-independent basis, Debye-Ang):
   XX=            -84.5060   YY=            -85.0746   ZZ=            -85.1923
   XY=              1.5107   XZ=             -0.3825   YZ=              0.7346

 Normal termination of Gaussian 16 at Thu May  6 00:36:00 2021.
