 Gaussian 16, Revision A.03,
 Gaussian 16:  EM64L-G16RevA.03 25-Dec-2016

 -------------
 #p 6-31g* mp2
 -------------

 ------------------------------------------------------
 Input file generated by CHIRIPA (05-May-2021 14:51:11)
 ------------------------------------------------------
 Symbolic Z-matrix:
 Charge =  0 Multiplicity = 1

                         Standard orientation:
 ---------------------------------------------------------------------
 Center     Atomic      Atomic             Coordinates (Angstroms)
 Number     Number       Type             X           Y           Z
 ---------------------------------------------------------------------
      1          6           0        2.190691    0.848402   -0.645662
      2          6           0        1.438689    2.179723   -0.653641
      3          6           0        1.048326    2.629735   -2.061795
      4          1           0        3.092722    0.940356   -1.266008
      5          1           0        1.564230    0.078570   -1.117149
      6          1           0        2.065826    2.946508   -0.181034
      7          1           0        0.538444    2.084647   -0.033048
      8          1           0        0.402179    1.885683   -2.538746
      9          1           0        1.938240    2.752441   -2.687572
     10          1           0        0.511832    3.583530   -2.044174
     11          6           0        2.587722    0.385272    0.754911
     12          6           0        3.339723   -0.946048    0.762889
     13          6           0        3.730087   -1.396061    2.171043
     14          1           0        3.214182    1.155105    1.226398
     15          1           0        1.685690    0.293319    1.375257
     16          1           0        4.239968   -0.850972    0.142297
     17          1           0        2.712586   -1.712833    0.290282
     18          1           0        2.840172   -1.518766    2.796821
     19          1           0        4.376233   -0.652009    2.647994
     20          1           0        4.266580   -2.349855    2.153423
     21          6           0       -2.435953    0.027901    0.352266
     22          6           0       -3.761819    0.179040    1.098739
     23          6           0       -3.840234    1.473804    1.908201
     24          1           0       -1.609550    0.060529    1.075412
     25          1           0       -2.299799    0.888661   -0.317024
     26          1           0       -3.896085   -0.682443    1.765400
     27          1           0       -4.585172    0.145856    0.373752
     28          1           0       -3.731790    2.344582    1.253535
     29          1           0       -3.038788    1.511577    2.653089
     30          1           0       -4.796261    1.561435    2.433743
     31          6           0       -2.342459   -1.261575   -0.461515
     32          6           0       -1.016593   -1.412714   -1.207987
     33          6           0       -0.938177   -2.707480   -2.017449
     34          1           0       -2.478612   -2.122335    0.207776
     35          1           0       -3.168861   -1.294203   -1.184660
     36          1           0       -0.193240   -1.379530   -0.483001
     37          1           0       -0.882327   -0.551232   -1.874647
     38          1           0       -1.739624   -2.745252   -2.762336
     39          1           0       -1.046622   -3.578256   -1.362783
     40          1           0        0.017848   -2.795109   -2.542992
 ---------------------------------------------------------------------

 SCF Done:  E(RHF) =  -470.732738920     A.U. after   11 cycles
 E2 =    -0.1584849353D+01 EUMP2 =    -0.47231758827257D+03

 The electronic state is 1-A.
 Alpha  occ. eigenvalues --  -11.21717 -11.21673 -11.21599 -11.21507 -11.21499
 Alpha  occ. eigenvalues --  -11.21448 -11.21347 -11.21194 -11.21169 -11.21121
 Alpha  occ. eigenvalues --  -11.21077 -11.21037  -1.08552  -1.08353  -1.03629
 Alpha  occ. eigenvalues --   -1.03485  -0.96069  -0.95938  -0.87084  -0.86956
 Alpha  occ. eigenvalues --   -0.79753  -0.79526  -0.78402  -0.78130  -0.65216
 Alpha  occ. eigenvalues --   -0.64974  -0.61061  -0.60858  -0.59448  -0.59294
 Alpha  occ. eigenvalues --   -0.57702  -0.57539  -0.55351  -0.55235  -0.52758
 Alpha  occ. eigenvalues --   -0.52642  -0.52496  -0.52364  -0.50018  -0.49884
 Alpha  occ. eigenvalues --   -0.48141  -0.47865  -0.46751  -0.46533  -0.46179
 Alpha  occ. eigenvalues --   -0.45805  -0.45621  -0.45257  -0.43871  -0.43727
 Alpha virt. eigenvalues --    0.19639   0.22315   0.23189   0.23862   0.25372
 Alpha virt. eigenvalues --    0.26210   0.26549   0.28538   0.28679   0.29668
 Alpha virt. eigenvalues --    0.30491   0.31522   0.31563   0.31755   0.31962

 Mulliken charges:
               1
     1  C   -0.305621
     2  C   -0.301694
     3  C   -0.477996
     4  H    0.148518
     5  H    0.159879
     6  H    0.151367
     7  H    0.155013
     8  H    0.155999
     9  H    0.155173
    10  H    0.159793
    11  C   -0.299271
    12  C   -0.301145
    13  C   -0.475486
    14  H    0.149642
    15  H    0.148974
    16  H    0.152318
    17  H    0.152155
    18  H    0.154600
    19  H    0.155374
    20  H    0.160227
    21  C   -0.301196
    22  C   -0.299700
    23  C   -0.475910
    24  H    0.150133
    25  H    0.151265
    26  H    0.152153
    27  H    0.152334
    28  H    0.155461
    29  H    0.155257
    30  H    0.160603
    31  C   -0.297561
    32  C   -0.308517
    33  C   -0.476369
    34  H    0.149852
    35  H    0.150147
    36  H    0.156790
    37  H    0.155062
    38  H    0.155843
    39  H    0.155631
    40  H    0.160902
 Sum of Mulliken charges =  -0.00000

 Dipole moment (field-independent basis, Debye):
    X=             -0.0596    Y=             -0.0356    Z=             -0.0123  Tot=              0.0705
 Quadrupole moment (field-independent basis, Debye-Ang):
   XX=            -83.9747   YY=            -85.3493   ZZ=            -85.4436
   XY=              0.5647   XZ=              0.0457   YZ=             -0.4898

 Normal termination of Gaussian 16 at Wed May  5 21:28:25 2021.
