 Gaussian 16, Revision A.03,
 Gaussian 16:  EM64L-G16RevA.03 25-Dec-2016

 -------------
 #p 6-31g* mp2
 -------------

 ------------------------------------------------------
 Input file generated by CHIRIPA (05-May-2021 14:53:11)
 ------------------------------------------------------
 Symbolic Z-matrix:
 Charge =  0 Multiplicity = 1

                         Standard orientation:
 ---------------------------------------------------------------------
 Center     Atomic      Atomic             Coordinates (Angstroms)
 Number     Number       Type             X           Y           Z
 ---------------------------------------------------------------------
      1          6           0       -2.037483   -0.639543   -0.573923
      2          6           0       -2.954488   -1.715411    0.008822
      3          6           0       -2.452220   -3.132989   -0.266847
      4          1           0       -1.945294   -0.793113   -1.657834
      5          1           0       -1.029189   -0.760383   -0.154238
      6          1           0       -3.961089   -1.591720   -0.410787
      7          1           0       -3.044658   -1.559146    1.091443
      8          1           0       -1.457694   -3.280396    0.166500
      9          1           0       -2.379332   -3.313155   -1.344265
     10          1           0       -3.122675   -3.886271    0.158496
     11          6           0       -2.526289    0.782892   -0.306572
     12          6           0       -1.609283    1.858760   -0.889317
     13          6           0       -2.111551    3.276338   -0.613648
     14          1           0       -3.534583    0.903732   -0.726257
     15          1           0       -2.618477    0.936463    0.777339
     16          1           0       -1.519113    1.702496   -1.971938
     17          1           0       -0.602682    1.735069   -0.469708
     18          1           0       -2.184439    3.456504    0.463770
     19          1           0       -3.106077    3.423746   -1.046995
     20          1           0       -1.441096    4.029620   -1.038991
     21          6           0        2.906711   -0.560102   -1.857976
     22          6           0        2.474237   -1.606768   -1.037016
     23          6           0        1.850257   -1.339208    0.185117
     24          6           0        1.674060   -0.007261    0.556817
     25          6           0        2.093920    1.057357   -0.239171
     26          6           0        2.715509    0.766282   -1.457141
     27          1           0        3.390505   -0.777082   -2.805741
     28          1           0        2.621404   -2.637821   -1.345752
     29          1           0        1.505722   -2.130268    0.840050
     30          1           0        1.933277    2.074988    0.095551
     31          1           0        3.050354    1.581153   -2.092680
     32          7           0        1.014745    0.288440    1.848430
     33          8           0        0.871284    1.470477    2.153138
     34          8           0        0.653921   -0.667424    2.531632
 ---------------------------------------------------------------------

 SCF Done:  E(RHF) =  -669.534115863     A.U. after   15 cycles
 E2 =    -0.2096697738D+01 EUMP2 =    -0.67163081360112D+03

 The electronic state is 1-A.
 Alpha  occ. eigenvalues --  -20.61006 -20.60991 -15.86000 -11.31257 -11.27850
 Alpha  occ. eigenvalues --  -11.27844 -11.27585 -11.26852 -11.26842 -11.21246
 Alpha  occ. eigenvalues --  -11.21225 -11.21042 -11.20937 -11.20929 -11.20687
 Alpha  occ. eigenvalues --   -1.60050  -1.39608  -1.19476  -1.08883  -1.08079
 Alpha  occ. eigenvalues --   -1.04866  -1.03207  -0.95728  -0.95672  -0.86701
 Alpha  occ. eigenvalues --   -0.86265  -0.82556  -0.79292  -0.77961  -0.77591
 Alpha  occ. eigenvalues --   -0.72235  -0.71414  -0.70585  -0.65124  -0.64889
 Alpha  occ. eigenvalues --   -0.64648  -0.62233  -0.60588  -0.59052  -0.57303
 Alpha  occ. eigenvalues --   -0.55365  -0.54969  -0.53286  -0.52947  -0.52359
 Alpha  occ. eigenvalues --   -0.52117  -0.49632  -0.49004  -0.48990  -0.47650
 Alpha  occ. eigenvalues --   -0.46378  -0.45414  -0.45345  -0.44907  -0.43458
 Alpha  occ. eigenvalues --   -0.37337  -0.36384
 Alpha virt. eigenvalues --    0.04868   0.11015   0.16390   0.20956   0.23129
 Alpha virt. eigenvalues --    0.24167   0.26332   0.27266   0.27519   0.27894
 Alpha virt. eigenvalues --    0.29090   0.30675   0.31242   0.31973   0.32230

 Mulliken charges:
               1
     1  C   -0.301444
     2  C   -0.299440
     3  C   -0.474705
     4  H    0.145089
     5  H    0.149898
     6  H    0.150302
     7  H    0.160566
     8  H    0.151167
     9  H    0.151243
    10  H    0.160977
    11  C   -0.301700
    12  C   -0.303187
    13  C   -0.475484
    14  H    0.147674
    15  H    0.159925
    16  H    0.145922
    17  H    0.153712
    18  H    0.164116
    19  H    0.153206
    20  H    0.154173
    21  C   -0.170663
    22  C   -0.216116
    23  C   -0.173649
    24  C    0.160008
    25  C   -0.174252
    26  C   -0.217124
    27  H    0.226177
    28  H    0.224272
    29  H    0.275817
    30  H    0.276150
    31  H    0.224133
    32  N    0.492058
    33  O   -0.459387
    34  O   -0.459434
 Sum of Mulliken charges =  -0.00000

 Dipole moment (field-independent basis, Debye):
    X=              2.4153    Y=             -1.0254    Z=             -4.3936  Tot=              5.1175
 Quadrupole moment (field-independent basis, Debye-Ang):
   XX=            -87.2511   YY=            -91.4083   ZZ=            -99.6457
   XY=             -1.0195   XZ=             -6.6407   YZ=             -1.4653

 Normal termination of Gaussian 16 at Wed May  5 23:18:58 2021.
