 Gaussian 16, Revision A.03,
 Gaussian 16:  EM64L-G16RevA.03 25-Dec-2016

 -------------
 #p 6-31g* mp2
 -------------

 ------------------------------------------------------
 Input file generated by CHIRIPA (05-May-2021 14:53:16)
 ------------------------------------------------------
 Symbolic Z-matrix:
 Charge =  0 Multiplicity = 1

                         Standard orientation:
 ---------------------------------------------------------------------
 Center     Atomic      Atomic             Coordinates (Angstroms)
 Number     Number       Type             X           Y           Z
 ---------------------------------------------------------------------
      1          6           0       -2.642768    1.162574    0.145280
      2          6           0       -1.980024    1.677111   -1.133003
      3          6           0       -1.295380    3.030603   -0.940350
      4          1           0       -3.378400    1.901122    0.492178
      5          1           0       -1.884303    1.081589    0.936208
      6          1           0       -2.739247    1.755786   -1.921676
      7          1           0       -1.246021    0.937166   -1.477004
      8          1           0       -0.517866    2.963206   -0.172540
      9          1           0       -2.019577    3.786478   -0.619739
     10          1           0       -0.828220    3.379645   -1.866520
     11          6           0       -3.331432   -0.189559   -0.031374
     12          6           0       -3.994176   -0.704095    1.246909
     13          6           0       -4.678820   -2.057587    1.054256
     14          1           0       -4.089896   -0.108573   -0.822302
     15          1           0       -2.595799   -0.928106   -0.378272
     16          1           0       -4.728179    0.035850    1.590910
     17          1           0       -3.234952   -0.782771    2.035582
     18          1           0       -3.954622   -2.813462    0.733645
     19          1           0       -5.456333   -1.990190    0.286446
     20          1           0       -5.145980   -2.406629    1.980426
     21          6           0        3.247085    1.414492    1.475734
     22          6           0        3.640942    0.083498    1.648512
     23          6           0        3.141246   -0.919105    0.812068
     24          6           0        2.245367   -0.553577   -0.191465
     25          6           0        1.833873    0.763623   -0.388813
     26          6           0        2.346396    1.749716    0.459413
     27          1           0        3.640243    2.186926    2.130080
     28          1           0        4.340290   -0.179757    2.436962
     29          1           0        3.429317   -1.957372    0.923587
     30          1           0        1.135268    0.995315   -1.183601
     31          1           0        2.038757    2.782560    0.322900
     32          7           0        1.709571   -1.606250   -1.083207
     33          8           0        0.921533   -1.258270   -1.959873
     34          8           0        2.087799   -2.759380   -0.888605
 ---------------------------------------------------------------------

 SCF Done:  E(RHF) =  -669.535592068     A.U. after   15 cycles
 E2 =    -0.2093189857D+01 EUMP2 =    -0.67162878192492D+03

 The electronic state is 1-A.
 Alpha  occ. eigenvalues --  -20.60911 -20.60906 -15.85943 -11.31247 -11.27825
 Alpha  occ. eigenvalues --  -11.27776 -11.27551 -11.26825 -11.26793 -11.21646
 Alpha  occ. eigenvalues --  -11.21566 -11.21372 -11.21344 -11.21076 -11.20768
 Alpha  occ. eigenvalues --   -1.59973  -1.39529  -1.19423  -1.08828  -1.08336
 Alpha  occ. eigenvalues --   -1.04822  -1.03518  -0.95999  -0.95666  -0.87009
 Alpha  occ. eigenvalues --   -0.86218  -0.82506  -0.79572  -0.78096  -0.77566
 Alpha  occ. eigenvalues --   -0.72165  -0.71288  -0.70545  -0.65100  -0.65045
 Alpha  occ. eigenvalues --   -0.64762  -0.62294  -0.60784  -0.59371  -0.57575
 Alpha  occ. eigenvalues --   -0.55436  -0.55159  -0.53145  -0.52928  -0.52700
 Alpha  occ. eigenvalues --   -0.52388  -0.49929  -0.48934  -0.48916  -0.47872
 Alpha  occ. eigenvalues --   -0.46581  -0.45658  -0.45555  -0.44890  -0.43733
 Alpha  occ. eigenvalues --   -0.37403  -0.36399
 Alpha virt. eigenvalues --    0.04912   0.11181   0.16333   0.20268   0.23170
 Alpha virt. eigenvalues --    0.24140   0.26130   0.26679   0.27337   0.28228
 Alpha virt. eigenvalues --    0.29630   0.29873   0.31493   0.31695   0.32547

 Mulliken charges:
               1
     1  C   -0.297779
     2  C   -0.311889
     3  C   -0.484276
     4  H    0.148089
     5  H    0.147110
     6  H    0.156163
     7  H    0.166830
     8  H    0.146849
     9  H    0.159348
    10  H    0.159630
    11  C   -0.301278
    12  C   -0.299460
    13  C   -0.476190
    14  H    0.150027
    15  H    0.160103
    16  H    0.149812
    17  H    0.150380
    18  H    0.159126
    19  H    0.155268
    20  H    0.158722
    21  C   -0.170636
    22  C   -0.218817
    23  C   -0.170389
    24  C    0.156269
    25  C   -0.172928
    26  C   -0.223446
    27  H    0.226085
    28  H    0.223705
    29  H    0.275645
    30  H    0.284794
    31  H    0.226572
    32  N    0.488546
    33  O   -0.462795
    34  O   -0.459191
 Sum of Mulliken charges =  -0.00000

 Dipole moment (field-independent basis, Debye):
    X=              1.8784    Y=              3.5691    Z=              3.0781  Tot=              5.0737
 Quadrupole moment (field-independent basis, Debye-Ang):
   XX=            -84.7223   YY=            -97.7784   ZZ=            -95.2817
   XY=              4.4376   XZ=              8.9381   YZ=             -4.4184

 Normal termination of Gaussian 16 at Wed May  5 23:33:33 2021.
