 Gaussian 16, Revision A.03,
 Gaussian 16:  EM64L-G16RevA.03 25-Dec-2016

 -------------
 #p 6-31g* mp2
 -------------

 ------------------------------------------------------
 Input file generated by CHIRIPA (05-May-2021 14:57:24)
 ------------------------------------------------------
 Symbolic Z-matrix:
 Charge =  0 Multiplicity = 1

                         Standard orientation:
 ---------------------------------------------------------------------
 Center     Atomic      Atomic             Coordinates (Angstroms)
 Number     Number       Type             X           Y           Z
 ---------------------------------------------------------------------
      1          6           0       -5.341739    0.888938    0.387204
      2          6           0       -4.325388    1.663626   -0.181487
      3          6           0       -3.066381    1.109874   -0.432104
      4          6           0       -2.857450   -0.227814   -0.100095
      5          6           0       -3.849813   -1.025489    0.467550
      6          6           0       -5.101132   -0.450785    0.709340
      7          1           0       -6.316780    1.327245    0.578461
      8          1           0       -4.509399    2.704340   -0.432684
      9          1           0       -2.261685    1.686815   -0.871444
     10          1           0       -3.636373   -2.060109    0.707180
     11          1           0       -5.888571   -1.054807    1.151089
     12          7           0       -1.528665   -0.825137   -0.360740
     13          8           0       -1.369932   -2.006018   -0.059142
     14          8           0       -0.671057   -0.101128   -0.861695
     15          6           0        3.006525   -2.388553   -0.088149
     16          6           0        2.699868   -1.613777   -1.211628
     17          6           0        2.735382   -0.217879   -1.142659
     18          6           0        3.083210    0.372791    0.071183
     19          6           0        3.393957   -0.371804    1.207980
     20          6           0        3.351981   -1.766191    1.115946
     21          1           0        2.976428   -3.472333   -0.150684
     22          1           0        2.431246   -2.094393   -2.148055
     23          1           0        2.502582    0.406045   -1.997024
     24          1           0        3.658185    0.135954    2.127645
     25          1           0        3.590618   -2.365364    1.990068
     26          7           0        3.124227    1.849766    0.156407
     27          8           0        3.433660    2.345953    1.237464
     28          8           0        2.846166    2.483264   -0.859467
 ---------------------------------------------------------------------

 SCF Done:  E(RHF) =  -868.338916955     A.U. after   16 cycles
 E2 =    -0.2599733974D+01 EUMP2 =    -0.87093865092955D+03

 The electronic state is 1-A.
 Alpha  occ. eigenvalues --  -20.61084 -20.61070 -20.59665 -20.59653 -15.86120
 Alpha  occ. eigenvalues --  -15.84705 -11.31317 -11.29699 -11.27896 -11.27829
 Alpha  occ. eigenvalues --  -11.27592 -11.26872 -11.26820 -11.26358 -11.26231
 Alpha  occ. eigenvalues --  -11.26013 -11.25312 -11.25156  -1.60149  -1.58741
 Alpha  occ. eigenvalues --   -1.39708  -1.38306  -1.19478  -1.17867  -1.08908
 Alpha  occ. eigenvalues --   -1.07345  -1.04854  -1.03242  -0.95770  -0.94240
 Alpha  occ. eigenvalues --   -0.86261  -0.84683  -0.82607  -0.81103  -0.77667
 Alpha  occ. eigenvalues --   -0.76179  -0.72362  -0.71462  -0.70950  -0.70586
 Alpha  occ. eigenvalues --   -0.70043  -0.69048  -0.65135  -0.64856  -0.63560
 Alpha  occ. eigenvalues --   -0.63306  -0.62199  -0.60641  -0.55371  -0.53818
 Alpha  occ. eigenvalues --   -0.53197  -0.52944  -0.51610  -0.51390  -0.49103
 Alpha  occ. eigenvalues --   -0.49020  -0.47709  -0.47670  -0.45153  -0.43796
 Alpha  occ. eigenvalues --   -0.37457  -0.36450  -0.35820  -0.34724
 Alpha virt. eigenvalues --    0.04848   0.06376   0.11205   0.12867   0.16374
 Alpha virt. eigenvalues --    0.17935   0.21369   0.22763   0.27293   0.28247
 Alpha virt. eigenvalues --    0.28652   0.29629   0.30936   0.32247   0.32501

 Mulliken charges:
               1
     1  C   -0.170264
     2  C   -0.218654
     3  C   -0.170732
     4  C    0.157376
     5  C   -0.171032
     6  C   -0.218718
     7  H    0.226413
     8  H    0.225830
     9  H    0.279657
    10  H    0.273975
    11  H    0.223318
    12  N    0.489835
    13  O   -0.463780
    14  O   -0.461772
    15  C   -0.165241
    16  C   -0.208278
    17  C   -0.149276
    18  C    0.156001
    19  C   -0.173162
    20  C   -0.219318
    21  H    0.221656
    22  H    0.220275
    23  H    0.272228
    24  H    0.269316
    25  H    0.217017
    26  N    0.488440
    27  O   -0.467083
    28  O   -0.464025
 Sum of Mulliken charges =  -0.00000

 Dipole moment (field-independent basis, Debye):
    X=             -5.1678    Y=             -3.1327    Z=              0.4164  Tot=              6.0575
 Quadrupole moment (field-independent basis, Debye-Ang):
   XX=            -80.2822   YY=           -106.9344   ZZ=           -100.7466
   XY=            -20.3163   XZ=             -2.9367   YZ=             -3.0724

 Normal termination of Gaussian 16 at Thu May  6 21:14:22 2021.
