 Gaussian 16, Revision A.03,
 Gaussian 16:  EM64L-G16RevA.03 25-Dec-2016

 -------------
 #p 6-31g* mp2
 -------------

 ------------------------------------------------------
 Input file generated by CHIRIPA (05-May-2021 14:53:17)
 ------------------------------------------------------
 Symbolic Z-matrix:
 Charge =  0 Multiplicity = 1

                         Standard orientation:
 ---------------------------------------------------------------------
 Center     Atomic      Atomic             Coordinates (Angstroms)
 Number     Number       Type             X           Y           Z
 ---------------------------------------------------------------------
      1          6           0       -4.428597   -0.113700    0.603806
      2          6           0       -3.118665   -0.135446   -0.184604
      3          6           0       -1.897178   -0.369216    0.704843
      4          1           0       -4.375172    0.672090    1.369721
      5          1           0       -4.541388   -1.065975    1.140319
      6          1           0       -3.009050    0.816048   -0.720570
      7          1           0       -3.175288   -0.921148   -0.948856
      8          1           0       -1.979933   -1.326800    1.229044
      9          1           0       -1.812751    0.420267    1.458627
     10          1           0       -0.971637   -0.381036    0.120811
     11          6           0       -5.658746    0.119051   -0.271572
     12          6           0       -6.968678    0.140797    0.516838
     13          6           0       -8.190165    0.374567   -0.372609
     14          1           0       -5.545955    1.071326   -0.808085
     15          1           0       -5.712171   -0.666739   -1.037487
     16          1           0       -6.912055    0.926499    1.281090
     17          1           0       -7.078293   -0.810697    1.052804
     18          1           0       -8.274592   -0.414916   -1.126393
     19          1           0       -8.107410    1.332151   -0.896810
     20          1           0       -9.115706    0.386387    0.211423
     21          6           0        6.327813    0.532305    0.487031
     22          6           0        5.899870   -0.798279    0.432869
     23          6           0        4.579345   -1.106095    0.092263
     24          6           0        3.709559   -0.053754   -0.189410
     25          6           0        4.105845    1.281980   -0.143986
     26          6           0        5.431016    1.566364    0.198938
     27          1           0        7.355433    0.762322    0.752522
     28          1           0        6.594140   -1.603386    0.656110
     29          1           0        4.221500   -2.127329    0.042799
     30          1           0        3.390651    2.063029   -0.371748
     31          1           0        5.760580    2.600641    0.240211
     32          7           0        2.309119   -0.367221   -0.551221
     33          8           0        1.562350    0.578061   -0.794965
     34          8           0        1.984744   -1.552265   -0.584215
 ---------------------------------------------------------------------

 SCF Done:  E(RHF) =  -669.536794248     A.U. after   15 cycles
 E2 =    -0.2091150560D+01 EUMP2 =    -0.67162794480815D+03

 The electronic state is 1-A.
 Alpha  occ. eigenvalues --  -20.61048 -20.61035 -15.86041 -11.31338 -11.27891
 Alpha  occ. eigenvalues --  -11.27887 -11.27624 -11.26890 -11.26880 -11.20945
 Alpha  occ. eigenvalues --  -11.20557 -11.20524 -11.20349 -11.20224 -11.19243
 Alpha  occ. eigenvalues --   -1.60081  -1.39637  -1.19498  -1.08909  -1.07469
 Alpha  occ. eigenvalues --   -1.04888  -1.02466  -0.95756  -0.94898  -0.86290
 Alpha  occ. eigenvalues --   -0.85920  -0.82589  -0.78581  -0.77649  -0.77240
 Alpha  occ. eigenvalues --   -0.72250  -0.71386  -0.70606  -0.65152  -0.64891
 Alpha  occ. eigenvalues --   -0.64115  -0.62234  -0.59882  -0.58325  -0.56477
 Alpha  occ. eigenvalues --   -0.55392  -0.54219  -0.53222  -0.52979  -0.51569
 Alpha  occ. eigenvalues --   -0.51345  -0.49019  -0.48968  -0.48887  -0.46845
 Alpha  occ. eigenvalues --   -0.45655  -0.45054  -0.44779  -0.44697  -0.42664
 Alpha  occ. eigenvalues --   -0.37474  -0.36486
 Alpha virt. eigenvalues --    0.04864   0.11170   0.16371   0.21309   0.23748
 Alpha virt. eigenvalues --    0.25473   0.27229   0.27545   0.28188   0.28403
 Alpha virt. eigenvalues --    0.29178   0.30862   0.32383   0.32426   0.32634

 Mulliken charges:
               1
     1  C   -0.297037
     2  C   -0.298172
     3  C   -0.487300
     4  H    0.146597
     5  H    0.147162
     6  H    0.150980
     7  H    0.151168
     8  H    0.147838
     9  H    0.145767
    10  H    0.191647
    11  C   -0.297392
    12  C   -0.298798
    13  C   -0.475152
    14  H    0.148317
    15  H    0.148880
    16  H    0.150499
    17  H    0.150847
    18  H    0.154611
    19  H    0.154338
    20  H    0.158058
    21  C   -0.170429
    22  C   -0.218632
    23  C   -0.170651
    24  C    0.159472
    25  C   -0.170583
    26  C   -0.218608
    27  H    0.226154
    28  H    0.223987
    29  H    0.276030
    30  H    0.276014
    31  H    0.223982
    32  N    0.488451
    33  O   -0.459128
    34  O   -0.458915
 Sum of Mulliken charges =  -0.00000

 Dipole moment (field-independent basis, Debye):
    X=              5.3949    Y=              1.0928    Z=              1.1758  Tot=              5.6287
 Quadrupole moment (field-independent basis, Debye-Ang):
   XX=            -60.7463   YY=            -89.1148   ZZ=            -96.5555
   XY=              3.1127   XZ=              3.8275   YZ=             -0.5745

 Normal termination of Gaussian 16 at Thu May  6 10:39:13 2021.
