 Gaussian 16, Revision A.03,
 Gaussian 16:  EM64L-G16RevA.03 25-Dec-2016

 -------------
 #p 6-31g* mp2
 -------------

 ------------------------------------------------------
 Input file generated by CHIRIPA (05-May-2021 14:55:23)
 ------------------------------------------------------
 Symbolic Z-matrix:
 Charge =  0 Multiplicity = 1

                         Standard orientation:
 ---------------------------------------------------------------------
 Center     Atomic      Atomic             Coordinates (Angstroms)
 Number     Number       Type             X           Y           Z
 ---------------------------------------------------------------------
      1          6           0        2.558030    2.132834    0.457844
      2          6           0        2.717253    1.574915   -0.814907
      3          6           0        2.413964    0.229410   -1.043341
      4          6           0        1.951613   -0.532546    0.028546
      5          6           0        1.782498   -0.005642    1.308024
      6          6           0        2.091982    1.342168    1.513387
      7          1           0        2.796038    3.178949    0.626337
      8          1           0        3.079008    2.186569   -1.636525
      9          1           0        2.527985   -0.228069   -2.018600
     10          1           0        1.419949   -0.640516    2.107343
     11          1           0        1.967358    1.772777    2.502877
     12          7           0        1.627255   -1.958192   -0.201075
     13          8           0        1.221554   -2.608247    0.759900
     14          8           0        1.784866   -2.398564   -1.337679
     15          6           0       -2.984386   -0.200215    0.181655
     16          6           0       -2.439396   -1.572075   -0.217056
     17          6           0       -3.286175   -2.724554    0.323824
     18          1           0       -3.035028   -0.137147    1.277283
     19          1           0       -4.015567   -0.102346   -0.185062
     20          1           0       -1.409070   -1.666789    0.149106
     21          1           0       -2.389865   -1.631814   -1.311860
     22          1           0       -4.312363   -2.657950   -0.051812
     23          1           0       -3.325996   -2.693124    1.417454
     24          1           0       -2.878610   -3.695956    0.026958
     25          6           0       -2.148596    0.962027   -0.351615
     26          6           0       -2.693585    2.333887    0.047097
     27          6           0       -1.846806    3.486367   -0.493785
     28          1           0       -1.117414    0.864157    0.015102
     29          1           0       -2.097952    0.898959   -1.447244
     30          1           0       -2.743116    2.393626    1.141900
     31          1           0       -3.723911    2.428601   -0.319065
     32          1           0       -1.806985    3.454935   -1.587415
     33          1           0       -0.820617    3.419762   -0.118148
     34          1           0       -2.254371    4.457768   -0.196918
 ---------------------------------------------------------------------

 SCF Done:  E(RHF) =  -669.536297246     A.U. after   15 cycles
 E2 =    -0.2093776668D+01 EUMP2 =    -0.67163007391363D+03

 The electronic state is 1-A.
 Alpha  occ. eigenvalues --  -20.60963 -20.60952 -15.85973 -11.31330 -11.27899
 Alpha  occ. eigenvalues --  -11.27870 -11.27638 -11.26922 -11.26890 -11.21632
 Alpha  occ. eigenvalues --  -11.21263 -11.21202 -11.21027 -11.20897 -11.20343
 Alpha  occ. eigenvalues --   -1.60014  -1.39570  -1.19501  -1.08898  -1.08168
 Alpha  occ. eigenvalues --   -1.04896  -1.03226  -0.95738  -0.95696  -0.86726
 Alpha  occ. eigenvalues --   -0.86294  -0.82566  -0.79333  -0.77948  -0.77616
 Alpha  occ. eigenvalues --   -0.72205  -0.71333  -0.70600  -0.65155  -0.64893
 Alpha  occ. eigenvalues --   -0.64807  -0.62240  -0.60630  -0.59100  -0.57277
 Alpha  occ. eigenvalues --   -0.55396  -0.55015  -0.53248  -0.52984  -0.52383
 Alpha  occ. eigenvalues --   -0.52127  -0.49677  -0.48971  -0.48966  -0.47629
 Alpha  occ. eigenvalues --   -0.46397  -0.45576  -0.45464  -0.44694  -0.43479
 Alpha  occ. eigenvalues --   -0.37459  -0.36479
 Alpha virt. eigenvalues --    0.04884   0.11131   0.16333   0.21239   0.22968
 Alpha virt. eigenvalues --    0.24538   0.26506   0.27277   0.27450   0.27932
 Alpha virt. eigenvalues --    0.28409   0.30857   0.31447   0.31849   0.32495

 Mulliken charges:
               1
     1  C   -0.170855
     2  C   -0.217474
     3  C   -0.170226
     4  C    0.159942
     5  C   -0.173612
     6  C   -0.218313
     7  H    0.226847
     8  H    0.224503
     9  H    0.276157
    10  H    0.276110
    11  H    0.224412
    12  N    0.488194
    13  O   -0.458563
    14  O   -0.457341
    15  C   -0.297693
    16  C   -0.305579
    17  C   -0.474440
    18  H    0.146638
    19  H    0.148168
    20  H    0.159705
    21  H    0.152282
    22  H    0.150700
    23  H    0.153102
    24  H    0.167562
    25  C   -0.302430
    26  C   -0.298251
    27  C   -0.476138
    28  H    0.150859
    29  H    0.149179
    30  H    0.149498
    31  H    0.152779
    32  H    0.154912
    33  H    0.150851
    34  H    0.158515
 Sum of Mulliken charges =  -0.00000

 Dipole moment (field-independent basis, Debye):
    X=              1.3467    Y=              4.8649    Z=              0.7710  Tot=              5.1064
 Quadrupole moment (field-independent basis, Debye-Ang):
   XX=            -90.8672   YY=           -101.5916   ZZ=            -89.4606
   XY=              9.2552   XZ=              0.8554   YZ=             -0.4705

 Normal termination of Gaussian 16 at Thu May  6 19:15:25 2021.
