 Gaussian 16, Revision A.03,
 Gaussian 16:  EM64L-G16RevA.03 25-Dec-2016

 -------------
 #p 6-31g* mp2
 -------------

 ------------------------------------------------------
 Input file generated by CHIRIPA (05-May-2021 14:53:13)
 ------------------------------------------------------
 Symbolic Z-matrix:
 Charge =  0 Multiplicity = 1

                         Standard orientation:
 ---------------------------------------------------------------------
 Center     Atomic      Atomic             Coordinates (Angstroms)
 Number     Number       Type             X           Y           Z
 ---------------------------------------------------------------------
      1          6           0       -5.238947    0.244662    0.284491
      2          6           0       -6.307985    0.495549   -0.779558
      3          6           0       -7.555289    1.176493   -0.215339
      4          1           0       -5.665935   -0.374488    1.085290
      5          1           0       -4.958484    1.201923    0.745346
      6          1           0       -6.585349   -0.461731   -1.239230
      7          1           0       -5.878346    1.114015   -1.578011
      8          1           0       -7.299044    2.144952    0.226278
      9          1           0       -8.010064    0.560253    0.566984
     10          1           0       -8.306466    1.346337   -0.992993
     11          6           0       -3.985938   -0.435504   -0.264208
     12          6           0       -2.916901   -0.686391    0.799841
     13          6           0       -1.669597   -1.367334    0.235623
     14          1           0       -4.266402   -1.392765   -0.725062
     15          1           0       -3.558950    0.183646   -1.065007
     16          1           0       -3.346540   -1.304856    1.598294
     17          1           0       -2.639537    0.270890    1.259514
     18          1           0       -1.214821   -0.751095   -0.546700
     19          1           0       -1.925841   -2.335794   -0.205995
     20          1           0       -0.918419   -1.537178    1.013277
     21          6           0        4.486999    2.437845    0.003359
     22          6           0        3.218997    2.162073    0.525509
     23          6           0        2.719311    0.856370    0.524463
     24          6           0        3.518055   -0.153928   -0.009014
     25          6           0        4.785337    0.089043   -0.536509
     26          6           0        5.264751    1.402276   -0.525053
     27          1           0        4.867292    3.455071    0.008214
     28          1           0        2.612778    2.964324    0.936529
     29          1           0        1.741144    0.614828    0.922287
     30          1           0        5.366403   -0.731602   -0.939403
     31          1           0        6.249862    1.613503   -0.931234
     32          7           0        2.999790   -1.540202   -0.015632
     33          8           0        3.723108   -2.412613   -0.491393
     34          8           0        1.880071   -1.728105    0.455067
 ---------------------------------------------------------------------

 SCF Done:  E(RHF) =  -669.535671587     A.U. after   15 cycles
 E2 =    -0.2090876998D+01 EUMP2 =    -0.67162654858494D+03

 The electronic state is 1-A.
 Alpha  occ. eigenvalues --  -20.60820 -20.60814 -15.85865 -11.31225 -11.27794
 Alpha  occ. eigenvalues --  -11.27789 -11.27541 -11.26813 -11.26803 -11.21378
 Alpha  occ. eigenvalues --  -11.21095 -11.21028 -11.20941 -11.20907 -11.20037
 Alpha  occ. eigenvalues --   -1.59889  -1.39443  -1.19399  -1.08796  -1.08048
 Alpha  occ. eigenvalues --   -1.04801  -1.03074  -0.95645  -0.95474  -0.86489
 Alpha  occ. eigenvalues --   -0.86199  -0.82466  -0.79145  -0.77860  -0.77504
 Alpha  occ. eigenvalues --   -0.72093  -0.71207  -0.70508  -0.65056  -0.64806
 Alpha  occ. eigenvalues --   -0.64691  -0.62149  -0.60487  -0.58870  -0.57095
 Alpha  occ. eigenvalues --   -0.55305  -0.54792  -0.53132  -0.52894  -0.52111
 Alpha  occ. eigenvalues --   -0.51909  -0.49455  -0.48842  -0.48828  -0.47448
 Alpha  occ. eigenvalues --   -0.46216  -0.45391  -0.45337  -0.44835  -0.43282
 Alpha  occ. eigenvalues --   -0.37381  -0.36406
 Alpha virt. eigenvalues --    0.05014   0.11245   0.16503   0.21173   0.23149
 Alpha virt. eigenvalues --    0.24417   0.26889   0.27166   0.27700   0.27837
 Alpha virt. eigenvalues --    0.29069   0.30955   0.31779   0.32093   0.32231

 Mulliken charges:
               1
     1  C   -0.297461
     2  C   -0.299237
     3  C   -0.475390
     4  H    0.149574
     5  H    0.146947
     6  H    0.152390
     7  H    0.150841
     8  H    0.153938
     9  H    0.155203
    10  H    0.159524
    11  C   -0.297363
    12  C   -0.300865
    13  C   -0.475692
    14  H    0.150388
    15  H    0.147304
    16  H    0.151049
    17  H    0.144167
    18  H    0.149582
    19  H    0.156192
    20  H    0.177040
    21  C   -0.170723
    22  C   -0.218727
    23  C   -0.171297
    24  C    0.157913
    25  C   -0.170931
    26  C   -0.218587
    27  H    0.225704
    28  H    0.223581
    29  H    0.276724
    30  H    0.275710
    31  H    0.223567
    32  N    0.493352
    33  O   -0.459972
    34  O   -0.464444
 Sum of Mulliken charges =  -0.00000

 Dipole moment (field-independent basis, Debye):
    X=              2.0182    Y=              4.7746    Z=              0.0333  Tot=              5.1837
 Quadrupole moment (field-independent basis, Debye-Ang):
   XX=            -80.0177   YY=            -95.5533   ZZ=            -94.6673
   XY=             16.7213   XZ=             -1.9195   YZ=              0.3893

 Normal termination of Gaussian 16 at Thu May  6 08:55:49 2021.
