 Gaussian 16, Revision A.03,
 Gaussian 16:  EM64L-G16RevA.03 25-Dec-2016

 -------------
 #p 6-31g* mp2
 -------------

 ------------------------------------------------------
 Input file generated by CHIRIPA (05-May-2021 14:57:24)
 ------------------------------------------------------
 Symbolic Z-matrix:
 Charge =  0 Multiplicity = 1

                         Standard orientation:
 ---------------------------------------------------------------------
 Center     Atomic      Atomic             Coordinates (Angstroms)
 Number     Number       Type             X           Y           Z
 ---------------------------------------------------------------------
      1          6           0       -3.588329    2.156041    0.824414
      2          6           0       -4.092566    1.744400   -0.413657
      3          6           0       -3.719009    0.512160   -0.958256
      4          6           0       -2.835340   -0.286925   -0.234460
      5          6           0       -2.315783    0.095301    1.001361
      6          6           0       -2.703108    1.331631    1.526733
      7          1           0       -3.883865    3.114863    1.240003
      8          1           0       -4.780197    2.382586   -0.961313
      9          1           0       -4.094218    0.168862   -1.914699
     10          1           0       -1.631976   -0.562602    1.523846
     11          1           0       -2.309923    1.648736    2.488448
     12          7           0       -2.432584   -1.593607   -0.800825
     13          8           0       -1.652671   -2.279259   -0.143365
     14          8           0       -2.904444   -1.907391   -1.891479
     15          6           0        3.831921    1.923220   -1.298339
     16          6           0        4.211020    0.597255   -1.532060
     17          6           0        3.701923   -0.436765   -0.740752
     18          6           0        2.811790   -0.107443    0.280277
     19          6           0        2.414949    1.203819    0.537957
     20          6           0        2.936674    2.221743   -0.265898
     21          1           0        4.232305    2.720220   -1.917920
     22          1           0        4.906111    0.362469   -2.333164
     23          1           0        3.978523   -1.471955   -0.899791
     24          1           0        1.720268    1.406782    1.343962
     25          1           0        2.640491    3.250595   -0.082092
     26          7           0        2.266148   -1.193594    1.124641
     27          8           0        1.483442   -0.877216    2.017901
     28          8           0        2.631510   -2.340731    0.877204
 ---------------------------------------------------------------------

 SCF Done:  E(RHF) =  -868.338073650     A.U. after   16 cycles
 E2 =    -0.2599731870D+01 EUMP2 =    -0.87093780552052D+03

 The electronic state is 1-A.
 Alpha  occ. eigenvalues --  -20.60709 -20.60616 -20.60252 -20.60205 -15.85712
 Alpha  occ. eigenvalues --  -15.85284 -11.31125 -11.30748 -11.27757 -11.27657
 Alpha  occ. eigenvalues --  -11.27458 -11.27412 -11.27210 -11.27189 -11.26769
 Alpha  occ. eigenvalues --  -11.26699 -11.26451 -11.26371  -1.59702  -1.59316
 Alpha  occ. eigenvalues --   -1.39269  -1.38858  -1.19300  -1.18962  -1.08684
 Alpha  occ. eigenvalues --   -1.08355  -1.04720  -1.04367  -0.95515  -0.95153
 Alpha  occ. eigenvalues --   -0.86117  -0.85765  -0.82358  -0.81971  -0.77398
 Alpha  occ. eigenvalues --   -0.76981  -0.71946  -0.71495  -0.70999  -0.70650
 Alpha  occ. eigenvalues --   -0.70422  -0.70059  -0.64964  -0.64732  -0.64607
 Alpha  occ. eigenvalues --   -0.64371  -0.62077  -0.61673  -0.55222  -0.54904
 Alpha  occ. eigenvalues --   -0.53035  -0.52826  -0.52721  -0.52445  -0.48699
 Alpha  occ. eigenvalues --   -0.48667  -0.48284  -0.48231  -0.44658  -0.44241
 Alpha  occ. eigenvalues --   -0.37278  -0.36996  -0.36324  -0.35986
 Alpha virt. eigenvalues --    0.05129   0.05526   0.11319   0.11668   0.16587
 Alpha virt. eigenvalues --    0.16958   0.21295   0.21891   0.27064   0.27636
 Alpha virt. eigenvalues --    0.28318   0.28956   0.31027   0.31341   0.32539

 Mulliken charges:
               1
     1  C   -0.171804
     2  C   -0.219776
     3  C   -0.171449
     4  C    0.155998
     5  C   -0.177302
     6  C   -0.223583
     7  H    0.222748
     8  H    0.220959
     9  H    0.274059
    10  H    0.294595
    11  H    0.223547
    12  N    0.486459
    13  O   -0.452109
    14  O   -0.464711
    15  C   -0.170895
    16  C   -0.218229
    17  C   -0.169157
    18  C    0.160523
    19  C   -0.170436
    20  C   -0.218090
    21  H    0.225060
    22  H    0.224229
    23  H    0.278055
    24  H    0.269283
    25  H    0.220957
    26  N    0.492072
    27  O   -0.469847
    28  O   -0.451159
 Sum of Mulliken charges =  -0.00000

 Dipole moment (field-independent basis, Debye):
    X=              0.7544    Y=              8.1340    Z=             -0.9642  Tot=              8.2256
 Quadrupole moment (field-independent basis, Debye-Ang):
   XX=            -84.3358   YY=           -106.8465   ZZ=           -103.8707
   XY=             -4.8277   XZ=            -12.7254   YZ=              0.7582

 Normal termination of Gaussian 16 at Wed May  5 17:55:28 2021.
