 Gaussian 16, Revision A.03,
 Gaussian 16:  EM64L-G16RevA.03 25-Dec-2016

 -------------
 #p 6-31g* mp2
 -------------

 ------------------------------------------------------
 Input file generated by CHIRIPA (05-May-2021 14:57:26)
 ------------------------------------------------------
 Symbolic Z-matrix:
 Charge =  0 Multiplicity = 1

                         Standard orientation:
 ---------------------------------------------------------------------
 Center     Atomic      Atomic             Coordinates (Angstroms)
 Number     Number       Type             X           Y           Z
 ---------------------------------------------------------------------
      1          6           0        3.767946    2.312395   -0.941579
      2          6           0        4.680819    1.255716   -1.022898
      3          6           0        4.388538    0.018571   -0.441011
      4          6           0        3.168569   -0.127614    0.217469
      5          6           0        2.238433    0.906083    0.315485
      6          6           0        2.551810    2.134520   -0.273825
      7          1           0        4.003191    3.270057   -1.396486
      8          1           0        5.626054    1.390985   -1.540854
      9          1           0        5.077060   -0.816328   -0.488968
     10          1           0        1.304267    0.740992    0.838455
     11          1           0        1.840954    2.953385   -0.209100
     12          7           0        2.847977   -1.432714    0.837416
     13          8           0        1.766351   -1.535966    1.411927
     14          8           0        3.684393   -2.327688    0.737081
     15          6           0       -4.261633    2.041723    0.750925
     16          6           0       -2.888038    1.823045    0.899044
     17          6           0       -2.300912    0.646971    0.422934
     18          6           0       -3.120841   -0.293326   -0.199038
     19          6           0       -4.492406   -0.104496   -0.361649
     20          6           0       -5.058029    1.078951    0.122160
     21          1           0       -4.709373    2.958190    1.123770
     22          1           0       -2.267099    2.568995    1.386938
     23          1           0       -1.240186    0.452051    0.524335
     24          1           0       -5.085603   -0.866549   -0.852374
     25          1           0       -6.125059    1.246093    0.005738
     26          7           0       -2.510660   -1.542286   -0.707149
     27          8           0       -3.254788   -2.355110   -1.251419
     28          8           0       -1.299826   -1.684749   -0.551517
 ---------------------------------------------------------------------

 SCF Done:  E(RHF) =  -868.335456475     A.U. after   16 cycles
 E2 =    -0.2600988880D+01 EUMP2 =    -0.87093644535464D+03

 The electronic state is 1-A.
 Alpha  occ. eigenvalues --  -20.60473 -20.60412 -20.60349 -20.60287 -15.85502
 Alpha  occ. eigenvalues --  -15.85377 -11.31147 -11.31038 -11.27815 -11.27746
 Alpha  occ. eigenvalues --  -11.27721 -11.27593 -11.27537 -11.27421 -11.26872
 Alpha  occ. eigenvalues --  -11.26787 -11.26782 -11.26675  -1.59520  -1.59375
 Alpha  occ. eigenvalues --   -1.39063  -1.38925  -1.19346  -1.19230  -1.08685
 Alpha  occ. eigenvalues --   -1.08563  -1.04805  -1.04697  -0.95480  -0.95356
 Alpha  occ. eigenvalues --   -0.86188  -0.86072  -0.82319  -0.82193  -0.77363
 Alpha  occ. eigenvalues --   -0.77160  -0.71739  -0.71574  -0.70853  -0.70681
 Alpha  occ. eigenvalues --   -0.70505  -0.70315  -0.64997  -0.64887  -0.64862
 Alpha  occ. eigenvalues --   -0.64684  -0.62285  -0.61941  -0.55299  -0.55164
 Alpha  occ. eigenvalues --   -0.53097  -0.53002  -0.52955  -0.52734  -0.48504
 Alpha  occ. eigenvalues --   -0.48483  -0.48374  -0.48317  -0.44419  -0.44237
 Alpha  occ. eigenvalues --   -0.37326  -0.37196  -0.36415  -0.36298
 Alpha virt. eigenvalues --    0.05241   0.05357   0.11233   0.11338   0.16678
 Alpha virt. eigenvalues --    0.16820   0.19308   0.22132   0.24836   0.27563
 Alpha virt. eigenvalues --    0.27869   0.29776   0.29997   0.31445   0.31797

 Mulliken charges:
               1
     1  C   -0.171047
     2  C   -0.218048
     3  C   -0.169676
     4  C    0.161634
     5  C   -0.171102
     6  C   -0.219171
     7  H    0.224485
     8  H    0.223525
     9  H    0.276902
    10  H    0.273029
    11  H    0.217411
    12  N    0.488357
    13  O   -0.454761
    14  O   -0.460672
    15  C   -0.170975
    16  C   -0.220762
    17  C   -0.175913
    18  C    0.158702
    19  C   -0.169705
    20  C   -0.218699
    21  H    0.224809
    22  H    0.218099
    23  H    0.281073
    24  H    0.276648
    25  H    0.223598
    26  N    0.485892
    27  O   -0.461752
    28  O   -0.451879
 Sum of Mulliken charges =  -0.00000

 Dipole moment (field-independent basis, Debye):
    X=             -0.9649    Y=              8.7198    Z=             -0.4326  Tot=              8.7837
 Quadrupole moment (field-independent basis, Debye-Ang):
   XX=            -76.2388   YY=           -108.8313   ZZ=           -107.1069
   XY=              0.9412   XZ=            -12.0151   YZ=              0.9707

 Normal termination of Gaussian 16 at Fri May  7 11:15:34 2021.
