 Gaussian 16, Revision A.03,
 Gaussian 16:  EM64L-G16RevA.03 25-Dec-2016

 -------------
 #p 6-31g* mp2
 -------------

 ------------------------------------------------------
 Input file generated by CHIRIPA (05-May-2021 14:55:24)
 ------------------------------------------------------
 Symbolic Z-matrix:
 Charge =  0 Multiplicity = 1

                         Standard orientation:
 ---------------------------------------------------------------------
 Center     Atomic      Atomic             Coordinates (Angstroms)
 Number     Number       Type             X           Y           Z
 ---------------------------------------------------------------------
      1          6           0       -0.574836    0.831270    0.483566
      2          6           0       -0.927970   -0.471986    0.848725
      3          6           0       -2.225699   -0.943720    0.629832
      4          6           0       -3.149221   -0.081380    0.040962
      5          6           0       -2.827883    1.222277   -0.333883
      6          6           0       -1.524246    1.672758   -0.105534
      7          1           0        0.435566    1.189469    0.657280
      8          1           0       -0.192718   -1.127712    1.306407
      9          1           0       -2.525995   -1.948077    0.902794
     10          1           0       -3.582648    1.852602   -0.788238
     11          1           0       -1.252818    2.685364   -0.390142
     12          7           0       -4.526197   -0.569535   -0.195775
     13          8           0       -5.321391    0.209889   -0.716162
     14          8           0       -4.784202   -1.722330    0.143538
     15          6           0        3.240705    0.573006   -0.020878
     16          6           0        3.891419    1.956311   -0.052896
     17          6           0        2.878665    3.089952    0.111364
     18          1           0        2.486488    0.511069   -0.817285
     19          1           0        2.702690    0.450462    0.929341
     20          1           0        4.429200    2.075679   -1.002190
     21          1           0        4.644310    2.014897    0.743557
     22          1           0        2.349755    2.998762    1.065587
     23          1           0        2.133424    3.059889   -0.690079
     24          1           0        3.365322    4.069930    0.085519
     25          6           0        4.240329   -0.570634   -0.183869
     26          6           0        3.589616   -1.953939   -0.151851
     27          6           0        4.602370   -3.087579   -0.316112
     28          1           0        4.778344   -0.448091   -1.134089
     29          1           0        4.994547   -0.508695    0.612537
     30          1           0        2.836725   -2.012525   -0.948306
     31          1           0        3.051835   -2.073306    0.797442
     32          1           0        5.347611   -3.057517    0.485332
     33          1           0        5.131280   -2.996389   -1.270335
     34          1           0        4.115713   -4.067558   -0.290267
 ---------------------------------------------------------------------

 SCF Done:  E(RHF) =  -669.535124571     A.U. after   15 cycles
 E2 =    -0.2092652159D+01 EUMP2 =    -0.67162777673027D+03

 The electronic state is 1-A.
 Alpha  occ. eigenvalues --  -20.60662 -20.60657 -15.85716 -11.31043 -11.27619
 Alpha  occ. eigenvalues --  -11.27615 -11.27213 -11.26596 -11.26585 -11.22789
 Alpha  occ. eigenvalues --  -11.22698 -11.22537 -11.22439 -11.22381 -11.21786
 Alpha  occ. eigenvalues --   -1.59739  -1.39294  -1.19209  -1.09572  -1.08594
 Alpha  occ. eigenvalues --   -1.04615  -1.04603  -0.97068  -0.95444  -0.88083
 Alpha  occ. eigenvalues --   -0.86002  -0.82302  -0.80688  -0.79421  -0.77343
 Alpha  occ. eigenvalues --   -0.71933  -0.71063  -0.70289  -0.66181  -0.64852
 Alpha  occ. eigenvalues --   -0.64614  -0.61987  -0.61963  -0.60463  -0.58685
 Alpha  occ. eigenvalues --   -0.56361  -0.55116  -0.53708  -0.53513  -0.52938
 Alpha  occ. eigenvalues --   -0.52696  -0.51003  -0.48963  -0.48691  -0.48679
 Alpha  occ. eigenvalues --   -0.47713  -0.46864  -0.46816  -0.44863  -0.44708
 Alpha  occ. eigenvalues --   -0.37155  -0.36228
 Alpha virt. eigenvalues --    0.05177   0.11409   0.16619   0.19584   0.22075
 Alpha virt. eigenvalues --    0.22905   0.24547   0.26069   0.26284   0.28292
 Alpha virt. eigenvalues --    0.28975   0.30173   0.30846   0.31240   0.31697

 Mulliken charges:
               1
     1  C   -0.177889
     2  C   -0.223642
     3  C   -0.170782
     4  C    0.157788
     5  C   -0.170680
     6  C   -0.223518
     7  H    0.242895
     8  H    0.223625
     9  H    0.274935
    10  H    0.274913
    11  H    0.223406
    12  N    0.488041
    13  O   -0.460931
    14  O   -0.460953
    15  C   -0.307514
    16  C   -0.298371
    17  C   -0.483492
    18  H    0.153417
    19  H    0.141299
    20  H    0.157383
    21  H    0.156375
    22  H    0.151775
    23  H    0.153140
    24  H    0.168603
    25  C   -0.297600
    26  C   -0.301307
    27  C   -0.476348
    28  H    0.153922
    29  H    0.152606
    30  H    0.154639
    31  H    0.146880
    32  H    0.156732
    33  H    0.157792
    34  H    0.162860
 Sum of Mulliken charges =  -0.00000

 Dipole moment (field-independent basis, Debye):
    X=              5.2338    Y=              1.7228    Z=              0.7455  Tot=              5.5603
 Quadrupole moment (field-independent basis, Debye-Ang):
   XX=           -124.8402   YY=            -91.6560   ZZ=            -93.6482
   XY=             -6.4480   XZ=             -1.9655   YZ=             -2.1410

 Normal termination of Gaussian 16 at Thu May  6 07:55:19 2021.
