 Gaussian 16, Revision A.03,
 Gaussian 16:  EM64L-G16RevA.03 25-Dec-2016

 -------------
 #p 6-31g* mp2
 -------------

 ------------------------------------------------------
 Input file generated by CHIRIPA (05-May-2021 14:57:22)
 ------------------------------------------------------
 Symbolic Z-matrix:
 Charge =  0 Multiplicity = 1

                         Standard orientation:
 ---------------------------------------------------------------------
 Center     Atomic      Atomic             Coordinates (Angstroms)
 Number     Number       Type             X           Y           Z
 ---------------------------------------------------------------------
      1          6           0       -2.197905    2.605114   -0.421738
      2          6           0       -3.507399    2.371452    0.010869
      3          6           0       -4.000110    1.066900    0.110510
      4          6           0       -3.152158    0.014802   -0.232065
      5          6           0       -1.842771    0.215266   -0.666358
      6          6           0       -1.371228    1.528174   -0.758377
      7          1           0       -1.823377    3.621767   -0.496181
      8          1           0       -4.151656    3.205886    0.272971
      9          1           0       -5.009724    0.857471    0.442529
     10          1           0       -1.224239   -0.636893   -0.920643
     11          1           0       -0.353822    1.706648   -1.094648
     12          7           0       -3.662565   -1.370691   -0.130614
     13          8           0       -2.895513   -2.280407   -0.438326
     14          8           0       -4.820008   -1.520691    0.254694
     15          6           0        0.854294   -0.900918    1.264956
     16          6           0        1.517173    0.246205    1.713534
     17          6           0        2.744258    0.620224    1.157728
     18          6           0        3.282053   -0.179558    0.150546
     19          6           0        2.645891   -1.328158   -0.317756
     20          6           0        1.419772   -1.683059    0.252528
     21          1           0       -0.098561   -1.184039    1.702344
     22          1           0        1.080383    0.855523    2.499658
     23          1           0        3.278861    1.503264    1.486143
     24          1           0        3.106256   -1.915563   -1.102890
     25          1           0        0.907216   -2.574456   -0.097820
     26          7           0        4.580603    0.206280   -0.445525
     27          8           0        5.033335   -0.515208   -1.331598
     28          8           0        5.121084    1.222882   -0.015365
 ---------------------------------------------------------------------

 SCF Done:  E(RHF) =  -868.338373196     A.U. after   16 cycles
 E2 =    -0.2602011182D+01 EUMP2 =    -0.87094038437839D+03

 The electronic state is 1-A.
 Alpha  occ. eigenvalues --  -20.61603 -20.61558 -20.61160 -20.61150 -15.86623
 Alpha  occ. eigenvalues --  -15.86214 -11.31835 -11.31621 -11.28363 -11.28330
 Alpha  occ. eigenvalues --  -11.28224 -11.28177 -11.28052 -11.27844 -11.27345
 Alpha  occ. eigenvalues --  -11.27286 -11.27177 -11.27078  -1.60656  -1.60236
 Alpha  occ. eigenvalues --   -1.40215  -1.39787  -1.19999  -1.19802  -1.09407
 Alpha  occ. eigenvalues --   -1.09172  -1.05349  -1.05194  -0.96278  -0.95983
 Alpha  occ. eigenvalues --   -0.86778  -0.86545  -0.83092  -0.82808  -0.78176
 Alpha  occ. eigenvalues --   -0.77863  -0.72839  -0.72423  -0.71991  -0.71570
 Alpha  occ. eigenvalues --   -0.71137  -0.70780  -0.65625  -0.65453  -0.65319
 Alpha  occ. eigenvalues --   -0.65103  -0.62721  -0.62489  -0.55860  -0.55618
 Alpha  occ. eigenvalues --   -0.53918  -0.53456  -0.53290  -0.53227  -0.49611
 Alpha  occ. eigenvalues --   -0.49571  -0.49186  -0.49180  -0.45648  -0.45184
 Alpha  occ. eigenvalues --   -0.38117  -0.37972  -0.36874  -0.36526
 Alpha virt. eigenvalues --    0.04117   0.04844   0.10314   0.10986   0.15767
 Alpha virt. eigenvalues --    0.16277   0.20685   0.21381   0.26293   0.27106
 Alpha virt. eigenvalues --    0.27890   0.28168   0.30468   0.30858   0.31559

 Mulliken charges:
               1
     1  C   -0.172553
     2  C   -0.218944
     3  C   -0.171451
     4  C    0.154995
     5  C   -0.176042
     6  C   -0.219346
     7  H    0.228240
     8  H    0.225378
     9  H    0.276495
    10  H    0.275482
    11  H    0.229604
    12  N    0.488044
    13  O   -0.466965
    14  O   -0.456410
    15  C   -0.173563
    16  C   -0.219656
    17  C   -0.174830
    18  C    0.156443
    19  C   -0.172311
    20  C   -0.231330
    21  H    0.234888
    22  H    0.224833
    23  H    0.275563
    24  H    0.278160
    25  H    0.236632
    26  N    0.488008
    27  O   -0.458665
    28  O   -0.460703
 Sum of Mulliken charges =  -0.00000

 Dipole moment (field-independent basis, Debye):
    X=             -2.7951    Y=              3.5388    Z=              1.7721  Tot=              4.8452
 Quadrupole moment (field-independent basis, Debye-Ang):
   XX=           -143.0651   YY=           -100.8226   ZZ=           -102.8029
   XY=            -21.0937   XZ=              5.4412   YZ=              1.5361

 Normal termination of Gaussian 16 at Thu May  6 14:34:59 2021.
