 Gaussian 16, Revision A.03,
 Gaussian 16:  EM64L-G16RevA.03 25-Dec-2016

 -------------
 #p 6-31g* mp2
 -------------

 ------------------------------------------------------
 Input file generated by CHIRIPA (05-May-2021 14:57:24)
 ------------------------------------------------------
 Symbolic Z-matrix:
 Charge =  0 Multiplicity = 1

                         Standard orientation:
 ---------------------------------------------------------------------
 Center     Atomic      Atomic             Coordinates (Angstroms)
 Number     Number       Type             X           Y           Z
 ---------------------------------------------------------------------
      1          6           0        3.102924   -2.198065    0.944624
      2          6           0        2.471285   -1.181936    1.669218
      3          6           0        2.507657    0.140476    1.217054
      4          6           0        3.187721    0.412349    0.030931
      5          6           0        3.826781   -0.578059   -0.713370
      6          6           0        3.777466   -1.893421   -0.242264
      7          1           0        3.069642   -3.222608    1.303234
      8          1           0        1.946687   -1.415599    2.591304
      9          1           0        2.027260    0.946529    1.758271
     10          1           0        4.341930   -0.314286   -1.629046
     11          1           0        4.268906   -2.680527   -0.807062
     12          7           0        3.233077    1.808595   -0.457782
     13          8           0        3.838797    2.022074   -1.505716
     14          8           0        2.662048    2.663056    0.216354
     15          6           0       -1.405488   -1.897488   -0.634975
     16          6           0       -2.746943   -2.167201   -0.925280
     17          6           0       -3.738723   -1.224190   -0.639533
     18          6           0       -3.351822   -0.016406   -0.060866
     19          6           0       -2.023761    0.281770    0.240186
     20          6           0       -1.048807   -0.676017   -0.054193
     21          1           0       -0.641585   -2.635781   -0.860303
     22          1           0       -3.026861   -3.114961   -1.376326
     23          1           0       -4.784698   -1.407004   -0.853853
     24          1           0       -1.775452    1.235507    0.689793
     25          1           0       -0.007799   -0.463831    0.172356
     26          7           0       -4.392869    0.989738    0.246210
     27          8           0       -4.026067    2.046230    0.756031
     28          8           0       -5.555931    0.702811   -0.028739
 ---------------------------------------------------------------------

 SCF Done:  E(RHF) =  -868.336859806     A.U. after   16 cycles
 E2 =    -0.2601744818D+01 EUMP2 =    -0.87093860462375D+03

 The electronic state is 1-A.
 Alpha  occ. eigenvalues --  -20.61594 -20.61586 -20.60707 -20.60695 -15.86655
 Alpha  occ. eigenvalues --  -15.85756 -11.32290 -11.31170 -11.28841 -11.28800
 Alpha  occ. eigenvalues --  -11.28587 -11.27908 -11.27870 -11.27753 -11.27699
 Alpha  occ. eigenvalues --  -11.27514 -11.26804 -11.26631  -1.60666  -1.59778
 Alpha  occ. eigenvalues --   -1.40211  -1.39330  -1.20482  -1.19343  -1.09800
 Alpha  occ. eigenvalues --   -1.08738  -1.05903  -1.04746  -0.96594  -0.95565
 Alpha  occ. eigenvalues --   -0.87252  -0.86150  -0.83405  -0.82393  -0.78422
 Alpha  occ. eigenvalues --   -0.77431  -0.72855  -0.72008  -0.71971  -0.71513
 Alpha  occ. eigenvalues --   -0.71103  -0.70474  -0.66089  -0.65832  -0.64993
 Alpha  occ. eigenvalues --   -0.64790  -0.63195  -0.62120  -0.56328  -0.55308
 Alpha  occ. eigenvalues --   -0.54335  -0.53926  -0.53089  -0.52677  -0.49637
 Alpha  occ. eigenvalues --   -0.49604  -0.48736  -0.48726  -0.45557  -0.44724
 Alpha  occ. eigenvalues --   -0.38475  -0.37536  -0.37308  -0.36341
 Alpha virt. eigenvalues --    0.04067   0.05097   0.10024   0.11311   0.15520
 Alpha virt. eigenvalues --    0.16590   0.20343   0.21590   0.26115   0.27060
 Alpha virt. eigenvalues --    0.27817   0.28383   0.30142   0.31223   0.31687

 Mulliken charges:
               1
     1  C   -0.174932
     2  C   -0.218937
     3  C   -0.192142
     4  C    0.164486
     5  C   -0.171066
     6  C   -0.218719
     7  H    0.228912
     8  H    0.229641
     9  H    0.279270
    10  H    0.279560
    11  H    0.227155
    12  N    0.488018
    13  O   -0.456225
    14  O   -0.457874
    15  C   -0.175460
    16  C   -0.218286
    17  C   -0.171566
    18  C    0.159242
    19  C   -0.174882
    20  C   -0.226998
    21  H    0.222106
    22  H    0.221953
    23  H    0.275423
    24  H    0.278112
    25  H    0.234949
    26  N    0.487939
    27  O   -0.458649
    28  O   -0.461030
 Sum of Mulliken charges =  -0.00000

 Dipole moment (field-independent basis, Debye):
    X=              3.8216    Y=             -8.3790    Z=              0.6339  Tot=              9.2311
 Quadrupole moment (field-independent basis, Debye-Ang):
   XX=           -126.5360   YY=           -107.2288   ZZ=           -101.6288
   XY=             -2.6514   XZ=              7.8309   YZ=              3.3312

 Normal termination of Gaussian 16 at Fri May  7 08:03:43 2021.
