 Gaussian 16, Revision A.03,
 Gaussian 16:  EM64L-G16RevA.03 25-Dec-2016

 -------------
 #p 6-31g* mp2
 -------------

 ------------------------------------------------------
 Input file generated by CHIRIPA (05-May-2021 14:55:21)
 ------------------------------------------------------
 Symbolic Z-matrix:
 Charge =  0 Multiplicity = 1

                         Standard orientation:
 ---------------------------------------------------------------------
 Center     Atomic      Atomic             Coordinates (Angstroms)
 Number     Number       Type             X           Y           Z
 ---------------------------------------------------------------------
      1          6           0       -2.022497    1.845463    0.179677
      2          6           0       -3.336695    2.311074    0.067374
      3          6           0       -4.398538    1.412774   -0.074378
      4          6           0       -4.108733    0.049453   -0.100072
      5          6           0       -2.810115   -0.445396    0.009509
      6          6           0       -1.763858    0.471137    0.150438
      7          1           0       -1.203686    2.550366    0.289473
      8          1           0       -3.540528    3.377843    0.089763
      9          1           0       -5.425431    1.745926   -0.163358
     10          1           0       -2.638224   -1.514607   -0.016161
     11          1           0       -0.744229    0.106675    0.237440
     12          7           0       -5.224608   -0.911188   -0.249702
     13          8           0       -4.942864   -2.107376   -0.269509
     14          8           0       -6.359846   -0.449761   -0.344342
     15          6           0        5.665017   -0.424732   -0.286917
     16          6           0        6.775061    0.602929   -0.063981
     17          6           0        8.051524    0.271552   -0.837690
     18          1           0        6.028402   -1.417911    0.010560
     19          1           0        5.439289   -0.483194   -1.360706
     20          1           0        6.997667    0.660440    1.009217
     21          1           0        6.408926    1.593807   -0.361844
     22          1           0        7.851199    0.233903   -1.913355
     23          1           0        8.443285   -0.704769   -0.534504
     24          1           0        8.831825    1.019067   -0.663875
     25          6           0        4.382529   -0.107181    0.479968
     26          6           0        3.272486   -1.134842    0.257032
     27          6           0        1.996022   -0.803465    1.030742
     28          1           0        4.608257   -0.048719    1.553758
     29          1           0        4.019144    0.885998    0.182491
     30          1           0        3.638620   -2.125720    0.554895
     31          1           0        3.049879   -1.192352   -0.816165
     32          1           0        1.604262    0.172856    0.727555
     33          1           0        2.196347   -0.765816    2.106406
     34          1           0        1.215721   -1.550980    0.856927
 ---------------------------------------------------------------------

 SCF Done:  E(RHF) =  -669.535355772     A.U. after   15 cycles
 E2 =    -0.2091067969D+01 EUMP2 =    -0.67162642374092D+03

 The electronic state is 1-A.
 Alpha  occ. eigenvalues --  -20.60696 -20.60691 -15.85747 -11.31094 -11.27658
 Alpha  occ. eigenvalues --  -11.27637 -11.27388 -11.26682 -11.26573 -11.22480
 Alpha  occ. eigenvalues --  -11.22308 -11.22119 -11.22089 -11.21939 -11.21469
 Alpha  occ. eigenvalues --   -1.59772  -1.39326  -1.19256  -1.09119  -1.08658
 Alpha  occ. eigenvalues --   -1.04655  -1.04259  -0.96740  -0.95499  -0.87773
 Alpha  occ. eigenvalues --   -0.86051  -0.82330  -0.80335  -0.78890  -0.77378
 Alpha  occ. eigenvalues --   -0.71967  -0.71094  -0.70376  -0.65760  -0.64907
 Alpha  occ. eigenvalues --   -0.64679  -0.62088  -0.61590  -0.60117  -0.58316
 Alpha  occ. eigenvalues --   -0.56048  -0.55159  -0.53517  -0.53164  -0.52989
 Alpha  occ. eigenvalues --   -0.52661  -0.50642  -0.48727  -0.48723  -0.48632
 Alpha  occ. eigenvalues --   -0.47334  -0.46444  -0.46339  -0.44736  -0.44496
 Alpha  occ. eigenvalues --   -0.37243  -0.36255
 Alpha virt. eigenvalues --    0.05148   0.11390   0.16646   0.20297   0.22440
 Alpha virt. eigenvalues --    0.23799   0.25747   0.26210   0.26656   0.27689
 Alpha virt. eigenvalues --    0.28993   0.30479   0.30798   0.31109   0.31935

 Mulliken charges:
               1
     1  C   -0.173731
     2  C   -0.218315
     3  C   -0.171722
     4  C    0.159054
     5  C   -0.173980
     6  C   -0.227031
     7  H    0.224660
     8  H    0.222859
     9  H    0.275161
    10  H    0.275179
    11  H    0.238181
    12  N    0.488024
    13  O   -0.460665
    14  O   -0.460785
    15  C   -0.298978
    16  C   -0.300043
    17  C   -0.476086
    18  H    0.151480
    19  H    0.150500
    20  H    0.152641
    21  H    0.151588
    22  H    0.155807
    23  H    0.156207
    24  H    0.161452
    25  C   -0.299116
    26  C   -0.299675
    27  C   -0.481684
    28  H    0.151156
    29  H    0.148176
    30  H    0.156745
    31  H    0.153743
    32  H    0.147411
    33  H    0.162163
    34  H    0.159624
 Sum of Mulliken charges =  -0.00000

 Dipole moment (field-independent basis, Debye):
    X=              4.2294    Y=              3.3253    Z=              0.5555  Tot=              5.4087
 Quadrupole moment (field-independent basis, Debye-Ang):
   XX=           -125.4113   YY=            -91.4756   ZZ=            -95.2964
   XY=            -16.9196   XZ=             -1.6163   YZ=             -1.0036

 Normal termination of Gaussian 16 at Wed May  5 23:48:16 2021.
