 Gaussian 16, Revision A.03,
 Gaussian 16:  EM64L-G16RevA.03 25-Dec-2016

 -------------
 #p 6-31g* mp2
 -------------

 ------------------------------------------------------
 Input file generated by CHIRIPA (05-May-2021 14:55:24)
 ------------------------------------------------------
 Symbolic Z-matrix:
 Charge =  0 Multiplicity = 1

                         Standard orientation:
 ---------------------------------------------------------------------
 Center     Atomic      Atomic             Coordinates (Angstroms)
 Number     Number       Type             X           Y           Z
 ---------------------------------------------------------------------
      1          6           0       -5.147421    0.781422    0.076837
      2          6           0       -4.836017   -0.542044    0.405450
      3          6           0       -3.515073   -0.996167    0.346925
      4          6           0       -2.526035   -0.095800   -0.046054
      5          6           0       -2.804584    1.228754   -0.379608
      6          6           0       -4.132500    1.661046   -0.313954
      7          1           0       -6.176271    1.125717    0.125070
      8          1           0       -5.622169   -1.227389    0.709279
      9          1           0       -3.246014   -2.015498    0.595900
     10          1           0       -1.999320    1.888573   -0.678948
     11          1           0       -4.371408    2.689418   -0.569728
     12          7           0       -1.123919   -0.565004   -0.111785
     13          8           0       -0.270803    0.247948   -0.460982
     14          8           0       -0.904607   -1.736834    0.187136
     15          6           0        3.263546    0.732264    0.148805
     16          6           0        4.352164    1.803825    0.080601
     17          6           0        3.805317    3.216238    0.289985
     18          1           0        2.498526    0.947007   -0.609861
     19          1           0        2.761438    0.791160    1.124414
     20          1           0        4.852994    1.742019   -0.894061
     21          1           0        5.114779    1.586399    0.839390
     22          1           0        3.322818    3.301318    1.269045
     23          1           0        3.059546    3.457823   -0.474255
     24          1           0        4.600423    3.966497    0.237263
     25          6           0        3.794682   -0.684983   -0.058640
     26          6           0        2.706064   -1.756544    0.009564
     27          6           0        3.252911   -3.168958   -0.199820
     28          1           0        4.296789   -0.743880   -1.034250
     29          1           0        4.559702   -0.899727    0.700026
     30          1           0        1.943448   -1.539119   -0.749225
     31          1           0        2.205234   -1.694738    0.984226
     32          1           0        3.998682   -3.410542    0.564420
     33          1           0        3.735409   -3.254038   -1.178880
     34          1           0        2.457805   -3.919216   -0.147098
 ---------------------------------------------------------------------

 SCF Done:  E(RHF) =  -669.535867186     A.U. after   15 cycles
 E2 =    -0.2092947223D+01 EUMP2 =    -0.67162881440867D+03

 The electronic state is 1-A.
 Alpha  occ. eigenvalues --  -20.61112 -20.61106 -15.86118 -11.31395 -11.27948
 Alpha  occ. eigenvalues --  -11.27944 -11.27675 -11.26942 -11.26932 -11.20365
 Alpha  occ. eigenvalues --  -11.20133 -11.19665 -11.19581 -11.19383 -11.19281
 Alpha  occ. eigenvalues --   -1.60152  -1.39710  -1.19555  -1.08969  -1.06752
 Alpha  occ. eigenvalues --   -1.04942  -1.01948  -0.95818  -0.94469  -0.86345
 Alpha  occ. eigenvalues --   -0.85507  -0.82658  -0.78021  -0.77699  -0.76440
 Alpha  occ. eigenvalues --   -0.72325  -0.71459  -0.70662  -0.65211  -0.64944
 Alpha  occ. eigenvalues --   -0.63408  -0.62289  -0.59374  -0.57871  -0.56021
 Alpha  occ. eigenvalues --   -0.55445  -0.53798  -0.53277  -0.53032  -0.51240
 Alpha  occ. eigenvalues --   -0.50888  -0.49228  -0.49087  -0.48470  -0.46284
 Alpha  occ. eigenvalues --   -0.45127  -0.45022  -0.43988  -0.43709  -0.42165
 Alpha  occ. eigenvalues --   -0.37530  -0.36540
 Alpha virt. eigenvalues --    0.04798   0.11116   0.16309   0.21247   0.24384
 Alpha virt. eigenvalues --    0.25754   0.27182   0.28012   0.28328   0.29171
 Alpha virt. eigenvalues --    0.29628   0.30899   0.32378   0.32785   0.33178

 Mulliken charges:
               1
     1  C   -0.170382
     2  C   -0.218629
     3  C   -0.170415
     4  C    0.158682
     5  C   -0.170682
     6  C   -0.218573
     7  H    0.226379
     8  H    0.224170
     9  H    0.276020
    10  H    0.275921
    11  H    0.224239
    12  N    0.491716
    13  O   -0.461519
    14  O   -0.457356
    15  C   -0.297610
    16  C   -0.298619
    17  C   -0.473572
    18  H    0.166983
    19  H    0.146140
    20  H    0.147932
    21  H    0.147213
    22  H    0.152564
    23  H    0.153310
    24  H    0.154943
    25  C   -0.299532
    26  C   -0.294863
    27  C   -0.476637
    28  H    0.142105
    29  H    0.140724
    30  H    0.172217
    31  H    0.152372
    32  H    0.146703
    33  H    0.147722
    34  H    0.160337
 Sum of Mulliken charges =  -0.00000

 Dipole moment (field-independent basis, Debye):
    X=             -5.5527    Y=              1.6416    Z=              0.1705  Tot=              5.7928
 Quadrupole moment (field-independent basis, Debye-Ang):
   XX=            -72.2201   YY=            -93.2032   ZZ=            -94.2827
   XY=             -1.9419   XZ=             -0.8844   YZ=             -2.0369

 Normal termination of Gaussian 16 at Wed May  5 19:08:20 2021.
