 Gaussian 16, Revision A.03,
 Gaussian 16:  EM64L-G16RevA.03 25-Dec-2016

 -------------
 #p 6-31g* mp2
 -------------

 ------------------------------------------------------
 Input file generated by CHIRIPA (05-May-2021 14:53:13)
 ------------------------------------------------------
 Symbolic Z-matrix:
 Charge =  0 Multiplicity = 1

                         Standard orientation:
 ---------------------------------------------------------------------
 Center     Atomic      Atomic             Coordinates (Angstroms)
 Number     Number       Type             X           Y           Z
 ---------------------------------------------------------------------
      1          6           0        2.401111   -0.613277   -0.142649
      2          6           0        2.821692   -1.864236   -0.914787
      3          6           0        1.867329   -3.039539   -0.701132
      4          1           0        2.345659   -0.852444    0.928177
      5          1           0        1.386951   -0.324073   -0.451252
      6          1           0        3.835294   -2.150189   -0.605828
      7          1           0        2.876335   -1.622013   -1.983880
      8          1           0        0.855357   -2.778217   -1.027052
      9          1           0        1.819766   -3.309394    0.358829
     10          1           0        2.186851   -3.923267   -1.262194
     11          6           0        3.345353    0.570251   -0.346110
     12          6           0        2.924773    1.821211    0.426029
     13          6           0        3.879135    2.996514    0.212373
     14          1           0        4.359513    0.281048   -0.037506
     15          1           0        3.400805    0.809418   -1.416936
     16          1           0        2.870130    1.578988    1.495121
     17          1           0        1.911170    2.107164    0.117069
     18          1           0        3.926699    3.266368   -0.847588
     19          1           0        4.891107    2.735191    0.538294
     20          1           0        3.559613    3.880242    0.773436
     21          6           0       -3.291130    1.957376   -1.035914
     22          6           0       -2.718045    2.153378    0.224910
     23          6           0       -2.135438    1.085415    0.913801
     24          6           0       -2.143549   -0.170801    0.309527
     25          6           0       -2.706580   -0.397923   -0.945343
     26          6           0       -3.283583    0.684595   -1.615994
     27          1           0       -3.741537    2.792648   -1.563977
     28          1           0       -2.722461    3.140737    0.677842
     29          1           0       -1.684760    1.209058    1.891053
     30          1           0       -2.686944   -1.393757   -1.371193
     31          1           0       -3.727914    0.529432   -2.595045
     32          7           0       -1.529735   -1.309109    1.029170
     33          8           0       -1.549742   -2.406055    0.475143
     34          8           0       -1.040245   -1.082816    2.133629
 ---------------------------------------------------------------------

 SCF Done:  E(RHF) =  -669.536133454     A.U. after   15 cycles
 E2 =    -0.2092509461D+01 EUMP2 =    -0.67162864291454D+03

 The electronic state is 1-A.
 Alpha  occ. eigenvalues --  -20.60892 -20.60886 -15.85909 -11.31279 -11.27841
 Alpha  occ. eigenvalues --  -11.27833 -11.27576 -11.26850 -11.26839 -11.21363
 Alpha  occ. eigenvalues --  -11.20990 -11.20942 -11.20837 -11.20743 -11.19837
 Alpha  occ. eigenvalues --   -1.59941  -1.39499  -1.19443  -1.08839  -1.07921
 Alpha  occ. eigenvalues --   -1.04841  -1.02965  -0.95678  -0.95383  -0.86395
 Alpha  occ. eigenvalues --   -0.86239  -0.82508  -0.79056  -0.77711  -0.77548
 Alpha  occ. eigenvalues --   -0.72139  -0.71246  -0.70546  -0.65097  -0.64842
 Alpha  occ. eigenvalues --   -0.64560  -0.62187  -0.60367  -0.58825  -0.56993
 Alpha  occ. eigenvalues --   -0.55342  -0.54669  -0.53172  -0.52932  -0.52096
 Alpha  occ. eigenvalues --   -0.51794  -0.49326  -0.48909  -0.48893  -0.47347
 Alpha  occ. eigenvalues --   -0.46128  -0.45279  -0.45170  -0.44716  -0.43233
 Alpha  occ. eigenvalues --   -0.37415  -0.36442
 Alpha virt. eigenvalues --    0.04942   0.11198   0.16399   0.21315   0.23242
 Alpha virt. eigenvalues --    0.24780   0.26882   0.27212   0.27669   0.28243
 Alpha virt. eigenvalues --    0.28808   0.30867   0.31793   0.32147   0.32402

 Mulliken charges:
               1
     1  C   -0.298554
     2  C   -0.300458
     3  C   -0.477598
     4  H    0.159925
     5  H    0.140976
     6  H    0.149400
     7  H    0.146149
     8  H    0.163002
     9  H    0.164610
    10  H    0.153691
    11  C   -0.297589
    12  C   -0.299368
    13  C   -0.475143
    14  H    0.149657
    15  H    0.146829
    16  H    0.154529
    17  H    0.147412
    18  H    0.153688
    19  H    0.156046
    20  H    0.157336
    21  C   -0.170687
    22  C   -0.218731
    23  C   -0.170770
    24  C    0.158250
    25  C   -0.171976
    26  C   -0.218497
    27  H    0.225966
    28  H    0.223958
    29  H    0.276360
    30  H    0.275772
    31  H    0.223789
    32  N    0.489667
    33  O   -0.458489
    34  O   -0.459152
 Sum of Mulliken charges =  -0.00000

 Dipole moment (field-independent basis, Debye):
    X=             -2.3256    Y=              3.9060    Z=             -2.3892  Tot=              5.1355
 Quadrupole moment (field-independent basis, Debye-Ang):
   XX=            -86.3269   YY=            -95.5467   ZZ=            -93.1649
   XY=             -8.4366   XZ=              6.7922   YZ=              3.8796

 Normal termination of Gaussian 16 at Wed May  5 18:35:43 2021.
