 Gaussian 16, Revision A.03,
 Gaussian 16:  EM64L-G16RevA.03 25-Dec-2016

 -------------
 #p 6-31g* mp2
 -------------

 ------------------------------------------------------
 Input file generated by CHIRIPA (05-May-2021 14:55:21)
 ------------------------------------------------------
 Symbolic Z-matrix:
 Charge =  0 Multiplicity = 1

                         Standard orientation:
 ---------------------------------------------------------------------
 Center     Atomic      Atomic             Coordinates (Angstroms)
 Number     Number       Type             X           Y           Z
 ---------------------------------------------------------------------
      1          6           0       -4.827605   -1.825005    0.670429
      2          6           0       -3.527530   -1.806019    1.186148
      3          6           0       -2.613360   -0.832920    0.771517
      4          6           0       -3.034830    0.110237   -0.164489
      5          6           0       -4.323208    0.117596   -0.696765
      6          6           0       -5.220602   -0.864830   -0.267728
      7          1           0       -5.531238   -2.584554    0.998120
      8          1           0       -3.219556   -2.550456    1.914853
      9          1           0       -1.600780   -0.795038    1.154487
     10          1           0       -4.601055    0.872834   -1.421910
     11          1           0       -6.229617   -0.877144   -0.669949
     12          7           0       -2.075920    1.145350   -0.611066
     13          8           0       -2.471852    1.965173   -1.436756
     14          8           0       -0.946550    1.117248   -0.126947
     15          6           0        3.994075    0.671391    0.587328
     16          6           0        2.776847    1.531491    0.245904
     17          6           0        2.604546    2.716142    1.197065
     18          1           0        3.898327    0.304631    1.618476
     19          1           0        4.896214    1.298166    0.561012
     20          1           0        1.877441    0.902976    0.271502
     21          1           0        2.875413    1.896087   -0.784615
     22          1           0        3.484549    3.366679    1.165510
     23          1           0        2.480907    2.367925    2.227628
     24          1           0        1.728520    3.317498    0.934750
     25          6           0        4.179673   -0.516863   -0.354656
     26          6           0        5.396901   -1.376963   -0.013231
     27          6           0        5.569203   -2.561614   -0.964392
     28          1           0        3.277535   -1.143639   -0.328339
     29          1           0        4.275423   -0.150104   -1.385803
     30          1           0        5.298336   -1.741560    1.017288
     31          1           0        6.296308   -0.748449   -0.038829
     32          1           0        5.692841   -2.213398   -1.994955
     33          1           0        4.689199   -3.212151   -0.932837
     34          1           0        6.445229   -3.162971   -0.702077
 ---------------------------------------------------------------------

 SCF Done:  E(RHF) =  -669.535935351     A.U. after   15 cycles
 E2 =    -0.2090907728D+01 EUMP2 =    -0.67162684307822D+03

 The electronic state is 1-A.
 Alpha  occ. eigenvalues --  -20.60924 -20.60918 -15.85967 -11.31296 -11.27865
 Alpha  occ. eigenvalues --  -11.27856 -11.27599 -11.26871 -11.26861 -11.21100
 Alpha  occ. eigenvalues --  -11.20694 -11.20688 -11.20473 -11.20199 -11.19816
 Alpha  occ. eigenvalues --   -1.59988  -1.39545  -1.19466  -1.08867  -1.07605
 Alpha  occ. eigenvalues --   -1.04865  -1.02644  -0.95709  -0.95139  -0.86264
 Alpha  occ. eigenvalues --   -0.86169  -0.82546  -0.78750  -0.77609  -0.77327
 Alpha  occ. eigenvalues --   -0.72191  -0.71305  -0.70575  -0.65124  -0.64868
 Alpha  occ. eigenvalues --   -0.64249  -0.62213  -0.60048  -0.58533  -0.56690
 Alpha  occ. eigenvalues --   -0.55367  -0.54461  -0.53195  -0.52957  -0.51821
 Alpha  occ. eigenvalues --   -0.51561  -0.49135  -0.48944  -0.48938  -0.47048
 Alpha  occ. eigenvalues --   -0.45803  -0.45017  -0.44885  -0.44716  -0.42911
 Alpha  occ. eigenvalues --   -0.37444  -0.36466
 Alpha virt. eigenvalues --    0.04934   0.11189   0.16428   0.21258   0.23579
 Alpha virt. eigenvalues --    0.25121   0.27063   0.27416   0.27908   0.28649
 Alpha virt. eigenvalues --    0.28799   0.30789   0.31969   0.32327   0.32887

 Mulliken charges:
               1
     1  C   -0.170647
     2  C   -0.218475
     3  C   -0.170459
     4  C    0.157637
     5  C   -0.170690
     6  C   -0.218530
     7  H    0.226006
     8  H    0.223773
     9  H    0.275002
    10  H    0.275905
    11  H    0.223840
    12  N    0.495152
    13  O   -0.459194
    14  O   -0.466646
    15  C   -0.298168
    16  C   -0.302794
    17  C   -0.475681
    18  H    0.144649
    19  H    0.146150
    20  H    0.170091
    21  H    0.151503
    22  H    0.148321
    23  H    0.148219
    24  H    0.170429
    25  C   -0.296767
    26  C   -0.298777
    27  C   -0.474964
    28  H    0.147520
    29  H    0.150112
    30  H    0.149524
    31  H    0.151335
    32  H    0.155292
    33  H    0.153180
    34  H    0.158154
 Sum of Mulliken charges =  -0.00000

 Dipole moment (field-independent basis, Debye):
    X=             -3.6997    Y=             -3.5937    Z=              1.4974  Tot=              5.3707
 Quadrupole moment (field-independent basis, Debye-Ang):
   XX=            -72.9889   YY=            -96.0869   ZZ=            -94.2008
   XY=             10.0182   XZ=             -2.3278   YZ=             -1.7845

 Normal termination of Gaussian 16 at Wed May  5 15:56:39 2021.
