 Gaussian 16, Revision A.03,
 Gaussian 16:  EM64L-G16RevA.03 25-Dec-2016

 -------------
 #p 6-31g* mp2
 -------------

 ------------------------------------------------------
 Input file generated by CHIRIPA (05-May-2021 14:57:22)
 ------------------------------------------------------
 Symbolic Z-matrix:
 Charge =  0 Multiplicity = 1

                         Standard orientation:
 ---------------------------------------------------------------------
 Center     Atomic      Atomic             Coordinates (Angstroms)
 Number     Number       Type             X           Y           Z
 ---------------------------------------------------------------------
      1          6           0       -5.151729   -0.080035    0.714608
      2          6           0       -4.566210    1.011863    0.065419
      3          6           0       -3.299555    0.897056   -0.515057
      4          6           0       -2.643734   -0.329923   -0.427237
      5          6           0       -3.200670   -1.436067    0.212730
      6          6           0       -4.468295   -1.298368    0.786065
      7          1           0       -6.136074    0.018041    1.162762
      8          1           0       -5.094652    1.959250    0.008386
      9          1           0       -2.822943    1.726256   -1.023670
     10          1           0       -2.649430   -2.367678    0.253380
     11          1           0       -4.920573   -2.148039    1.289602
     12          7           0       -1.302270   -0.463581   -1.037981
     13          8           0       -0.745144   -1.555350   -0.946931
     14          8           0       -0.833356    0.525956   -1.596168
     15          6           0        1.150321    2.092775    0.817094
     16          6           0        1.344359    1.041694    1.719368
     17          6           0        2.291549    0.047209    1.457870
     18          6           0        3.030575    0.135339    0.279158
     19          6           0        2.860393    1.169998   -0.639433
     20          6           0        1.907622    2.153465   -0.357356
     21          1           0        0.412353    2.861035    1.028225
     22          1           0        0.757662    0.992002    2.632255
     23          1           0        2.462188   -0.777584    2.139057
     24          1           0        3.460340    1.192575   -1.541082
     25          1           0        1.759069    2.968587   -1.059890
     26          7           0        4.036277   -0.911646   -0.008571
     27          8           0        4.674615   -0.811244   -1.054077
     28          8           0        4.167167   -1.812848    0.816860
 ---------------------------------------------------------------------

 SCF Done:  E(RHF) =  -868.337327405     A.U. after   16 cycles
 E2 =    -0.2601593825D+01 EUMP2 =    -0.87093892122971D+03

 The electronic state is 1-A.
 Alpha  occ. eigenvalues --  -20.61167 -20.61159 -20.59720 -20.59707 -15.86198
 Alpha  occ. eigenvalues --  -15.84767 -11.31654 -11.30021 -11.28259 -11.28185
 Alpha  occ. eigenvalues --  -11.27953 -11.27266 -11.27215 -11.26668 -11.26547
 Alpha  occ. eigenvalues --  -11.26429 -11.25740 -11.25585  -1.60221  -1.58784
 Alpha  occ. eigenvalues --   -1.39780  -1.38346  -1.19825  -1.18197  -1.09198
 Alpha  occ. eigenvalues --   -1.07644  -1.05238  -1.03615  -0.96024  -0.94498
 Alpha  occ. eigenvalues --   -0.86628  -0.85047  -0.82858  -0.81349  -0.77901
 Alpha  occ. eigenvalues --   -0.76386  -0.72438  -0.71553  -0.71008  -0.70921
 Alpha  occ. eigenvalues --   -0.70081  -0.69414  -0.65473  -0.65231  -0.63901
 Alpha  occ. eigenvalues --   -0.63689  -0.62584  -0.61002  -0.55719  -0.54221
 Alpha  occ. eigenvalues --   -0.53573  -0.53324  -0.51923  -0.51768  -0.49192
 Alpha  occ. eigenvalues --   -0.49145  -0.47756  -0.47752  -0.45188  -0.43780
 Alpha  occ. eigenvalues --   -0.37805  -0.36853  -0.36137  -0.35117
 Alpha virt. eigenvalues --    0.04617   0.06181   0.10797   0.12478   0.16143
 Alpha virt. eigenvalues --    0.17673   0.20949   0.22301   0.26837   0.27790
 Alpha virt. eigenvalues --    0.28262   0.29142   0.30575   0.31690   0.32253

 Mulliken charges:
               1
     1  C   -0.171219
     2  C   -0.218673
     3  C   -0.173543
     4  C    0.158740
     5  C   -0.171663
     6  C   -0.218567
     7  H    0.226781
     8  H    0.223292
     9  H    0.271779
    10  H    0.277994
    11  H    0.225317
    12  N    0.489396
    13  O   -0.456371
    14  O   -0.462346
    15  C   -0.168759
    16  C   -0.224605
    17  C   -0.167174
    18  C    0.163249
    19  C   -0.164388
    20  C   -0.199868
    21  H    0.216561
    22  H    0.215819
    23  H    0.271522
    24  H    0.273693
    25  H    0.219946
    26  N    0.489034
    27  O   -0.461868
    28  O   -0.464077
 Sum of Mulliken charges =  -0.00000

 Dipole moment (field-independent basis, Debye):
    X=             -8.3651    Y=              4.0494    Z=              2.9376  Tot=              9.7469
 Quadrupole moment (field-independent basis, Debye-Ang):
   XX=           -102.5463   YY=            -99.2452   ZZ=           -103.2842
   XY=             11.7143   XZ=             -3.3245   YZ=             -3.9354

 Normal termination of Gaussian 16 at Fri May  7 00:15:02 2021.
