 Gaussian 16, Revision A.03,
 Gaussian 16:  EM64L-G16RevA.03 25-Dec-2016

 -------------
 #p 6-31g* mp2
 -------------

 ------------------------------------------------------
 Input file generated by CHIRIPA (05-May-2021 14:57:26)
 ------------------------------------------------------
 Symbolic Z-matrix:
 Charge =  0 Multiplicity = 1

                         Standard orientation:
 ---------------------------------------------------------------------
 Center     Atomic      Atomic             Coordinates (Angstroms)
 Number     Number       Type             X           Y           Z
 ---------------------------------------------------------------------
      1          6           0       -4.195718    0.926658    0.126838
      2          6           0       -3.497549    0.704290    1.318322
      3          6           0       -2.407658   -0.170746    1.349900
      4          6           0       -2.041549   -0.809516    0.166165
      5          6           0       -2.717101   -0.608748   -1.036586
      6          6           0       -3.803956    0.270586   -1.044748
      7          1           0       -5.041192    1.608076    0.111403
      8          1           0       -3.799557    1.212426    2.229713
      9          1           0       -1.849468   -0.361234    2.258501
     10          1           0       -2.392448   -1.129796   -1.929070
     11          1           0       -4.344308    0.441358   -1.971517
     12          7           0       -0.889337   -1.738152    0.187201
     13          8           0       -0.586716   -2.288656   -0.869210
     14          8           0       -0.310671   -1.897929    1.259700
     15          6           0        3.627631   -1.425621    0.122795
     16          6           0        3.659681   -0.422303    1.096882
     17          6           0        2.890232    0.735568    0.949131
     18          6           0        2.096469    0.857753   -0.190299
     19          6           0        2.043109   -0.124202   -1.178331
     20          6           0        2.820870   -1.273636   -1.009705
     21          1           0        4.228586   -2.321807    0.245679
     22          1           0        4.285294   -0.537632    1.977423
     23          1           0        2.896136    1.527901    1.687773
     24          1           0        1.409689    0.019262   -2.045288
     25          1           0        2.793999   -2.051193   -1.767815
     26          7           0        1.277488    2.079074   -0.357766
     27          8           0        0.586438    2.162661   -1.370731
     28          8           0        1.342129    2.929635    0.527111
 ---------------------------------------------------------------------

 SCF Done:  E(RHF) =  -868.339685090     A.U. after   16 cycles
 E2 =    -0.2601782197D+01 EUMP2 =    -0.87094146728712D+03

 The electronic state is 1-A.
 Alpha  occ. eigenvalues --  -20.60897 -20.60848 -20.60266 -20.60261 -15.85873
 Alpha  occ. eigenvalues --  -15.85300 -11.30907 -11.30251 -11.27456 -11.27446
 Alpha  occ. eigenvalues --  -11.27119 -11.26786 -11.26699 -11.26393 -11.26383
 Alpha  occ. eigenvalues --  -11.26373 -11.25736 -11.25595  -1.59927  -1.59350
 Alpha  occ. eigenvalues --   -1.39498  -1.38915  -1.19042  -1.18359  -1.08508
 Alpha  occ. eigenvalues --   -1.07838  -1.04402  -1.03692  -0.95405  -0.94751
 Alpha  occ. eigenvalues --   -0.85830  -0.85138  -0.82265  -0.81598  -0.77346
 Alpha  occ. eigenvalues --   -0.76698  -0.72140  -0.71542  -0.71299  -0.70626
 Alpha  occ. eigenvalues --   -0.70176  -0.69490  -0.64716  -0.64425  -0.64022
 Alpha  occ. eigenvalues --   -0.63716  -0.61778  -0.61075  -0.54934  -0.54239
 Alpha  occ. eigenvalues --   -0.52743  -0.52515  -0.52003  -0.51810  -0.48900
 Alpha  occ. eigenvalues --   -0.48830  -0.48306  -0.48248  -0.45000  -0.44406
 Alpha  occ. eigenvalues --   -0.36997  -0.36297  -0.35960  -0.35167
 Alpha virt. eigenvalues --    0.05076   0.05878   0.11675   0.12395   0.16710
 Alpha virt. eigenvalues --    0.17461   0.21742   0.22450   0.27623   0.28221
 Alpha virt. eigenvalues --    0.28674   0.29268   0.31273   0.31978   0.32634

 Mulliken charges:
               1
     1  C   -0.167514
     2  C   -0.215616
     3  C   -0.170197
     4  C    0.157335
     5  C   -0.165910
     6  C   -0.215174
     7  H    0.226267
     8  H    0.223866
     9  H    0.273620
    10  H    0.271740
    11  H    0.223484
    12  N    0.488651
    13  O   -0.468544
    14  O   -0.459879
    15  C   -0.165889
    16  C   -0.214716
    17  C   -0.170589
    18  C    0.154033
    19  C   -0.172781
    20  C   -0.201501
    21  H    0.223948
    22  H    0.219603
    23  H    0.270063
    24  H    0.272000
    25  H    0.226306
    26  N    0.487786
    27  O   -0.465626
    28  O   -0.464767
 Sum of Mulliken charges =  -0.00000

 Dipole moment (field-independent basis, Debye):
    X=             -1.2898    Y=             -1.2143    Z=              0.5035  Tot=              1.8416
 Quadrupole moment (field-independent basis, Debye-Ang):
   XX=            -76.1203   YY=           -118.3930   ZZ=            -96.7834
   XY=            -10.4862   XZ=              2.5391   YZ=              4.7954

 Normal termination of Gaussian 16 at Thu May  6 22:55:44 2021.
