 Gaussian 16, Revision A.03,
 Gaussian 16:  EM64L-G16RevA.03 25-Dec-2016

 -------------
 #p 6-31g* mp2
 -------------

 ------------------------------------------------------
 Input file generated by CHIRIPA (05-May-2021 14:53:16)
 ------------------------------------------------------
 Symbolic Z-matrix:
 Charge =  0 Multiplicity = 1

                         Standard orientation:
 ---------------------------------------------------------------------
 Center     Atomic      Atomic             Coordinates (Angstroms)
 Number     Number       Type             X           Y           Z
 ---------------------------------------------------------------------
      1          6           0        3.094551   -0.261397   -0.379310
      2          6           0        2.013661   -1.298505   -0.072604
      3          6           0        0.664655   -0.950394   -0.702522
      4          1           0        2.762901    0.722044   -0.019037
      5          1           0        3.209376   -0.172829   -1.468514
      6          1           0        1.901879   -1.386095    1.015720
      7          1           0        2.348005   -2.279627   -0.433478
      8          1           0        0.754030   -0.882665   -1.791570
      9          1           0        0.305370    0.015944   -0.334139
     10          1           0       -0.093392   -1.705007   -0.470609
     11          6           0        4.448846   -0.595482    0.243588
     12          6           0        5.529736    0.441626   -0.063118
     13          6           0        6.878742    0.093514    0.566800
     14          1           0        4.334020   -0.684050    1.332792
     15          1           0        4.780496   -1.578924   -0.116685
     16          1           0        5.195391    1.422748    0.297756
     17          1           0        5.641517    0.529216   -1.151441
     18          1           0        7.238027   -0.872824    0.198417
     19          1           0        6.789366    0.025785    1.655848
     20          1           0        7.636788    0.848128    0.334887
     21          6           0       -1.627308    2.467441   -0.224080
     22          6           0       -2.082643    2.085511    1.042143
     23          6           0       -2.814550    0.905881    1.207463
     24          6           0       -3.074187    0.128535    0.079805
     25          6           0       -2.634176    0.482182   -1.194799
     26          6           0       -1.904040    1.665971   -1.336549
     27          1           0       -1.059433    3.385422   -0.343350
     28          1           0       -1.869217    2.705985    1.907883
     29          1           0       -3.179102    0.586486    2.176229
     30          1           0       -2.862600   -0.156978   -2.039023
     31          1           0       -1.551683    1.960096   -2.321119
     32          7           0       -3.848087   -1.122489    0.242345
     33          8           0       -4.063599   -1.789904   -0.766984
     34          8           0       -4.224505   -1.411936    1.375998
 ---------------------------------------------------------------------

 SCF Done:  E(RHF) =  -669.534671903     A.U. after   15 cycles
 E2 =    -0.2093093244D+01 EUMP2 =    -0.67162776514670D+03

 The electronic state is 1-A.
 Alpha  occ. eigenvalues --  -20.60785 -20.60779 -15.85836 -11.31198 -11.27786
 Alpha  occ. eigenvalues --  -11.27740 -11.27527 -11.26827 -11.26760 -11.21831
 Alpha  occ. eigenvalues --  -11.21665 -11.21603 -11.21544 -11.21264 -11.21028
 Alpha  occ. eigenvalues --   -1.59859  -1.39412  -1.19391  -1.08787  -1.08603
 Alpha  occ. eigenvalues --   -1.04792  -1.03665  -0.96122  -0.95613  -0.87143
 Alpha  occ. eigenvalues --   -0.86186  -0.82443  -0.79744  -0.78430  -0.77487
 Alpha  occ. eigenvalues --   -0.72055  -0.71182  -0.70496  -0.65240  -0.65039
 Alpha  occ. eigenvalues --   -0.64792  -0.62133  -0.61080  -0.59491  -0.57747
 Alpha  occ. eigenvalues --   -0.55509  -0.55296  -0.53477  -0.52881  -0.52724
 Alpha  occ. eigenvalues --   -0.52277  -0.49986  -0.48814  -0.48809  -0.48034
 Alpha  occ. eigenvalues --   -0.46750  -0.45958  -0.45893  -0.44817  -0.43937
 Alpha  occ. eigenvalues --   -0.37357  -0.36326
 Alpha virt. eigenvalues --    0.05032   0.11246   0.16495   0.21340   0.22694
 Alpha virt. eigenvalues --    0.24161   0.26417   0.27059   0.27358   0.27942
 Alpha virt. eigenvalues --    0.28357   0.30743   0.31317   0.31707   0.31791

 Mulliken charges:
               1
     1  C   -0.297391
     2  C   -0.300133
     3  C   -0.480665
     4  H    0.145343
     5  H    0.148090
     6  H    0.152200
     7  H    0.153132
     8  H    0.148998
     9  H    0.160883
    10  H    0.163137
    11  C   -0.298218
    12  C   -0.299365
    13  C   -0.475730
    14  H    0.149835
    15  H    0.151112
    16  H    0.149861
    17  H    0.151557
    18  H    0.156148
    19  H    0.155432
    20  H    0.160088
    21  C   -0.172984
    22  C   -0.218360
    23  C   -0.171449
    24  C    0.160483
    25  C   -0.166420
    26  C   -0.217165
    27  H    0.225845
    28  H    0.223588
    29  H    0.275683
    30  H    0.275805
    31  H    0.223843
    32  N    0.487613
    33  O   -0.460272
    34  O   -0.460522
 Sum of Mulliken charges =  -0.00000

 Dipole moment (field-independent basis, Debye):
    X=              2.6522    Y=              4.4112    Z=             -0.5713  Tot=              5.1787
 Quadrupole moment (field-independent basis, Debye-Ang):
   XX=           -113.4232   YY=            -93.8561   ZZ=            -89.4986
   XY=            -13.4738   XZ=              1.0509   YZ=              1.7066

 Normal termination of Gaussian 16 at Thu May  6 12:14:03 2021.
