 Gaussian 16, Revision A.03,
 Gaussian 16:  EM64L-G16RevA.03 25-Dec-2016

 -------------
 #p 6-31g* mp2
 -------------

 ------------------------------------------------------
 Input file generated by CHIRIPA (05-May-2021 14:51:13)
 ------------------------------------------------------
 Symbolic Z-matrix:
 Charge =  0 Multiplicity = 1

                         Standard orientation:
 ---------------------------------------------------------------------
 Center     Atomic      Atomic             Coordinates (Angstroms)
 Number     Number       Type             X           Y           Z
 ---------------------------------------------------------------------
      1          6           0       -3.311033   -0.381363   -0.003728
      2          6           0       -3.360750    0.623336   -1.155289
      3          6           0       -4.721982    1.307547   -1.284502
      4          1           0       -4.091544   -1.139885   -0.153369
      5          1           0       -3.553305    0.135404    0.935235
      6          1           0       -3.117102    0.105112   -2.091609
      7          1           0       -2.579905    1.379445   -1.002989
      8          1           0       -4.969458    1.849525   -0.366016
      9          1           0       -5.509707    0.567952   -1.460821
     10          1           0       -4.735278    2.021619   -2.113829
     11          6           0       -1.956638   -1.073596    0.138248
     12          6           0       -1.906921   -2.078295    1.289810
     13          6           0       -0.545689   -2.762506    1.419022
     14          1           0       -1.714367   -1.590363   -0.800714
     15          1           0       -1.176127   -0.315074    0.287890
     16          1           0       -2.687767   -2.834404    1.137510
     17          1           0       -2.150570   -1.560071    2.226130
     18          1           0        0.242036   -2.022911    1.595342
     19          1           0       -0.298214   -3.304485    0.500536
     20          1           0       -0.532394   -3.476578    2.248350
     21          6           0        2.684037    0.179358   -0.596858
     22          6           0        3.974136   -0.636235   -0.504997
     23          6           0        4.059917   -1.728894   -1.571078
     24          1           0        1.823029   -0.496310   -0.501543
     25          1           0        2.615917    0.633572   -1.595080
     26          1           0        4.040482   -1.087645    0.493223
     27          1           0        4.832174    0.041478   -0.600350
     28          1           0        4.019073   -1.292383   -2.574268
     29          1           0        3.222881   -2.427923   -1.474482
     30          1           0        4.989996   -2.299641   -1.487049
     31          6           0        2.583635    1.275602    0.462338
     32          6           0        1.293535    2.091194    0.370476
     33          6           0        1.207754    3.183853    1.436557
     34          1           0        2.651755    0.821388    1.460559
     35          1           0        3.444642    1.951269    0.367022
     36          1           0        0.435497    1.413481    0.465829
     37          1           0        1.227191    2.542605   -0.627743
     38          1           0        2.044790    3.882882    1.339962
     39          1           0        1.248599    2.747342    2.439747
     40          1           0        0.277676    3.754600    1.352528
 ---------------------------------------------------------------------

 SCF Done:  E(RHF) =  -470.733383728     A.U. after   11 cycles
 E2 =    -0.1583708989D+01 EUMP2 =    -0.47231709271723D+03

 The electronic state is 1-A.
 Alpha  occ. eigenvalues --  -11.21659 -11.21635 -11.21603 -11.21577 -11.21435
 Alpha  occ. eigenvalues --  -11.21409 -11.21374 -11.21331 -11.21161 -11.21115
 Alpha  occ. eigenvalues --  -11.21074 -11.21041  -1.08479  -1.08423  -1.03567
 Alpha  occ. eigenvalues --   -1.03537  -0.96021  -0.95981  -0.87040  -0.86995
 Alpha  occ. eigenvalues --   -0.79633  -0.79603  -0.78382  -0.78145  -0.65243
 Alpha  occ. eigenvalues --   -0.64940  -0.60989  -0.60913  -0.59386  -0.59354
 Alpha  occ. eigenvalues --   -0.57636  -0.57585  -0.55358  -0.55225  -0.52715
 Alpha  occ. eigenvalues --   -0.52679  -0.52462  -0.52390  -0.50023  -0.49873
 Alpha  occ. eigenvalues --   -0.47968  -0.47940  -0.46816  -0.46611  -0.46189
 Alpha  occ. eigenvalues --   -0.45760  -0.45742  -0.45153  -0.43820  -0.43785
 Alpha virt. eigenvalues --    0.19754   0.22685   0.24016   0.24386   0.25448
 Alpha virt. eigenvalues --    0.26696   0.26933   0.27610   0.27964   0.30060
 Alpha virt. eigenvalues --    0.31214   0.31598   0.31772   0.31932   0.32151

 Mulliken charges:
               1
     1  C   -0.297622
     2  C   -0.300572
     3  C   -0.475744
     4  H    0.149823
     5  H    0.149363
     6  H    0.152082
     7  H    0.152982
     8  H    0.155149
     9  H    0.155174
    10  H    0.160337
    11  C   -0.309650
    12  C   -0.299050
    13  C   -0.477435
    14  H    0.149865
    15  H    0.159839
    16  H    0.152412
    17  H    0.151921
    18  H    0.155570
    19  H    0.155307
    20  H    0.160824
    21  C   -0.302181
    22  C   -0.299470
    23  C   -0.475774
    24  H    0.153668
    25  H    0.149479
    26  H    0.152003
    27  H    0.151768
    28  H    0.154979
    29  H    0.155638
    30  H    0.160143
    31  C   -0.297686
    32  C   -0.309604
    33  C   -0.475047
    34  H    0.148933
    35  H    0.149926
    36  H    0.159739
    37  H    0.152413
    38  H    0.155599
    39  H    0.154963
    40  H    0.159936
 Sum of Mulliken charges =  -0.00000

 Dipole moment (field-independent basis, Debye):
    X=             -0.0142    Y=             -0.0083    Z=             -0.0072  Tot=              0.0179
 Quadrupole moment (field-independent basis, Debye-Ang):
   XX=            -85.3930   YY=            -84.8067   ZZ=            -84.5279
   XY=              1.2707   XZ=             -0.1580   YZ=             -0.4323

 Normal termination of Gaussian 16 at Wed May  5 15:21:48 2021.
