 Gaussian 16, Revision A.03,
 Gaussian 16:  EM64L-G16RevA.03 25-Dec-2016

 -------------
 #p 6-31g* mp2
 -------------

 ------------------------------------------------------
 Input file generated by CHIRIPA (05-May-2021 14:55:21)
 ------------------------------------------------------
 Symbolic Z-matrix:
 Charge =  0 Multiplicity = 1

                         Standard orientation:
 ---------------------------------------------------------------------
 Center     Atomic      Atomic             Coordinates (Angstroms)
 Number     Number       Type             X           Y           Z
 ---------------------------------------------------------------------
      1          6           0       -3.349509   -2.372561    0.291571
      2          6           0       -2.491652   -1.795753   -0.650710
      3          6           0       -2.421997   -0.406486   -0.790836
      4          6           0       -3.227866    0.379495    0.031416
      5          6           0       -4.092557   -0.165298    0.979468
      6          6           0       -4.145820   -1.556931    1.102223
      7          1           0       -3.397252   -3.452696    0.393677
      8          1           0       -1.872072   -2.426717   -1.281622
      9          1           0       -1.766684    0.066439   -1.512171
     10          1           0       -4.698017    0.489652    1.594183
     11          1           0       -4.812967   -2.002123    1.834865
     12          7           0       -3.162803    1.851501   -0.107734
     13          8           0       -3.883047    2.522023    0.628667
     14          8           0       -2.392793    2.306866   -0.950565
     15          6           0        4.808973    0.174478   -0.213816
     16          6           0        5.825847    0.036932    0.919778
     17          6           0        7.148319    0.741777    0.616370
     18          1           0        5.241031   -0.235140   -1.137117
     19          1           0        4.622399    1.240811   -0.402279
     20          1           0        6.009406   -1.028843    1.106977
     21          1           0        5.391247    0.446751    1.840531
     22          1           0        6.985451    1.811609    0.450441
     23          1           0        7.607122    0.327631   -0.287281
     24          1           0        7.860584    0.630760    1.439908
     25          6           0        3.481816   -0.524916    0.074680
     26          6           0        2.464942   -0.387371   -1.058914
     27          6           0        1.142470   -1.092215   -0.755506
     28          1           0        3.668391   -1.591249    0.263144
     29          1           0        3.049760   -0.115299    0.997981
     30          1           0        2.899542   -0.797189   -1.979667
     31          1           0        2.281383    0.678404   -1.246113
     32          1           0        0.683667   -0.678070    0.148145
     33          1           0        1.305339   -2.162048   -0.589577
     34          1           0        0.430206   -0.981198   -1.579043
 ---------------------------------------------------------------------

 SCF Done:  E(RHF) =  -669.534592884     A.U. after   15 cycles
 E2 =    -0.2092062502D+01 EUMP2 =    -0.67162665538582D+03

 The electronic state is 1-A.
 Alpha  occ. eigenvalues --  -20.60732 -20.60727 -15.85784 -11.31114 -11.27690
 Alpha  occ. eigenvalues --  -11.27657 -11.27427 -11.26701 -11.26660 -11.21855
 Alpha  occ. eigenvalues --  -11.21661 -11.21642 -11.21566 -11.21451 -11.21093
 Alpha  occ. eigenvalues --   -1.59808  -1.39362  -1.19294  -1.08694  -1.08591
 Alpha  occ. eigenvalues --   -1.04703  -1.03735  -0.96227  -0.95530  -0.87256
 Alpha  occ. eigenvalues --   -0.86089  -0.82370  -0.79811  -0.78382  -0.77410
 Alpha  occ. eigenvalues --   -0.72004  -0.71132  -0.70416  -0.65216  -0.64950
 Alpha  occ. eigenvalues --   -0.64695  -0.62130  -0.61121  -0.59567  -0.57810
 Alpha  occ. eigenvalues --   -0.55507  -0.55200  -0.53236  -0.52845  -0.52719
 Alpha  occ. eigenvalues --   -0.52575  -0.50127  -0.48759  -0.48759  -0.48120
 Alpha  occ. eigenvalues --   -0.46803  -0.45933  -0.45833  -0.44775  -0.44002
 Alpha  occ. eigenvalues --   -0.37281  -0.36230
 Alpha virt. eigenvalues --    0.05109   0.11340   0.16559   0.20597   0.22812
 Alpha virt. eigenvalues --    0.23997   0.26179   0.26523   0.27262   0.28082
 Alpha virt. eigenvalues --    0.28802   0.30470   0.31243   0.31537   0.32194

 Mulliken charges:
               1
     1  C   -0.171620
     2  C   -0.216397
     3  C   -0.169737
     4  C    0.157034
     5  C   -0.171361
     6  C   -0.218895
     7  H    0.225271
     8  H    0.224515
     9  H    0.276980
    10  H    0.275186
    11  H    0.223035
    12  N    0.488311
    13  O   -0.460705
    14  O   -0.460952
    15  C   -0.298864
    16  C   -0.299843
    17  C   -0.475906
    18  H    0.149405
    19  H    0.152252
    20  H    0.151023
    21  H    0.152794
    22  H    0.156460
    23  H    0.154974
    24  H    0.160408
    25  C   -0.299181
    26  C   -0.301063
    27  C   -0.476273
    28  H    0.147991
    29  H    0.151599
    30  H    0.151600
    31  H    0.158841
    32  H    0.162403
    33  H    0.152243
    34  H    0.148473
 Sum of Mulliken charges =  -0.00000

 Dipole moment (field-independent basis, Debye):
    X=             -0.1197    Y=             -5.1424    Z=              0.5297  Tot=              5.1710
 Quadrupole moment (field-independent basis, Debye-Ang):
   XX=            -92.1695   YY=            -98.8591   ZZ=            -92.4594
   XY=             15.9058   XZ=             -4.5418   YZ=              0.7589

 Normal termination of Gaussian 16 at Thu May  6 06:13:08 2021.
