 Gaussian 16, Revision A.03,
 Gaussian 16:  EM64L-G16RevA.03 25-Dec-2016

 -------------
 #p 6-31g* mp2
 -------------

 ------------------------------------------------------
 Input file generated by CHIRIPA (05-May-2021 14:51:14)
 ------------------------------------------------------
 Symbolic Z-matrix:
 Charge =  0 Multiplicity = 1

                         Standard orientation:
 ---------------------------------------------------------------------
 Center     Atomic      Atomic             Coordinates (Angstroms)
 Number     Number       Type             X           Y           Z
 ---------------------------------------------------------------------
      1          6           0        3.283606    0.754075   -0.299025
      2          6           0        3.696572   -0.711017   -0.154285
      3          6           0        5.074530   -0.998544   -0.751239
      4          1           0        3.287699    1.026134   -1.363409
      5          1           0        4.035497    1.389643    0.188938
      6          1           0        2.943413   -1.343714   -0.641177
      7          1           0        3.691310   -0.979673    0.909863
      8          1           0        5.841689   -0.391842   -0.259324
      9          1           0        5.089543   -0.757951   -1.819176
     10          1           0        5.349828   -2.051624   -0.636819
     11          6           0        1.908328    1.057170    0.292982
     12          6           0        1.495363    2.522262    0.148242
     13          6           0        0.117405    2.809788    0.745195
     14          1           0        1.156438    0.421601   -0.194982
     15          1           0        1.904236    0.785111    1.357365
     16          1           0        1.500625    2.790918   -0.915907
     17          1           0        2.248522    3.154958    0.635133
     18          1           0        0.102392    2.569196    1.813133
     19          1           0       -0.649754    2.203087    0.253280
     20          1           0       -0.157893    3.862869    0.630775
     21          6           0       -3.024200   -0.298533    0.180481
     22          6           0       -4.090923    0.018454   -0.868141
     23          6           0       -4.939537    1.235559   -0.498947
     24          1           0       -3.511695   -0.470097    1.149944
     25          1           0       -2.373873    0.577885    0.308389
     26          1           0       -4.738200   -0.858783   -0.995036
     27          1           0       -3.600847    0.189096   -1.835262
     28          1           0       -4.310808    2.125414   -0.391895
     29          1           0       -5.454623    1.071580    0.453103
     30          1           0       -5.695664    1.444227   -1.262223
     31          6           0       -2.167735   -1.512711   -0.174437
     32          6           0       -1.101012   -1.829699    0.874183
     33          6           0       -0.252397   -3.046803    0.504990
     34          1           0       -2.818062   -2.389131   -0.302346
     35          1           0       -1.680240   -1.341147   -1.143900
     36          1           0       -1.591089   -2.000340    1.841304
     37          1           0       -0.453735   -0.952461    1.001080
     38          1           0        0.262688   -2.882825   -0.447059
     39          1           0       -0.881127   -3.936658    0.397939
     40          1           0        0.503728   -3.255472    1.268266
 ---------------------------------------------------------------------

 SCF Done:  E(RHF) =  -470.732728215     A.U. after   11 cycles
 E2 =    -0.1584634422D+01 EUMP2 =    -0.47231736263670D+03

 The electronic state is 1-A.
 Alpha  occ. eigenvalues --  -11.21679 -11.21624 -11.21581 -11.21481 -11.21469
 Alpha  occ. eigenvalues --  -11.21405 -11.21365 -11.21305 -11.21150 -11.21088
 Alpha  occ. eigenvalues --  -11.21046 -11.21026  -1.08508  -1.08383  -1.03587
 Alpha  occ. eigenvalues --   -1.03486  -0.96048  -0.95935  -0.87074  -0.86942
 Alpha  occ. eigenvalues --   -0.79672  -0.79541  -0.78403  -0.78119  -0.65277
 Alpha  occ. eigenvalues --   -0.64903  -0.60994  -0.60896  -0.59408  -0.59307
 Alpha  occ. eigenvalues --   -0.57710  -0.57501  -0.55419  -0.55161  -0.52728
 Alpha  occ. eigenvalues --   -0.52634  -0.52531  -0.52314  -0.50113  -0.49759
 Alpha  occ. eigenvalues --   -0.48049  -0.47868  -0.46787  -0.46597  -0.46116
 Alpha  occ. eigenvalues --   -0.45794  -0.45715  -0.45107  -0.43841  -0.43738
 Alpha virt. eigenvalues --    0.20022   0.22342   0.23765   0.24241   0.25690
 Alpha virt. eigenvalues --    0.26374   0.26943   0.27669   0.28766   0.29496
 Alpha virt. eigenvalues --    0.30578   0.31502   0.31574   0.31891   0.32100

 Mulliken charges:
               1
     1  C   -0.297922
     2  C   -0.301223
     3  C   -0.475770
     4  H    0.149521
     5  H    0.149792
     6  H    0.153784
     7  H    0.152071
     8  H    0.155196
     9  H    0.155090
    10  H    0.160620
    11  C   -0.303097
    12  C   -0.299103
    13  C   -0.483088
    14  H    0.153804
    15  H    0.150375
    16  H    0.151844
    17  H    0.152421
    18  H    0.156058
    19  H    0.160685
    20  H    0.161023
    21  C   -0.307367
    22  C   -0.299039
    23  C   -0.475835
    24  H    0.150004
    25  H    0.157758
    26  H    0.151953
    27  H    0.151215
    28  H    0.155387
    29  H    0.155294
    30  H    0.160085
    31  C   -0.297920
    32  C   -0.307316
    33  C   -0.475943
    34  H    0.149576
    35  H    0.148005
    36  H    0.151533
    37  H    0.160408
    38  H    0.154637
    39  H    0.154832
    40  H    0.160653
 Sum of Mulliken charges =  -0.00000

 Dipole moment (field-independent basis, Debye):
    X=              0.0434    Y=              0.0362    Z=              0.0231  Tot=              0.0611
 Quadrupole moment (field-independent basis, Debye-Ang):
   XX=            -85.6150   YY=            -85.2750   ZZ=            -83.8852
   XY=              1.4171   XZ=              0.5164   YZ=             -0.3508

 Normal termination of Gaussian 16 at Wed May  5 16:53:26 2021.
