 Gaussian 16, Revision A.03,
 Gaussian 16:  EM64L-G16RevA.03 25-Dec-2016

 -------------
 #p 6-31g* mp2
 -------------

 ------------------------------------------------------
 Input file generated by CHIRIPA (05-May-2021 14:55:23)
 ------------------------------------------------------
 Symbolic Z-matrix:
 Charge =  0 Multiplicity = 1

                         Standard orientation:
 ---------------------------------------------------------------------
 Center     Atomic      Atomic             Coordinates (Angstroms)
 Number     Number       Type             X           Y           Z
 ---------------------------------------------------------------------
      1          6           0       -0.386459   -1.369682    1.295854
      2          6           0       -1.004594   -2.001317    0.211665
      3          6           0       -2.121835   -1.427028   -0.401943
      4          6           0       -2.596607   -0.214900    0.096681
      5          6           0       -2.002648    0.438827    1.175173
      6          6           0       -0.886577   -0.153769    1.773306
      7          1           0        0.480986   -1.822913    1.766508
      8          1           0       -0.618370   -2.945674   -0.161252
      9          1           0       -2.619703   -1.894478   -1.242798
     10          1           0       -2.410565    1.379541    1.524570
     11          1           0       -0.408551    0.339025    2.615143
     12          7           0       -3.778760    0.402764   -0.544727
     13          8           0       -4.177693    1.471215   -0.086574
     14          8           0       -4.284016   -0.193257   -1.493470
     15          6           0        3.023053    1.090145   -0.593575
     16          6           0        2.643922    2.211163    0.374704
     17          6           0        2.545386    3.575027   -0.309372
     18          1           0        3.983135    1.333816   -1.068772
     19          1           0        2.278005    1.043979   -1.399904
     20          1           0        3.388709    2.254296    1.179718
     21          1           0        1.684725    1.964703    0.847794
     22          1           0        1.788684    3.555508   -1.100335
     23          1           0        3.502350    3.846746   -0.766525
     24          1           0        2.273274    4.361801    0.401122
     25          6           0        3.125487   -0.279396    0.075449
     26          6           0        3.504619   -1.400415   -0.892829
     27          6           0        3.603154   -2.764279   -0.208753
     28          1           0        3.870535   -0.233230    0.881778
     29          1           0        2.165406   -0.523068    0.550646
     30          1           0        4.463815   -1.153954   -1.365919
     31          1           0        2.759831   -1.443547   -1.697844
     32          1           0        2.646191   -3.035998    0.248399
     33          1           0        4.359857   -2.744760    0.582209
     34          1           0        3.875266   -3.551053   -0.919248
 ---------------------------------------------------------------------

 SCF Done:  E(RHF) =  -669.534997965     A.U. after   15 cycles
 E2 =    -0.2093557980D+01 EUMP2 =    -0.67162855594490D+03

 The electronic state is 1-A.
 Alpha  occ. eigenvalues --  -20.60839 -20.60834 -15.85895 -11.31290 -11.27876
 Alpha  occ. eigenvalues --  -11.27872 -11.27601 -11.26889 -11.26875 -11.22300
 Alpha  occ. eigenvalues --  -11.22061 -11.22015 -11.21992 -11.21838 -11.21382
 Alpha  occ. eigenvalues --   -1.59914  -1.39467  -1.19480  -1.09036  -1.08847
 Alpha  occ. eigenvalues --   -1.04881  -1.04126  -0.96577  -0.95699  -0.87592
 Alpha  occ. eigenvalues --   -0.86275  -0.82527  -0.80195  -0.78838  -0.77557
 Alpha  occ. eigenvalues --   -0.72112  -0.71239  -0.70612  -0.65664  -0.65129
 Alpha  occ. eigenvalues --   -0.64851  -0.62228  -0.61517  -0.59958  -0.58190
 Alpha  occ. eigenvalues --   -0.55905  -0.55384  -0.53305  -0.53205  -0.52989
 Alpha  occ. eigenvalues --   -0.52964  -0.50526  -0.48874  -0.48864  -0.48510
 Alpha  occ. eigenvalues --   -0.47224  -0.46372  -0.46264  -0.44866  -0.44357
 Alpha  occ. eigenvalues --   -0.37366  -0.36477
 Alpha virt. eigenvalues --    0.04927   0.11053   0.16279   0.19429   0.22795
 Alpha virt. eigenvalues --    0.23332   0.25953   0.26197   0.26608   0.28019
 Alpha virt. eigenvalues --    0.29101   0.30245   0.31073   0.31296   0.31754

 Mulliken charges:
               1
     1  C   -0.171823
     2  C   -0.220649
     3  C   -0.170549
     4  C    0.158540
     5  C   -0.171222
     6  C   -0.218429
     7  H    0.229488
     8  H    0.224697
     9  H    0.276170
    10  H    0.276318
    11  H    0.225399
    12  N    0.488056
    13  O   -0.460050
    14  O   -0.460158
    15  C   -0.297416
    16  C   -0.301700
    17  C   -0.476233
    18  H    0.151108
    19  H    0.153006
    20  H    0.150481
    21  H    0.149165
    22  H    0.158494
    23  H    0.156219
    24  H    0.160615
    25  C   -0.305026
    26  C   -0.300063
    27  C   -0.475571
    28  H    0.148070
    29  H    0.149396
    30  H    0.155528
    31  H    0.153657
    32  H    0.142794
    33  H    0.157651
    34  H    0.164040
 Sum of Mulliken charges =  -0.00000

 Dipole moment (field-independent basis, Debye):
    X=              4.1584    Y=             -2.1311    Z=              2.1807  Tot=              5.1565
 Quadrupole moment (field-independent basis, Debye-Ang):
   XX=           -115.9835   YY=            -92.2352   ZZ=            -92.6836
   XY=              5.3158   XZ=             -5.4592   YZ=              2.5232

 Normal termination of Gaussian 16 at Thu May  6 14:18:53 2021.
