 Gaussian 16, Revision A.03,
 Gaussian 16:  EM64L-G16RevA.03 25-Dec-2016

 -------------
 #p 6-31g* mp2
 -------------

 ------------------------------------------------------
 Input file generated by CHIRIPA (05-May-2021 14:55:23)
 ------------------------------------------------------
 Symbolic Z-matrix:
 Charge =  0 Multiplicity = 1

                         Standard orientation:
 ---------------------------------------------------------------------
 Center     Atomic      Atomic             Coordinates (Angstroms)
 Number     Number       Type             X           Y           Z
 ---------------------------------------------------------------------
      1          6           0       -0.776899   -1.315240    0.568397
      2          6           0       -1.002008   -0.021417    1.049927
      3          6           0       -2.211894    0.630803    0.794324
      4          6           0       -3.179077   -0.043394    0.050479
      5          6           0       -2.984673   -1.332600   -0.442923
      6          6           0       -1.767205   -1.965555   -0.175180
      7          1           0        0.165914   -1.814417    0.771671
      8          1           0       -0.234726    0.486056    1.627676
      9          1           0       -2.412527    1.632315    1.155070
     10          1           0       -3.768524   -1.812871   -1.015928
     11          1           0       -1.595146   -2.970368   -0.550404
     12          7           0       -4.463943    0.636885   -0.226542
     13          8           0       -5.300003    0.021300   -0.884338
     14          8           0       -4.610631    1.772790    0.219370
     15          6           0        4.132050   -0.470391   -0.277308
     16          6           0        3.328860   -1.675725    0.212630
     17          6           0        4.009734   -3.007781   -0.103330
     18          1           0        4.286347   -0.556840   -1.361589
     19          1           0        5.129561   -0.491643    0.183035
     20          1           0        2.332680   -1.651447   -0.247429
     21          1           0        3.176292   -1.586298    1.295840
     22          1           0        4.996245   -3.057706    0.368798
     23          1           0        4.147840   -3.123225   -1.183238
     24          1           0        3.418494   -3.855962    0.255671
     25          6           0        3.464279    0.868502    0.031201
     26          6           0        4.267469    2.073836   -0.458738
     27          6           0        3.586594    3.405892   -0.142777
     28          1           0        2.466769    0.889756   -0.429143
     29          1           0        3.309982    0.954951    1.115481
     30          1           0        4.420037    1.984410   -1.541947
     31          1           0        5.263648    2.049559    0.001320
     32          1           0        3.448489    3.521337    0.937130
     33          1           0        2.600084    3.455818   -0.614906
     34          1           0        4.177835    4.254074   -0.501779
 ---------------------------------------------------------------------

 SCF Done:  E(RHF) =  -669.535742896     A.U. after   15 cycles
 E2 =    -0.2091523380D+01 EUMP2 =    -0.67162726627614D+03

 The electronic state is 1-A.
 Alpha  occ. eigenvalues --  -20.60731 -20.60726 -15.85785 -11.31142 -11.27711
 Alpha  occ. eigenvalues --  -11.27703 -11.27387 -11.26716 -11.26697 -11.22776
 Alpha  occ. eigenvalues --  -11.22302 -11.22263 -11.22209 -11.22048 -11.21630
 Alpha  occ. eigenvalues --   -1.59807  -1.39361  -1.19310  -1.09321  -1.08699
 Alpha  occ. eigenvalues --   -1.04711  -1.04387  -0.96801  -0.95539  -0.87819
 Alpha  occ. eigenvalues --   -0.86103  -0.82378  -0.80493  -0.79144  -0.77423
 Alpha  occ. eigenvalues --   -0.72001  -0.71131  -0.70413  -0.65939  -0.64956
 Alpha  occ. eigenvalues --   -0.64707  -0.62057  -0.61775  -0.60208  -0.58434
 Alpha  occ. eigenvalues --   -0.56070  -0.55210  -0.53496  -0.53222  -0.53041
 Alpha  occ. eigenvalues --   -0.52793  -0.50735  -0.48814  -0.48758  -0.48714
 Alpha  occ. eigenvalues --   -0.47511  -0.46662  -0.46568  -0.44768  -0.44636
 Alpha  occ. eigenvalues --   -0.37271  -0.36319
 Alpha virt. eigenvalues --    0.05080   0.11294   0.16488   0.20269   0.22443
 Alpha virt. eigenvalues --    0.23367   0.25539   0.25779   0.26592   0.27897
 Alpha virt. eigenvalues --    0.29250   0.30306   0.30622   0.31212   0.32116

 Mulliken charges:
               1
     1  C   -0.175523
     2  C   -0.221120
     3  C   -0.171220
     4  C    0.158439
     5  C   -0.170875
     6  C   -0.220215
     7  H    0.234044
     8  H    0.225099
     9  H    0.275480
    10  H    0.275334
    11  H    0.223237
    12  N    0.488057
    13  O   -0.460608
    14  O   -0.460534
    15  C   -0.297427
    16  C   -0.307402
    17  C   -0.475675
    18  H    0.153326
    19  H    0.152939
    20  H    0.148458
    21  H    0.149311
    22  H    0.159574
    23  H    0.158720
    24  H    0.158309
    25  C   -0.301517
    26  C   -0.300019
    27  C   -0.476741
    28  H    0.150424
    29  H    0.145970
    30  H    0.154491
    31  H    0.153619
    32  H    0.154128
    33  H    0.156419
    34  H    0.163496
 Sum of Mulliken charges =  -0.00000

 Dipole moment (field-independent basis, Debye):
    X=              4.7539    Y=             -2.3539    Z=              0.9086  Tot=              5.3820
 Quadrupole moment (field-independent basis, Debye-Ang):
   XX=           -122.7469   YY=            -92.3941   ZZ=            -93.2377
   XY=              9.3551   XZ=             -1.7278   YZ=              2.0650

 Normal termination of Gaussian 16 at Wed May  5 22:20:07 2021.
