 Gaussian 16, Revision A.03,
 Gaussian 16:  EM64L-G16RevA.03 25-Dec-2016

 -------------
 #p 6-31g* mp2
 -------------

 ------------------------------------------------------
 Input file generated by CHIRIPA (05-May-2021 14:55:25)
 ------------------------------------------------------
 Symbolic Z-matrix:
 Charge =  0 Multiplicity = 1

                         Standard orientation:
 ---------------------------------------------------------------------
 Center     Atomic      Atomic             Coordinates (Angstroms)
 Number     Number       Type             X           Y           Z
 ---------------------------------------------------------------------
      1          6           0        5.330734   -1.317257    0.350031
      2          6           0        5.308963    0.065404    0.139564
      3          6           0        4.103919    0.725329   -0.119117
      4          6           0        2.934180   -0.031836   -0.160369
      5          6           0        2.923310   -1.410574    0.045185
      6          6           0        4.139938   -2.049542    0.302254
      7          1           0        6.271341   -1.821763    0.550354
      8          1           0        6.232209    0.636656    0.176081
      9          1           0        4.058333    1.794716   -0.285705
     10          1           0        1.986716   -1.953156    0.002596
     11          1           0        4.153834   -3.123442    0.465322
     12          7           0        1.652322    0.655705   -0.433369
     13          8           0        0.635506   -0.034044   -0.464489
     14          8           0        1.688691    1.871328   -0.611058
     15          6           0       -4.588639   -0.165244   -0.231574
     16          6           0       -4.971945   -1.518496    0.368236
     17          6           0       -6.098540   -2.208504   -0.401484
     18          1           0       -5.474124    0.484788   -0.249436
     19          1           0       -4.284934   -0.308548   -1.277816
     20          1           0       -5.273516   -1.372874    1.413446
     21          1           0       -4.085400   -2.165317    0.384848
     22          1           0       -5.804118   -2.382736   -1.441464
     23          1           0       -6.998983   -1.585790   -0.407021
     24          1           0       -6.356595   -3.174148    0.044384
     25          6           0       -3.463702    0.536829    0.526935
     26          6           0       -3.080397    1.890081   -0.072875
     27          6           0       -1.953801    2.580089    0.696845
     28          1           0       -3.767407    0.680132    1.573177
     29          1           0       -2.578217   -0.113204    0.544796
     30          1           0       -3.966941    2.536902   -0.089487
     31          1           0       -2.778826    1.744459   -1.118086
     32          1           0       -1.053358    1.957376    0.702382
     33          1           0       -2.248224    2.754321    1.736826
     34          1           0       -1.695746    3.545734    0.250978
 ---------------------------------------------------------------------

 SCF Done:  E(RHF) =  -669.536753804     A.U. after   15 cycles
 E2 =    -0.2091760180D+01 EUMP2 =    -0.67162851398482D+03

 The electronic state is 1-A.
 Alpha  occ. eigenvalues --  -20.61122 -20.61116 -15.86122 -11.31393 -11.27945
 Alpha  occ. eigenvalues --  -11.27939 -11.27671 -11.26936 -11.26926 -11.20772
 Alpha  occ. eigenvalues --  -11.20412 -11.20302 -11.19998 -11.19931 -11.19093
 Alpha  occ. eigenvalues --   -1.60161  -1.39716  -1.19551  -1.08966  -1.07198
 Alpha  occ. eigenvalues --   -1.04937  -1.02250  -0.95816  -0.94697  -0.86340
 Alpha  occ. eigenvalues --   -0.85721  -0.82651  -0.78392  -0.77714  -0.76950
 Alpha  occ. eigenvalues --   -0.72328  -0.71470  -0.70659  -0.65205  -0.64941
 Alpha  occ. eigenvalues --   -0.63821  -0.62283  -0.59634  -0.58158  -0.56305
 Alpha  occ. eigenvalues --   -0.55449  -0.53980  -0.53269  -0.53027  -0.51416
 Alpha  occ. eigenvalues --   -0.51145  -0.49251  -0.49093  -0.48472  -0.46672
 Alpha  occ. eigenvalues --   -0.45411  -0.45150  -0.44498  -0.44305  -0.42511
 Alpha  occ. eigenvalues --   -0.37524  -0.36534
 Alpha virt. eigenvalues --    0.04778   0.11123   0.16288   0.21256   0.24019
 Alpha virt. eigenvalues --    0.25696   0.27188   0.27779   0.28202   0.28692
 Alpha virt. eigenvalues --    0.29337   0.30839   0.32358   0.32700   0.32783

 Mulliken charges:
               1
     1  C   -0.170315
     2  C   -0.218639
     3  C   -0.170573
     4  C    0.160017
     5  C   -0.170587
     6  C   -0.218605
     7  H    0.226388
     8  H    0.224216
     9  H    0.276223
    10  H    0.275782
    11  H    0.224185
    12  N    0.488063
    13  O   -0.461579
    14  O   -0.457061
    15  C   -0.297453
    16  C   -0.298575
    17  C   -0.474940
    18  H    0.146046
    19  H    0.149887
    20  H    0.149508
    21  H    0.151034
    22  H    0.154389
    23  H    0.153917
    24  H    0.156765
    25  C   -0.301437
    26  C   -0.295614
    27  C   -0.481349
    28  H    0.142888
    29  H    0.161428
    30  H    0.142957
    31  H    0.156027
    32  H    0.177981
    33  H    0.142164
    34  H    0.156865
 Sum of Mulliken charges =  -0.00000

 Dipole moment (field-independent basis, Debye):
    X=              5.0269    Y=             -2.4736    Z=              0.8597  Tot=              5.6681
 Quadrupole moment (field-independent basis, Debye-Ang):
   XX=            -69.1070   YY=            -91.6111   ZZ=            -96.0186
   XY=             -5.6146   XZ=              1.5269   YZ=             -0.2733

 Normal termination of Gaussian 16 at Wed May  5 19:11:17 2021.
