 Gaussian 16, Revision A.03,
 Gaussian 16:  EM64L-G16RevA.03 25-Dec-2016

 -------------
 #p 6-31g* mp2
 -------------

 ------------------------------------------------------
 Input file generated by CHIRIPA (05-May-2021 14:57:25)
 ------------------------------------------------------
 Symbolic Z-matrix:
 Charge =  0 Multiplicity = 1

                         Standard orientation:
 ---------------------------------------------------------------------
 Center     Atomic      Atomic             Coordinates (Angstroms)
 Number     Number       Type             X           Y           Z
 ---------------------------------------------------------------------
      1          6           0        3.782700   -2.434378    0.578279
      2          6           0        4.976820   -1.721480    0.727862
      3          6           0        5.029514   -0.355332    0.435613
      4          6           0        3.863979    0.269011   -0.005989
      5          6           0        2.659140   -0.413887   -0.165065
      6          6           0        2.629704   -1.779461    0.133078
      7          1           0        3.750800   -3.495412    0.807594
      8          1           0        5.873804   -2.227493    1.073429
      9          1           0        5.940632    0.220729    0.542554
     10          1           0        1.781333    0.117983   -0.511456
     11          1           0        1.700938   -2.330574    0.015981
     12          7           0        3.907452    1.714987   -0.318499
     13          8           0        2.866810    2.241858   -0.705936
     14          8           0        4.981346    2.294093   -0.170090
     15          6           0       -6.234811    0.491471    0.616596
     16          6           0       -5.183254    1.269163    1.112523
     17          6           0       -3.861759    0.988980    0.752390
     18          6           0       -3.626918   -0.081178   -0.109527
     19          6           0       -4.653140   -0.874428   -0.620323
     20          6           0       -5.966870   -0.575961   -0.246723
     21          1           0       -7.258364    0.716225    0.901586
     22          1           0       -5.388371    2.098760    1.783150
     23          1           0       -3.028734    1.574794    1.121591
     24          1           0       -4.417371   -1.694931   -1.287111
     25          1           0       -6.781537   -1.181631   -0.633409
     26          7           0       -2.232020   -0.387473   -0.497912
     27          8           0       -2.051549   -1.335755   -1.258721
     28          8           0       -1.345583    0.326533   -0.034166
 ---------------------------------------------------------------------

 SCF Done:  E(RHF) =  -868.340371237     A.U. after   16 cycles
 E2 =    -0.2598439509D+01 EUMP2 =    -0.87093881074592D+03

 The electronic state is 1-A.
 Alpha  occ. eigenvalues --  -20.61443 -20.61388 -20.59745 -20.59714 -15.86419
 Alpha  occ. eigenvalues --  -15.84777 -11.31536 -11.29987 -11.28090 -11.28048
 Alpha  occ. eigenvalues --  -11.27782 -11.27047 -11.27016 -11.26666 -11.26370
 Alpha  occ. eigenvalues --  -11.26342 -11.25681 -11.25432  -1.60474  -1.58814
 Alpha  occ. eigenvalues --   -1.40028  -1.38366  -1.19687  -1.18176  -1.09133
 Alpha  occ. eigenvalues --   -1.07625  -1.05049  -1.03528  -0.96008  -0.94466
 Alpha  occ. eigenvalues --   -0.86460  -0.84952  -0.82843  -0.81281  -0.77916
 Alpha  occ. eigenvalues --   -0.76323  -0.72651  -0.71764  -0.71003  -0.70792
 Alpha  occ. eigenvalues --   -0.70137  -0.69297  -0.65342  -0.65052  -0.63825
 Alpha  occ. eigenvalues --   -0.63529  -0.62395  -0.60835  -0.55568  -0.54110
 Alpha  occ. eigenvalues --   -0.53395  -0.53137  -0.51920  -0.51602  -0.49417
 Alpha  occ. eigenvalues --   -0.49407  -0.47768  -0.47741  -0.45480  -0.43805
 Alpha  occ. eigenvalues --   -0.37657  -0.36640  -0.36219  -0.35135
 Alpha virt. eigenvalues --    0.04599   0.06162   0.11018   0.12499   0.16142
 Alpha virt. eigenvalues --    0.17657   0.21176   0.22656   0.27114   0.28028
 Alpha virt. eigenvalues --    0.28663   0.29561   0.30784   0.32114   0.32311

 Mulliken charges:
               1
     1  C   -0.171759
     2  C   -0.219942
     3  C   -0.172424
     4  C    0.156119
     5  C   -0.175477
     6  C   -0.223036
     7  H    0.221369
     8  H    0.218437
     9  H    0.271388
    10  H    0.296304
    11  H    0.231905
    12  N    0.487503
    13  O   -0.457611
    14  O   -0.466300
    15  C   -0.169890
    16  C   -0.218718
    17  C   -0.170216
    18  C    0.157373
    19  C   -0.170611
    20  C   -0.218730
    21  H    0.227053
    22  H    0.225615
    23  H    0.278649
    24  H    0.275102
    25  H    0.224291
    26  N    0.489770
    27  O   -0.463892
    28  O   -0.462272
 Sum of Mulliken charges =  -0.00000

 Dipole moment (field-independent basis, Debye):
    X=             -5.6574    Y=             -3.9450    Z=              2.4386  Tot=              7.3154
 Quadrupole moment (field-independent basis, Debye-Ang):
   XX=            -66.9223   YY=           -106.1061   ZZ=           -104.6927
   XY=            -21.9934   XZ=              1.7758   YZ=              2.7871

 Normal termination of Gaussian 16 at Thu May  6 16:23:52 2021.
