 Gaussian 16, Revision A.03,
 Gaussian 16:  EM64L-G16RevA.03 25-Dec-2016

 -------------
 #p 6-31g* mp2
 -------------

 ------------------------------------------------------
 Input file generated by CHIRIPA (05-May-2021 14:53:18)
 ------------------------------------------------------
 Symbolic Z-matrix:
 Charge =  0 Multiplicity = 1

                         Standard orientation:
 ---------------------------------------------------------------------
 Center     Atomic      Atomic             Coordinates (Angstroms)
 Number     Number       Type             X           Y           Z
 ---------------------------------------------------------------------
      1          6           0        3.045984    0.165368    0.339946
      2          6           0        3.990024   -0.918913   -0.180734
      3          6           0        4.689130   -1.683765    0.943564
      4          1           0        3.613982    0.867788    0.965189
      5          1           0        2.293225   -0.296649    0.993619
      6          1           0        4.739944   -0.455184   -0.834334
      7          1           0        3.419751   -1.618725   -0.804967
      8          1           0        3.954563   -2.172615    1.591668
      9          1           0        5.282257   -1.002463    1.562134
     10          1           0        5.359156   -2.453960    0.548944
     11          6           0        2.339648    0.938733   -0.772135
     12          6           0        1.395608    2.023014   -0.251455
     13          6           0        0.696503    2.787867   -1.375753
     14          1           0        3.092408    1.400750   -1.425808
     15          1           0        1.771650    0.236313   -1.397379
     16          1           0        1.965882    2.722827    0.372778
     17          1           0        0.645689    1.559286    0.402145
     18          1           0        0.103375    2.106565   -1.994323
     19          1           0        1.431069    3.276717   -2.023857
     20          1           0        0.026476    3.558061   -0.981133
     21          6           0       -2.248348    1.708564    1.497751
     22          6           0       -2.441002    1.730476    0.112498
     23          6           0       -2.363195    0.550916   -0.633914
     24          6           0       -2.089785   -0.638163    0.040348
     25          6           0       -1.893048   -0.692467    1.419347
     26          6           0       -1.975467    0.499294    2.145612
     27          1           0       -2.310582    2.629614    2.069757
     28          1           0       -2.653066    2.668155   -0.393301
     29          1           0       -2.508114    0.539227   -1.707357
     30          1           0       -1.683146   -1.642538    1.895501
     31          1           0       -1.825407    0.479273    3.221310
     32          7           0       -2.004973   -1.893369   -0.739180
     33          8           0       -1.762837   -2.927991   -0.121473
     34          8           0       -2.182239   -1.818809   -1.953122
 ---------------------------------------------------------------------

 SCF Done:  E(RHF) =  -669.534990099     A.U. after   15 cycles
 E2 =    -0.2094345573D+01 EUMP2 =    -0.67162933567213D+03

 The electronic state is 1-A.
 Alpha  occ. eigenvalues --  -20.60875 -20.60869 -15.85928 -11.31319 -11.27873
 Alpha  occ. eigenvalues --  -11.27846 -11.27589 -11.26901 -11.26850 -11.21668
 Alpha  occ. eigenvalues --  -11.21473 -11.21402 -11.21393 -11.21335 -11.20957
 Alpha  occ. eigenvalues --   -1.59951  -1.39503  -1.19488  -1.08877  -1.08430
 Alpha  occ. eigenvalues --   -1.04886  -1.03558  -0.96039  -0.95703  -0.87064
 Alpha  occ. eigenvalues --   -0.86271  -0.82528  -0.79630  -0.78237  -0.77575
 Alpha  occ. eigenvalues --   -0.72143  -0.71277  -0.70575  -0.65136  -0.65071
 Alpha  occ. eigenvalues --   -0.64878  -0.62233  -0.60999  -0.59437  -0.57653
 Alpha  occ. eigenvalues --   -0.55409  -0.55349  -0.53150  -0.53010  -0.52675
 Alpha  occ. eigenvalues --   -0.52452  -0.49980  -0.48904  -0.48898  -0.47932
 Alpha  occ. eigenvalues --   -0.46629  -0.45772  -0.45678  -0.44902  -0.43821
 Alpha  occ. eigenvalues --   -0.37433  -0.36432
 Alpha virt. eigenvalues --    0.04931   0.11094   0.16402   0.20817   0.22888
 Alpha virt. eigenvalues --    0.24214   0.26365   0.26494   0.27232   0.28053
 Alpha virt. eigenvalues --    0.28863   0.29870   0.31286   0.31718   0.32100

 Mulliken charges:
               1
     1  C   -0.297904
     2  C   -0.300538
     3  C   -0.475696
     4  H    0.147560
     5  H    0.148137
     6  H    0.151498
     7  H    0.156897
     8  H    0.155461
     9  H    0.153229
    10  H    0.161474
    11  C   -0.299009
    12  C   -0.305619
    13  C   -0.473017
    14  H    0.149341
    15  H    0.153166
    16  H    0.148732
    17  H    0.159495
    18  H    0.153919
    19  H    0.156420
    20  H    0.149548
    21  C   -0.172620
    22  C   -0.212502
    23  C   -0.171661
    24  C    0.158593
    25  C   -0.172457
    26  C   -0.218013
    27  H    0.226436
    28  H    0.225206
    29  H    0.275903
    30  H    0.275965
    31  H    0.224391
    32  N    0.487911
    33  O   -0.460131
    34  O   -0.460114
 Sum of Mulliken charges =  -0.00000

 Dipole moment (field-independent basis, Debye):
    X=             -0.3796    Y=              4.3352    Z=              2.7595  Tot=              5.1530
 Quadrupole moment (field-independent basis, Debye-Ang):
   XX=            -93.8081   YY=            -99.8694   ZZ=            -91.6708
   XY=             -9.1285   XZ=             -5.4848   YZ=             -3.4208

 Normal termination of Gaussian 16 at Thu May  6 04:26:23 2021.
