 Gaussian 16, Revision A.03,
 Gaussian 16:  EM64L-G16RevA.03 25-Dec-2016

 -------------
 #p 6-31g* mp2
 -------------

 ------------------------------------------------------
 Input file generated by CHIRIPA (05-May-2021 14:51:11)
 ------------------------------------------------------
 Symbolic Z-matrix:
 Charge =  0 Multiplicity = 1

                         Standard orientation:
 ---------------------------------------------------------------------
 Center     Atomic      Atomic             Coordinates (Angstroms)
 Number     Number       Type             X           Y           Z
 ---------------------------------------------------------------------
      1          6           0        3.265968   -0.158942   -0.300951
      2          6           0        4.126410   -1.417244   -0.420537
      3          6           0        4.600255   -1.675615   -1.851099
      4          1           0        2.396200   -0.252680   -0.965529
      5          1           0        3.841457    0.705772   -0.659386
      6          1           0        3.549954   -2.279117   -0.060689
      7          1           0        4.994129   -1.320582    0.244546
      8          1           0        5.197689   -0.834270   -2.216904
      9          1           0        3.745308   -1.798252   -2.523874
     10          1           0        5.213661   -2.579869   -1.913691
     11          6           0        2.784641    0.112737    1.123213
     12          6           0        1.924200    1.371039    1.242798
     13          6           0        1.450354    1.629409    2.673360
     14          1           0        2.209152   -0.751978    1.481648
     15          1           0        3.654409    0.206475    1.787790
     16          1           0        1.056480    1.274377    0.577715
     17          1           0        2.500655    2.232912    0.882951
     18          1           0        2.305301    1.752046    3.346136
     19          1           0        0.852920    0.788065    3.039166
     20          1           0        0.836948    2.533664    2.735952
     21          6           0       -3.096367    0.697139   -0.763348
     22          6           0       -1.755213    1.351600   -1.096473
     23          6           0       -1.913887    2.699365   -1.800850
     24          1           0       -3.671739    0.562918   -1.689563
     25          1           0       -3.680637    1.377306   -0.128213
     26          1           0       -1.173081    0.669820   -1.729652
     27          1           0       -1.182886    1.484104   -0.169381
     28          1           0       -2.472690    3.399534   -1.171483
     29          1           0       -2.462828    2.580625   -2.740619
     30          1           0       -0.942886    3.149533   -2.029685
     31          6           0       -2.954242   -0.650934   -0.058914
     32          6           0       -4.295396   -1.305395    0.274212
     33          6           0       -4.136722   -2.653160    0.978589
     34          1           0       -2.369972   -1.331101   -0.694048
     35          1           0       -2.378870   -0.516713    0.867302
     36          1           0       -4.867723   -1.437898   -0.652881
     37          1           0       -4.877528   -0.623615    0.907391
     38          1           0       -3.587781   -2.534419    1.918357
     39          1           0       -3.577920   -3.353329    0.349222
     40          1           0       -5.107722   -3.103328    1.207424
 ---------------------------------------------------------------------

 SCF Done:  E(RHF) =  -470.733336371     A.U. after   11 cycles
 E2 =    -0.1582855970D+01 EUMP2 =    -0.47231619234137D+03

 The electronic state is 1-A.
 Alpha  occ. eigenvalues --  -11.21642 -11.21636 -11.21585 -11.21542 -11.21450
 Alpha  occ. eigenvalues --  -11.21390 -11.21379 -11.21319 -11.21103 -11.21097
 Alpha  occ. eigenvalues --  -11.21082 -11.21063  -1.08477  -1.08404  -1.03577
 Alpha  occ. eigenvalues --   -1.03507  -0.96014  -0.95967  -0.87031  -0.86982
 Alpha  occ. eigenvalues --   -0.79697  -0.79528  -0.78334  -0.78173  -0.65151
 Alpha  occ. eigenvalues --   -0.64999  -0.61062  -0.60835  -0.59418  -0.59299
 Alpha  occ. eigenvalues --   -0.57646  -0.57556  -0.55306  -0.55251  -0.52708
 Alpha  occ. eigenvalues --   -0.52662  -0.52440  -0.52392  -0.49989  -0.49888
 Alpha  occ. eigenvalues --   -0.48108  -0.47815  -0.46849  -0.46470  -0.45987
 Alpha  occ. eigenvalues --   -0.45766  -0.45722  -0.45393  -0.43821  -0.43764
 Alpha virt. eigenvalues --    0.21282   0.23250   0.23677   0.24428   0.25945
 Alpha virt. eigenvalues --    0.26492   0.27098   0.27870   0.28163   0.28936
 Alpha virt. eigenvalues --    0.30541   0.31508   0.31623   0.31876   0.31990

 Mulliken charges:
               1
     1  C   -0.298555
     2  C   -0.299673
     3  C   -0.475661
     4  H    0.150076
     5  H    0.149359
     6  H    0.151973
     7  H    0.151899
     8  H    0.155149
     9  H    0.155013
    10  H    0.160201
    11  C   -0.297496
    12  C   -0.308679
    13  C   -0.475685
    14  H    0.149502
    15  H    0.149390
    16  H    0.160883
    17  H    0.151621
    18  H    0.155500
    19  H    0.154559
    20  H    0.159739
    21  C   -0.297487
    22  C   -0.306915
    23  C   -0.475637
    24  H    0.149835
    25  H    0.149739
    26  H    0.151260
    27  H    0.158926
    28  H    0.155231
    29  H    0.155326
    30  H    0.160963
    31  C   -0.298451
    32  C   -0.299657
    33  C   -0.475751
    34  H    0.149187
    35  H    0.149341
    36  H    0.152099
    37  H    0.152152
    38  H    0.155160
    39  H    0.155107
    40  H    0.160455
 Sum of Mulliken charges =  -0.00000

 Dipole moment (field-independent basis, Debye):
    X=             -0.0264    Y=              0.0084    Z=             -0.0116  Tot=              0.0301
 Quadrupole moment (field-independent basis, Debye-Ang):
   XX=            -84.2582   YY=            -85.3212   ZZ=            -85.1922
   XY=              0.5428   XZ=              0.5736   YZ=              0.7009

 Normal termination of Gaussian 16 at Wed May  5 15:14:31 2021.
