 Gaussian 16, Revision A.03,
 Gaussian 16:  EM64L-G16RevA.03 25-Dec-2016

 -------------
 #p 6-31g* mp2
 -------------

 ------------------------------------------------------
 Input file generated by CHIRIPA (05-May-2021 14:55:20)
 ------------------------------------------------------
 Symbolic Z-matrix:
 Charge =  0 Multiplicity = 1

                         Standard orientation:
 ---------------------------------------------------------------------
 Center     Atomic      Atomic             Coordinates (Angstroms)
 Number     Number       Type             X           Y           Z
 ---------------------------------------------------------------------
      1          6           0       -2.927207   -1.959922   -1.211565
      2          6           0       -4.028701   -1.245901   -0.728443
      3          6           0       -3.859077    0.016005   -0.151062
      4          6           0       -2.568093    0.536094   -0.072604
      5          6           0       -1.450760   -0.150780   -0.544898
      6          6           0       -1.644014   -1.411050   -1.118415
      7          1           0       -3.068153   -2.939565   -1.658587
      8          1           0       -5.026402   -1.669687   -0.799457
      9          1           0       -4.694270    0.590412    0.230943
     10          1           0       -0.468392    0.297755   -0.460122
     11          1           0       -0.786740   -1.963299   -1.492776
     12          7           0       -2.376011    1.871151    0.536598
     13          8           0       -1.228361    2.307329    0.593912
     14          8           0       -3.376745    2.456112    0.945241
     15          6           0        3.464199    0.224981   -0.189007
     16          6           0        4.953648    0.515591   -0.376284
     17          6           0        5.210669    1.778152   -1.199495
     18          1           0        2.989940    0.124490   -1.174870
     19          1           0        2.988435    1.086097    0.300404
     20          1           0        5.426729   -0.346381   -0.863946
     21          1           0        5.424454    0.615212    0.610141
     22          1           0        4.764945    2.652175   -0.713682
     23          1           0        4.767231    1.685118   -2.196145
     24          1           0        6.281843    1.967020   -1.321048
     25          6           0        3.191161   -1.034097    0.631907
     26          6           0        1.701711   -1.324706    0.819184
     27          6           0        1.444691   -2.587267    1.642396
     28          1           0        3.666925   -1.895212    0.142496
     29          1           0        3.665420   -0.933606    1.617770
     30          1           0        1.230906   -1.424327   -0.167241
     31          1           0        1.228632   -0.462734    1.306846
     32          1           0        1.888128   -2.494233    2.639045
     33          1           0        1.890415   -3.461290    1.156582
     34          1           0        0.373518   -2.776135    1.763948
 ---------------------------------------------------------------------

 SCF Done:  E(RHF) =  -669.534577422     A.U. after   15 cycles
 E2 =    -0.2093067762D+01 EUMP2 =    -0.67162764518474D+03

 The electronic state is 1-A.
 Alpha  occ. eigenvalues --  -20.60745 -20.60739 -15.85794 -11.31109 -11.27710
 Alpha  occ. eigenvalues --  -11.27619 -11.27455 -11.26713 -11.26687 -11.22173
 Alpha  occ. eigenvalues --  -11.21712 -11.21700 -11.21558 -11.21525 -11.21059
 Alpha  occ. eigenvalues --   -1.59818  -1.39372  -1.19301  -1.08736  -1.08703
 Alpha  occ. eigenvalues --   -1.04715  -1.03809  -0.96231  -0.95543  -0.87255
 Alpha  occ. eigenvalues --   -0.86101  -0.82401  -0.79964  -0.78571  -0.77377
 Alpha  occ. eigenvalues --   -0.72014  -0.71139  -0.70412  -0.65399  -0.64945
 Alpha  occ. eigenvalues --   -0.64702  -0.62137  -0.61178  -0.59589  -0.57845
 Alpha  occ. eigenvalues --   -0.55505  -0.55213  -0.53055  -0.52941  -0.52805
 Alpha  occ. eigenvalues --   -0.52614  -0.50173  -0.48776  -0.48769  -0.48187
 Alpha  occ. eigenvalues --   -0.46959  -0.46063  -0.45945  -0.44783  -0.44055
 Alpha  occ. eigenvalues --   -0.37292  -0.36269
 Alpha virt. eigenvalues --    0.05085   0.11313   0.16517   0.20360   0.22939
 Alpha virt. eigenvalues --    0.24098   0.25370   0.25787   0.27427   0.28189
 Alpha virt. eigenvalues --    0.29315   0.30479   0.31498   0.31549   0.31973

 Mulliken charges:
               1
     1  C   -0.170960
     2  C   -0.219142
     3  C   -0.170708
     4  C    0.156103
     5  C   -0.169970
     6  C   -0.221686
     7  H    0.225387
     8  H    0.223130
     9  H    0.275252
    10  H    0.281228
    11  H    0.224457
    12  N    0.488622
    13  O   -0.461720
    14  O   -0.460501
    15  C   -0.301959
    16  C   -0.299658
    17  C   -0.476323
    18  H    0.144396
    19  H    0.158679
    20  H    0.150621
    21  H    0.153575
    22  H    0.159264
    23  H    0.154405
    24  H    0.160492
    25  C   -0.297051
    26  C   -0.307459
    27  C   -0.476873
    28  H    0.148373
    29  H    0.153419
    30  H    0.138555
    31  H    0.163099
    32  H    0.160008
    33  H    0.153518
    34  H    0.161425
 Sum of Mulliken charges =  -0.00000

 Dipole moment (field-independent basis, Debye):
    X=             -0.5587    Y=             -4.6269    Z=             -2.0205  Tot=              5.0796
 Quadrupole moment (field-independent basis, Debye-Ang):
   XX=            -86.2596   YY=           -100.9941   ZZ=            -94.5832
   XY=             11.4450   XZ=              5.2140   YZ=              0.2043

 Normal termination of Gaussian 16 at Thu May  6 06:08:46 2021.
