 Gaussian 16, Revision A.03,
 Gaussian 16:  EM64L-G16RevA.03 25-Dec-2016

 -------------
 #p 6-31g* mp2
 -------------

 ------------------------------------------------------
 Input file generated by CHIRIPA (05-May-2021 14:53:12)
 ------------------------------------------------------
 Symbolic Z-matrix:
 Charge =  0 Multiplicity = 1

                         Standard orientation:
 ---------------------------------------------------------------------
 Center     Atomic      Atomic             Coordinates (Angstroms)
 Number     Number       Type             X           Y           Z
 ---------------------------------------------------------------------
      1          6           0        4.606493    0.172650   -0.112099
      2          6           0        5.489289   -0.896245   -0.757174
      3          6           0        6.581451   -0.302602   -1.647434
      4          1           0        4.146741    0.784193   -0.900508
      5          1           0        5.236663    0.849679    0.481123
      6          1           0        4.857465   -1.571875   -1.347884
      7          1           0        5.946842   -1.505435    0.032857
      8          1           0        7.235673    0.356135   -1.067209
      9          1           0        6.140107    0.289318   -2.455795
     10          1           0        7.200731   -1.084243   -2.098421
     11          6           0        3.509958   -0.405257    0.780853
     12          6           0        2.627162    0.663637    1.425928
     13          6           0        1.535000    0.069994    2.316188
     14          1           0        2.879788   -1.082286    0.187631
     15          1           0        3.969711   -1.016800    1.569262
     16          1           0        2.169609    1.272828    0.635897
     17          1           0        3.258986    1.339268    2.016638
     18          1           0        1.976345   -0.521925    3.124548
     19          1           0        0.880778   -0.588743    1.735963
     20          1           0        0.915721    0.851636    2.767175
     21          6           0       -1.668534    2.113411   -0.400341
     22          6           0       -1.115537    0.842462   -0.212187
     23          6           0       -1.938139   -0.285237   -0.133627
     24          6           0       -3.315692   -0.104670   -0.247784
     25          6           0       -3.896753    1.148462   -0.435710
     26          6           0       -3.054933    2.262093   -0.511306
     27          1           0       -1.022053    2.983971   -0.460216
     28          1           0       -0.039188    0.723994   -0.125676
     29          1           0       -1.536582   -1.280762    0.011626
     30          1           0       -4.973364    1.234952   -0.518441
     31          1           0       -3.487182    3.247914   -0.657472
     32          7           0       -4.196716   -1.291067   -0.166184
     33          8           0       -5.407258   -1.105305   -0.269718
     34          8           0       -3.660039   -2.384263   -0.000238
 ---------------------------------------------------------------------

 SCF Done:  E(RHF) =  -669.534659170     A.U. after   15 cycles
 E2 =    -0.2092325812D+01 EUMP2 =    -0.67162698498115D+03

 The electronic state is 1-A.
 Alpha  occ. eigenvalues --  -20.60729 -20.60724 -15.85782 -11.31145 -11.27704
 Alpha  occ. eigenvalues --  -11.27697 -11.27435 -11.26730 -11.26654 -11.22667
 Alpha  occ. eigenvalues --  -11.22214 -11.22131 -11.22047 -11.21997 -11.21511
 Alpha  occ. eigenvalues --   -1.59805  -1.39358  -1.19310  -1.09216  -1.08705
 Alpha  occ. eigenvalues --   -1.04728  -1.04283  -0.96716  -0.95544  -0.87727
 Alpha  occ. eigenvalues --   -0.86112  -0.82380  -0.80366  -0.78988  -0.77435
 Alpha  occ. eigenvalues --   -0.72001  -0.71127  -0.70424  -0.65989  -0.64963
 Alpha  occ. eigenvalues --   -0.64701  -0.62332  -0.61397  -0.60084  -0.58311
 Alpha  occ. eigenvalues --   -0.56033  -0.55184  -0.53413  -0.53117  -0.53024
 Alpha  occ. eigenvalues --   -0.52751  -0.50666  -0.48771  -0.48756  -0.48643
 Alpha  occ. eigenvalues --   -0.47443  -0.46524  -0.46445  -0.44765  -0.44523
 Alpha  occ. eigenvalues --   -0.37289  -0.36292
 Alpha virt. eigenvalues --    0.05094   0.11308   0.16537   0.19179   0.22725
 Alpha virt. eigenvalues --    0.23920   0.25358   0.25637   0.27119   0.28222
 Alpha virt. eigenvalues --    0.28764   0.30490   0.30896   0.31182   0.32035

 Mulliken charges:
               1
     1  C   -0.298375
     2  C   -0.300353
     3  C   -0.476123
     4  H    0.147596
     5  H    0.151188
     6  H    0.153034
     7  H    0.153795
     8  H    0.155802
     9  H    0.155097
    10  H    0.162460
    11  C   -0.298812
    12  C   -0.305989
    13  C   -0.478257
    14  H    0.147820
    15  H    0.154632
    16  H    0.141367
    17  H    0.158313
    18  H    0.162631
    19  H    0.149771
    20  H    0.164267
    21  C   -0.174331
    22  C   -0.221439
    23  C   -0.173966
    24  C    0.158815
    25  C   -0.171483
    26  C   -0.218360
    27  H    0.225166
    28  H    0.235081
    29  H    0.275110
    30  H    0.275386
    31  H    0.223174
    32  N    0.488119
    33  O   -0.460604
    34  O   -0.460530
 Sum of Mulliken charges =  -0.00000

 Dipole moment (field-independent basis, Debye):
    X=              3.3172    Y=              4.1488    Z=             -0.1909  Tot=              5.3153
 Quadrupole moment (field-independent basis, Debye-Ang):
   XX=           -111.8323   YY=            -94.4367   ZZ=            -94.8624
   XY=            -17.3870   XZ=              2.0479   YZ=             -1.2176

 Normal termination of Gaussian 16 at Thu May  6 02:32:59 2021.
