 Gaussian 16, Revision A.03,
 Gaussian 16:  EM64L-G16RevA.03 25-Dec-2016

 -------------
 #p 6-31g* mp2
 -------------

 ------------------------------------------------------
 Input file generated by CHIRIPA (05-May-2021 14:53:18)
 ------------------------------------------------------
 Symbolic Z-matrix:
 Charge =  0 Multiplicity = 1

                         Standard orientation:
 ---------------------------------------------------------------------
 Center     Atomic      Atomic             Coordinates (Angstroms)
 Number     Number       Type             X           Y           Z
 ---------------------------------------------------------------------
      1          6           0        5.133954   -0.337211   -0.296872
      2          6           0        6.049994    0.692459    0.365425
      3          6           0        7.450530    0.718540   -0.247446
      4          1           0        5.590978   -1.332734   -0.213151
      5          1           0        5.061222   -0.115974   -1.370724
      6          1           0        6.119873    0.470167    1.437955
      7          1           0        5.590645    1.685619    0.280286
      8          1           0        7.400055    0.962703   -1.313485
      9          1           0        7.932289   -0.259654   -0.149239
     10          1           0        8.088692    1.461570    0.240935
     11          6           0        3.730338   -0.375192    0.304914
     12          6           0        2.814298   -1.404862   -0.357383
     13          6           0        1.413762   -1.430944    0.255488
     14          1           0        3.803069   -0.596430    1.378766
     15          1           0        3.273314    0.620330    0.221193
     16          1           0        3.273647   -2.398022   -0.272244
     17          1           0        2.744419   -1.182571   -1.429912
     18          1           0        0.932002   -0.452749    0.157281
     19          1           0        1.464237   -1.675106    1.321527
     20          1           0        0.775600   -2.173973   -0.232893
     21          6           0       -2.362042    2.548601    0.014723
     22          6           0       -1.583106    1.392188    0.126468
     23          6           0       -2.182171    0.129021    0.117726
     24          6           0       -3.569014    0.058797   -0.004869
     25          6           0       -4.372216    1.192533   -0.117989
     26          6           0       -3.751662    2.445265   -0.106934
     27          1           0       -1.888327    3.525807    0.022412
     28          1           0       -0.503694    1.469413    0.221075
     29          1           0       -1.603083   -0.782494    0.202658
     30          1           0       -5.445958    1.083651   -0.210951
     31          1           0       -4.359104    3.341647   -0.193882
     32          7           0       -4.214592   -1.272939   -0.015347
     33          8           0       -5.438318   -1.307874   -0.124492
     34          8           0       -3.484647   -2.256601    0.085782
 ---------------------------------------------------------------------

 SCF Done:  E(RHF) =  -669.535073844     A.U. after   15 cycles
 E2 =    -0.2091705423D+01 EUMP2 =    -0.67162677926687D+03

 The electronic state is 1-A.
 Alpha  occ. eigenvalues --  -20.60698 -20.60693 -15.85749 -11.31086 -11.27679
 Alpha  occ. eigenvalues --  -11.27606 -11.27430 -11.26692 -11.26664 -11.22202
 Alpha  occ. eigenvalues --  -11.22005 -11.21967 -11.21906 -11.21816 -11.21397
 Alpha  occ. eigenvalues --   -1.59773  -1.39326  -1.19270  -1.08952  -1.08675
 Alpha  occ. eigenvalues --   -1.04681  -1.04062  -0.96541  -0.95508  -0.87569
 Alpha  occ. eigenvalues --   -0.86075  -0.82352  -0.80143  -0.78753  -0.77386
 Alpha  occ. eigenvalues --   -0.71970  -0.71095  -0.70388  -0.65592  -0.64929
 Alpha  occ. eigenvalues --   -0.64699  -0.62155  -0.61370  -0.59888  -0.58121
 Alpha  occ. eigenvalues --   -0.55844  -0.55174  -0.53260  -0.53005  -0.52972
 Alpha  occ. eigenvalues --   -0.52696  -0.50475  -0.48729  -0.48724  -0.48439
 Alpha  occ. eigenvalues --   -0.47152  -0.46301  -0.46205  -0.44737  -0.44304
 Alpha  occ. eigenvalues --   -0.37263  -0.36273
 Alpha virt. eigenvalues --    0.05142   0.11375   0.16625   0.20115   0.22539
 Alpha virt. eigenvalues --    0.23822   0.25367   0.26087   0.26761   0.27984
 Alpha virt. eigenvalues --    0.28824   0.29356   0.31284   0.31551   0.32315

 Mulliken charges:
               1
     1  C   -0.298799
     2  C   -0.299788
     3  C   -0.475994
     4  H    0.151942
     5  H    0.150209
     6  H    0.152733
     7  H    0.150498
     8  H    0.155549
     9  H    0.156426
    10  H    0.161029
    11  C   -0.298006
    12  C   -0.300236
    13  C   -0.485382
    14  H    0.151327
    15  H    0.143941
    16  H    0.157089
    17  H    0.153860
    18  H    0.143993
    19  H    0.161221
    20  H    0.170063
    21  C   -0.170473
    22  C   -0.225145
    23  C   -0.175903
    24  C    0.158004
    25  C   -0.170313
    26  C   -0.219181
    27  H    0.225256
    28  H    0.226142
    29  H    0.285178
    30  H    0.275238
    31  H    0.223032
    32  N    0.488029
    33  O   -0.460810
    34  O   -0.460728
 Sum of Mulliken charges =  -0.00000

 Dipole moment (field-independent basis, Debye):
    X=              2.4744    Y=              4.5613    Z=              0.0328  Tot=              5.1894
 Quadrupole moment (field-independent basis, Debye-Ang):
   XX=           -107.5697   YY=            -93.0452   ZZ=            -95.2574
   XY=            -19.6237   XZ=              0.8982   YZ=             -0.7130

 Normal termination of Gaussian 16 at Thu May  6 07:37:37 2021.
