 Gaussian 16, Revision A.03,
 Gaussian 16:  EM64L-G16RevA.03 25-Dec-2016

 -------------
 #p 6-31g* mp2
 -------------

 ------------------------------------------------------
 Input file generated by CHIRIPA (05-May-2021 14:55:23)
 ------------------------------------------------------
 Symbolic Z-matrix:
 Charge =  0 Multiplicity = 1

                         Standard orientation:
 ---------------------------------------------------------------------
 Center     Atomic      Atomic             Coordinates (Angstroms)
 Number     Number       Type             X           Y           Z
 ---------------------------------------------------------------------
      1          6           0        3.724466    2.678065    0.114782
      2          6           0        4.815804    1.803267    0.099557
      3          6           0        4.617176    0.421541    0.022567
      4          6           0        3.307859   -0.053119   -0.038062
      5          6           0        2.199995    0.792901   -0.024782
      6          6           0        2.422340    2.170984    0.052673
      7          1           0        3.887977    3.750008    0.174771
      8          1           0        5.828160    2.194247    0.147676
      9          1           0        5.443932   -0.278252    0.009114
     10          1           0        1.202500    0.373373   -0.073969
     11          1           0        1.572893    2.847998    0.064323
     12          7           0        3.085026   -1.513962   -0.119815
     13          8           0        1.921661   -1.906997   -0.172198
     14          8           0        4.077953   -2.238275   -0.129960
     15          6           0       -3.601819   -0.438643   -0.256045
     16          6           0       -2.849275   -1.450158    0.609116
     17          6           0       -1.492181   -1.837353    0.020755
     18          1           0       -3.742794   -0.858687   -1.261349
     19          1           0       -2.983411    0.461505   -0.377292
     20          1           0       -3.469497   -2.347580    0.729841
     21          1           0       -2.710243   -1.027735    1.612533
     22          1           0       -0.851949   -0.955463   -0.083991
     23          1           0       -1.615516   -2.282806   -0.971697
     24          1           0       -0.971349   -2.561278    0.655205
     25          6           0       -4.960318   -0.041728    0.318990
     26          6           0       -5.712860    0.969786   -0.546170
     27          6           0       -7.069955    1.356982    0.042191
     28          1           0       -5.578724   -0.941877    0.440238
     29          1           0       -4.819343    0.378314    1.324295
     30          1           0       -5.851892    0.547364   -1.549587
     31          1           0       -5.092638    1.867208   -0.666895
     32          1           0       -6.946619    1.802434    1.034643
     33          1           0       -7.710188    0.475091    0.146937
     34          1           0       -7.590788    2.080906   -0.592259
 ---------------------------------------------------------------------

 SCF Done:  E(RHF) =  -669.534965264     A.U. after   15 cycles
 E2 =    -0.2091734797D+01 EUMP2 =    -0.67162670006041D+03

 The electronic state is 1-A.
 Alpha  occ. eigenvalues --  -20.60773 -20.60767 -15.85819 -11.31203 -11.27774
 Alpha  occ. eigenvalues --  -11.27770 -11.27523 -11.26796 -11.26786 -11.21561
 Alpha  occ. eigenvalues --  -11.21269 -11.21195 -11.21126 -11.21050 -11.20271
 Alpha  occ. eigenvalues --   -1.59850  -1.39402  -1.19379  -1.08772  -1.08232
 Alpha  occ. eigenvalues --   -1.04786  -1.03246  -0.95708  -0.95563  -0.86671
 Alpha  occ. eigenvalues --   -0.86183  -0.82437  -0.79320  -0.78057  -0.77458
 Alpha  occ. eigenvalues --   -0.72041  -0.71171  -0.70494  -0.65035  -0.64899
 Alpha  occ. eigenvalues --   -0.64777  -0.62159  -0.60648  -0.59048  -0.57275
 Alpha  occ. eigenvalues --   -0.55304  -0.54968  -0.53113  -0.52896  -0.52281
 Alpha  occ. eigenvalues --   -0.52077  -0.49661  -0.48803  -0.48772  -0.47604
 Alpha  occ. eigenvalues --   -0.46371  -0.45566  -0.45521  -0.44802  -0.43469
 Alpha  occ. eigenvalues --   -0.37361  -0.36388
 Alpha virt. eigenvalues --    0.05051   0.11265   0.16536   0.20671   0.22989
 Alpha virt. eigenvalues --    0.24083   0.25883   0.27089   0.27682   0.27777
 Alpha virt. eigenvalues --    0.29298   0.30417   0.31517   0.31972   0.32418

 Mulliken charges:
               1
     1  C   -0.170234
     2  C   -0.219169
     3  C   -0.169574
     4  C    0.153607
     5  C   -0.174020
     6  C   -0.223026
     7  H    0.225677
     8  H    0.223494
     9  H    0.275770
    10  H    0.288686
    11  H    0.223934
    12  N    0.490658
    13  O   -0.463871
    14  O   -0.460504
    15  C   -0.296294
    16  C   -0.302894
    17  C   -0.469870
    18  H    0.150541
    19  H    0.141991
    20  H    0.151838
    21  H    0.148244
    22  H    0.147521
    23  H    0.156057
    24  H    0.173443
    25  C   -0.297716
    26  C   -0.299053
    27  C   -0.475511
    28  H    0.150545
    29  H    0.148253
    30  H    0.152372
    31  H    0.149230
    32  H    0.154470
    33  H    0.155876
    34  H    0.159528
 Sum of Mulliken charges =  -0.00000

 Dipole moment (field-independent basis, Debye):
    X=              0.9067    Y=              4.9903    Z=              0.2830  Tot=              5.0799
 Quadrupole moment (field-independent basis, Debye-Ang):
   XX=            -85.9485   YY=            -94.9811   ZZ=            -95.5893
   XY=             17.3124   XZ=              1.6275   YZ=              0.0768

 Normal termination of Gaussian 16 at Thu May  6 14:18:02 2021.
