 Gaussian 16, Revision A.03,
 Gaussian 16:  EM64L-G16RevA.03 25-Dec-2016

 -------------
 #p 6-31g* mp2
 -------------

 ------------------------------------------------------
 Input file generated by CHIRIPA (05-May-2021 14:51:08)
 ------------------------------------------------------
 Symbolic Z-matrix:
 Charge =  0 Multiplicity = 1

                         Standard orientation:
 ---------------------------------------------------------------------
 Center     Atomic      Atomic             Coordinates (Angstroms)
 Number     Number       Type             X           Y           Z
 ---------------------------------------------------------------------
      1          6           0        2.087165   -1.430283    0.528808
      2          6           0        0.642922   -1.651792    0.979453
      3          6           0        0.466282   -2.938141    1.786854
      4          1           0        2.412850   -2.290025   -0.072623
      5          1           0        2.739452   -1.402042    1.412617
      6          1           0       -0.006630   -1.678225    0.095146
      7          1           0        0.320574   -0.791335    1.579721
      8          1           0        1.090470   -2.917355    2.686053
      9          1           0        0.761407   -3.809285    1.193043
     10          1           0       -0.573586   -3.076720    2.098832
     11          6           0        2.279733   -0.148354   -0.279464
     12          6           0        3.723976    0.073154   -0.730109
     13          6           0        3.900615    1.359504   -1.537510
     14          1           0        1.627445   -0.176596   -1.163273
     15          1           0        1.954048    0.711387    0.321967
     16          1           0        4.046323   -0.787303   -1.330377
     17          1           0        4.373528    0.099587    0.154198
     18          1           0        3.605491    2.230647   -0.943699
     19          1           0        3.276427    1.338718   -2.436709
     20          1           0        4.940483    1.498083   -1.849488
     21          6           0       -2.099109    1.216383    0.502971
     22          6           0       -1.107436    2.366560    0.325038
     23          6           0       -0.949494    3.211843    1.589294
     24          1           0       -3.075653    1.624823    0.797051
     25          1           0       -1.764623    0.578104    1.332498
     26          1           0       -1.442954    3.001701   -0.504805
     27          1           0       -0.133189    1.955348    0.031160
     28          1           0       -0.592079    2.596982    2.421642
     29          1           0       -1.909286    3.649281    1.882631
     30          1           0       -0.236089    4.028282    1.439827
     31          6           0       -2.267788    0.362255   -0.752315
     32          6           0       -3.259462   -0.787922   -0.574381
     33          6           0       -3.417404   -1.633205   -1.838639
     34          1           0       -2.602274    1.000533   -1.581842
     35          1           0       -1.291245   -0.046186   -1.046395
     36          1           0       -4.233708   -0.376711   -0.280504
     37          1           0       -2.923944   -1.423065    0.255461
     38          1           0       -2.457612   -2.070643   -2.131975
     39          1           0       -3.774818   -1.018344   -2.670985
     40          1           0       -4.130810   -2.449644   -1.689172
 ---------------------------------------------------------------------

 SCF Done:  E(RHF) =  -470.732008628     A.U. after   11 cycles
 E2 =    -0.1585991023D+01 EUMP2 =    -0.47231799965110D+03

 The electronic state is 1-A.
 Alpha  occ. eigenvalues --  -11.21684 -11.21675 -11.21562 -11.21507 -11.21476
 Alpha  occ. eigenvalues --  -11.21447 -11.21298 -11.21238 -11.21162 -11.21119
 Alpha  occ. eigenvalues --  -11.21073 -11.21048  -1.08572  -1.08326  -1.03622
 Alpha  occ. eigenvalues --   -1.03481  -0.96068  -0.95934  -0.87084  -0.86953
 Alpha  occ. eigenvalues --   -0.79735  -0.79510  -0.78454  -0.78111  -0.65190
 Alpha  occ. eigenvalues --   -0.65016  -0.61125  -0.60798  -0.59426  -0.59302
 Alpha  occ. eigenvalues --   -0.57683  -0.57545  -0.55384  -0.55211  -0.52754
 Alpha  occ. eigenvalues --   -0.52634  -0.52516  -0.52341  -0.50054  -0.49884
 Alpha  occ. eigenvalues --   -0.48070  -0.47868  -0.46851  -0.46578  -0.46338
 Alpha  occ. eigenvalues --   -0.45801  -0.45461  -0.45084  -0.43870  -0.43717
 Alpha virt. eigenvalues --    0.19953   0.22150   0.23168   0.23912   0.25310
 Alpha virt. eigenvalues --    0.26055   0.27082   0.27924   0.28527   0.30074
 Alpha virt. eigenvalues --    0.30607   0.31275   0.31574   0.31786   0.32300

 Mulliken charges:
               1
     1  C   -0.297655
     2  C   -0.308156
     3  C   -0.475944
     4  H    0.149882
     5  H    0.149766
     6  H    0.157588
     7  H    0.155073
     8  H    0.155496
     9  H    0.155634
    10  H    0.160442
    11  C   -0.305179
    12  C   -0.299104
    13  C   -0.476120
    14  H    0.150922
    15  H    0.154417
    16  H    0.152201
    17  H    0.152228
    18  H    0.155351
    19  H    0.155558
    20  H    0.160641
    21  C   -0.300154
    22  C   -0.307997
    23  C   -0.475581
    24  H    0.149136
    25  H    0.152485
    26  H    0.151569
    27  H    0.160332
    28  H    0.153627
    29  H    0.155388
    30  H    0.159718
    31  C   -0.302577
    32  C   -0.301634
    33  C   -0.475745
    34  H    0.149280
    35  H    0.154160
    36  H    0.152161
    37  H    0.153172
    38  H    0.153965
    39  H    0.155363
    40  H    0.160291
 Sum of Mulliken charges =  -0.00000

 Dipole moment (field-independent basis, Debye):
    X=              0.0632    Y=             -0.0305    Z=             -0.0037  Tot=              0.0703
 Quadrupole moment (field-independent basis, Debye-Ang):
   XX=            -84.3076   YY=            -85.5372   ZZ=            -85.0262
   XY=             -0.7356   XZ=              0.3622   YZ=              0.1531

 Normal termination of Gaussian 16 at Thu May  6 02:04:48 2021.
