 Gaussian 16, Revision A.03,
 Gaussian 16:  EM64L-G16RevA.03 25-Dec-2016

 -------------
 #p 6-31g* mp2
 -------------

 ------------------------------------------------------
 Input file generated by CHIRIPA (05-May-2021 14:51:14)
 ------------------------------------------------------
 Symbolic Z-matrix:
 Charge =  0 Multiplicity = 1

                         Standard orientation:
 ---------------------------------------------------------------------
 Center     Atomic      Atomic             Coordinates (Angstroms)
 Number     Number       Type             X           Y           Z
 ---------------------------------------------------------------------
      1          6           0       -4.044529   -0.477723   -0.484249
      2          6           0       -4.026078   -1.757634    0.352095
      3          6           0       -4.729100   -2.925993   -0.339635
      4          1           0       -5.086144   -0.204134   -0.701349
      5          1           0       -3.564519   -0.674065   -1.452977
      6          1           0       -4.504745   -1.558565    1.319497
      7          1           0       -2.984392   -2.028102    0.567392
      8          1           0       -4.248094   -3.153020   -1.296554
      9          1           0       -5.777085   -2.680814   -0.540176
     10          1           0       -4.704105   -3.830740    0.275724
     11          6           0       -3.345555    0.699237    0.193931
     12          6           0       -3.364006    1.979148   -0.642414
     13          6           0       -2.660984    3.147507    0.049317
     14          1           0       -3.825565    0.895579    1.162659
     15          1           0       -2.303940    0.425648    0.411031
     16          1           0       -4.405692    2.249617   -0.857710
     17          1           0       -2.885339    1.780079   -1.609815
     18          1           0       -1.612999    2.902329    0.249858
     19          1           0       -3.141990    3.374534    1.006236
     20          1           0       -2.685979    4.052255   -0.566042
     21          6           0        4.360012   -0.477352    0.227951
     22          6           0        5.475326    0.082835   -0.655368
     23          6           0        6.799440   -0.660959   -0.478490
     24          1           0        4.673297   -0.426190    1.279701
     25          1           0        4.217549   -1.541845   -0.004326
     26          1           0        5.614702    1.146295   -0.422468
     27          1           0        5.159272    0.030510   -1.705124
     28          1           0        6.682976   -1.720057   -0.730180
     29          1           0        7.140993   -0.597933    0.559764
     30          1           0        7.582755   -0.244133   -1.119218
     31          6           0        3.030072    0.255838    0.062368
     32          6           0        1.914758   -0.304349    0.945686
     33          6           0        0.590644    0.439445    0.768808
     34          1           0        3.172536    1.320331    0.294644
     35          1           0        2.716787    0.204676   -0.989383
     36          1           0        2.230812   -0.252024    1.995442
     37          1           0        1.775382   -1.367810    0.712785
     38          1           0        0.249091    0.376419   -0.269446
     39          1           0        0.707108    1.498543    1.020498
     40          1           0       -0.192671    0.022618    1.409536
 ---------------------------------------------------------------------

 SCF Done:  E(RHF) =  -470.732684350     A.U. after   11 cycles
 E2 =    -0.1583396633D+01 EUMP2 =    -0.47231608098373D+03

 The electronic state is 1-A.
 Alpha  occ. eigenvalues --  -11.21687 -11.21638 -11.21557 -11.21489 -11.21464
 Alpha  occ. eigenvalues --  -11.21402 -11.21296 -11.21202 -11.21161 -11.21100
 Alpha  occ. eigenvalues --  -11.21039 -11.20944  -1.08496  -1.08327  -1.03609
 Alpha  occ. eigenvalues --   -1.03440  -0.96067  -0.95887  -0.87098  -0.86903
 Alpha  occ. eigenvalues --   -0.79718  -0.79483  -0.78318  -0.78117  -0.65135
 Alpha  occ. eigenvalues --   -0.64965  -0.61004  -0.60849  -0.59458  -0.59245
 Alpha  occ. eigenvalues --   -0.57709  -0.57469  -0.55420  -0.55116  -0.52840
 Alpha  occ. eigenvalues --   -0.52585  -0.52512  -0.52259  -0.50081  -0.49744
 Alpha  occ. eigenvalues --   -0.48010  -0.47798  -0.46701  -0.46545  -0.45900
 Alpha  occ. eigenvalues --   -0.45769  -0.45667  -0.45565  -0.43747  -0.43674
 Alpha virt. eigenvalues --    0.21500   0.22972   0.23899   0.24354   0.25901
 Alpha virt. eigenvalues --    0.26408   0.27027   0.27352   0.27920   0.29252
 Alpha virt. eigenvalues --    0.30368   0.31056   0.31686   0.31943   0.32302

 Mulliken charges:
               1
     1  C   -0.297288
     2  C   -0.299813
     3  C   -0.475559
     4  H    0.149178
     5  H    0.148607
     6  H    0.151755
     7  H    0.151367
     8  H    0.154959
     9  H    0.155216
    10  H    0.159956
    11  C   -0.309961
    12  C   -0.298271
    13  C   -0.479830
    14  H    0.148003
    15  H    0.164199
    16  H    0.151263
    17  H    0.150739
    18  H    0.160131
    19  H    0.154484
    20  H    0.159361
    21  C   -0.298367
    22  C   -0.299673
    23  C   -0.475742
    24  H    0.149836
    25  H    0.149605
    26  H    0.152056
    27  H    0.151978
    28  H    0.155226
    29  H    0.155260
    30  H    0.160397
    31  C   -0.298828
    32  C   -0.300135
    33  C   -0.480267
    34  H    0.149777
    35  H    0.149707
    36  H    0.152517
    37  H    0.152165
    38  H    0.155523
    39  H    0.156947
    40  H    0.163526
 Sum of Mulliken charges =  -0.00000

 Dipole moment (field-independent basis, Debye):
    X=              0.0906    Y=             -0.0084    Z=              0.0276  Tot=              0.0951
 Quadrupole moment (field-independent basis, Debye-Ang):
   XX=            -85.4795   YY=            -85.4909   ZZ=            -84.1734
   XY=              0.0052   XZ=             -0.4029   YZ=              0.3019

 Normal termination of Gaussian 16 at Wed May  5 15:23:23 2021.
