 Gaussian 16, Revision A.03,
 Gaussian 16:  EM64L-G16RevA.03 25-Dec-2016

 -------------
 #p 6-31g* mp2
 -------------

 ------------------------------------------------------
 Input file generated by CHIRIPA (05-May-2021 14:57:24)
 ------------------------------------------------------
 Symbolic Z-matrix:
 Charge =  0 Multiplicity = 1

                         Standard orientation:
 ---------------------------------------------------------------------
 Center     Atomic      Atomic             Coordinates (Angstroms)
 Number     Number       Type             X           Y           Z
 ---------------------------------------------------------------------
      1          6           0       -2.270913    0.957112   -0.799140
      2          6           0       -2.422701   -0.370553   -0.385875
      3          6           0       -3.671973   -0.849528    0.019650
      4          6           0       -4.752880    0.030539   -0.000647
      5          6           0       -4.633617    1.358656   -0.407060
      6          6           0       -3.374909    1.815965   -0.808397
      7          1           0       -1.296784    1.320776   -1.112535
      8          1           0       -1.567083   -1.039803   -0.377661
      9          1           0       -3.817688   -1.872657    0.344292
     10          1           0       -5.505087    2.002047   -0.404456
     11          1           0       -3.259986    2.847539   -1.128851
     12          7           0       -6.080423   -0.465062    0.426447
     13          8           0       -7.017045    0.330329    0.399455
     14          8           0       -6.159192   -1.639522    0.780109
     15          6           0        2.053936   -0.521358   -0.146657
     16          6           0        2.555758    0.161214    0.966354
     17          6           0        3.928126    0.393550    1.097405
     18          6           0        4.773857   -0.072666    0.092083
     19          6           0        4.304353   -0.755849   -1.028682
     20          6           0        2.928294   -0.976909   -1.138874
     21          1           0        0.986414   -0.697461   -0.240359
     22          1           0        1.879071    0.516142    1.738471
     23          1           0        4.343509    0.919221    1.948607
     24          1           0        5.003676   -1.097633   -1.782042
     25          1           0        2.541391   -1.507291   -2.004347
     26          7           0        6.228676    0.167328    0.219779
     27          8           0        6.952855   -0.253561   -0.679693
     28          8           0        6.617235    0.771782    1.216922
 ---------------------------------------------------------------------

 SCF Done:  E(RHF) =  -868.336413011     A.U. after   16 cycles
 E2 =    -0.2599744657D+01 EUMP2 =    -0.87093615766821D+03

 The electronic state is 1-A.
 Alpha  occ. eigenvalues --  -20.61371 -20.61364 -20.61327 -20.61322 -15.86432
 Alpha  occ. eigenvalues --  -15.86384 -11.31950 -11.31911 -11.28594 -11.28516
 Alpha  occ. eigenvalues --  -11.28470 -11.28465 -11.28404 -11.28386 -11.27744
 Alpha  occ. eigenvalues --  -11.27587 -11.27574 -11.27554  -1.60443  -1.60398
 Alpha  occ. eigenvalues --   -1.39992  -1.39947  -1.20161  -1.20104  -1.09546
 Alpha  occ. eigenvalues --   -1.09498  -1.05594  -1.05516  -0.96348  -0.96298
 Alpha  occ. eigenvalues --   -0.87004  -0.86922  -0.83171  -0.83120  -0.78183
 Alpha  occ. eigenvalues --   -0.78110  -0.72649  -0.72600  -0.71769  -0.71722
 Alpha  occ. eigenvalues --   -0.71406  -0.71195  -0.65826  -0.65766  -0.65668
 Alpha  occ. eigenvalues --   -0.65494  -0.62945  -0.62846  -0.56152  -0.56115
 Alpha  occ. eigenvalues --   -0.53906  -0.53852  -0.53690  -0.53614  -0.49421
 Alpha  occ. eigenvalues --   -0.49391  -0.49371  -0.49344  -0.45363  -0.45316
 Alpha  occ. eigenvalues --   -0.38173  -0.38142  -0.37192  -0.37105
 Alpha virt. eigenvalues --    0.04367   0.04398   0.10422   0.10534   0.15776
 Alpha virt. eigenvalues --    0.15825   0.17373   0.21941   0.24517   0.26580
 Alpha virt. eigenvalues --    0.27218   0.29112   0.29633   0.30986   0.31902

 Mulliken charges:
               1
     1  C   -0.172852
     2  C   -0.223419
     3  C   -0.169542
     4  C    0.159222
     5  C   -0.169616
     6  C   -0.218231
     7  H    0.224045
     8  H    0.217108
     9  H    0.277694
    10  H    0.278429
    11  H    0.226543
    12  N    0.487866
    13  O   -0.458070
    14  O   -0.458982
    15  C   -0.176877
    16  C   -0.220305
    17  C   -0.170073
    18  C    0.159568
    19  C   -0.170063
    20  C   -0.219549
    21  H    0.220202
    22  H    0.225540
    23  H    0.278076
    24  H    0.277957
    25  H    0.224424
    26  N    0.487787
    27  O   -0.458483
    28  O   -0.458398
 Sum of Mulliken charges =  -0.00000

 Dipole moment (field-independent basis, Debye):
    X=             -0.4559    Y=              0.9911    Z=             -1.9233  Tot=              2.2111
 Quadrupole moment (field-independent basis, Debye-Ang):
   XX=           -196.1548   YY=           -100.0007   ZZ=           -101.8745
   XY=            -14.5423   XZ=              4.2138   YZ=              1.3561

 Normal termination of Gaussian 16 at Thu May  6 22:47:43 2021.
