 Gaussian 16, Revision A.03,
 Gaussian 16:  EM64L-G16RevA.03 25-Dec-2016

 -------------
 #p 6-31g* mp2
 -------------

 ------------------------------------------------------
 Input file generated by CHIRIPA (05-May-2021 14:55:22)
 ------------------------------------------------------
 Symbolic Z-matrix:
 Charge =  0 Multiplicity = 1

                         Standard orientation:
 ---------------------------------------------------------------------
 Center     Atomic      Atomic             Coordinates (Angstroms)
 Number     Number       Type             X           Y           Z
 ---------------------------------------------------------------------
      1          6           0       -2.705697    2.295367   -0.032653
      2          6           0       -1.632021    1.469941   -0.382526
      3          6           0       -1.779336    0.079714   -0.393307
      4          6           0       -3.019889   -0.453698   -0.047202
      5          6           0       -4.108513    0.342216    0.305938
      6          6           0       -3.938344    1.729867    0.309858
      7          1           0       -2.582382    3.374328   -0.026943
      8          1           0       -0.673581    1.906340   -0.648973
      9          1           0       -0.964802   -0.582666   -0.660149
     10          1           0       -5.051812   -0.122053    0.566817
     11          1           0       -4.773923    2.368455    0.581995
     12          7           0       -3.187943   -1.924106   -0.054984
     13          8           0       -4.291105   -2.369352    0.253927
     14          8           0       -2.213319   -2.603522   -0.369848
     15          6           0        4.249386   -0.263941   -0.290343
     16          6           0        4.623827   -1.432550    0.621870
     17          6           0        5.462781   -2.493623   -0.090925
     18          1           0        3.696973   -0.647570   -1.159028
     19          1           0        5.167633    0.195372   -0.681815
     20          1           0        3.705181   -1.888655    1.012601
     21          1           0        5.175247   -1.046072    1.488580
     22          1           0        6.395026   -2.059414   -0.466402
     23          1           0        4.916605   -2.906785   -0.945086
     24          1           0        5.719213   -3.319787    0.579565
     25          6           0        3.410626    0.805016    0.407897
     26          6           0        3.036184    1.973625   -0.504315
     27          6           0        2.197231    3.034698    0.208479
     28          1           0        2.492380    0.345703    0.799369
     29          1           0        3.963039    1.188646    1.276582
     30          1           0        2.484765    1.587148   -1.371026
     31          1           0        3.954832    2.429730   -0.895046
     32          1           0        2.743406    3.447860    1.062640
     33          1           0        1.264986    2.600490    0.583956
     34          1           0        1.940799    3.860862   -0.462011
 ---------------------------------------------------------------------

 SCF Done:  E(RHF) =  -669.535564148     A.U. after   15 cycles
 E2 =    -0.2091177378D+01 EUMP2 =    -0.67162674152603D+03

 The electronic state is 1-A.
 Alpha  occ. eigenvalues --  -20.60775 -20.60769 -15.85828 -11.31190 -11.27763
 Alpha  occ. eigenvalues --  -11.27760 -11.27493 -11.26770 -11.26727 -11.22379
 Alpha  occ. eigenvalues --  -11.22034 -11.21930 -11.21785 -11.21710 -11.21147
 Alpha  occ. eigenvalues --   -1.59850  -1.39404  -1.19362  -1.08915  -1.08754
 Alpha  occ. eigenvalues --   -1.04766  -1.04024  -0.96483  -0.95591  -0.87505
 Alpha  occ. eigenvalues --   -0.86159  -0.82425  -0.80103  -0.78667  -0.77475
 Alpha  occ. eigenvalues --   -0.72046  -0.71173  -0.70467  -0.65595  -0.65012
 Alpha  occ. eigenvalues --   -0.64767  -0.62186  -0.61355  -0.59881  -0.58060
 Alpha  occ. eigenvalues --   -0.55815  -0.55239  -0.53196  -0.53099  -0.52957
 Alpha  occ. eigenvalues --   -0.52759  -0.50410  -0.48803  -0.48801  -0.48398
 Alpha  occ. eigenvalues --   -0.47140  -0.46216  -0.46113  -0.44810  -0.44261
 Alpha  occ. eigenvalues --   -0.37337  -0.36364
 Alpha virt. eigenvalues --    0.05058   0.11207   0.16502   0.19446   0.22904
 Alpha virt. eigenvalues --    0.23776   0.25854   0.26846   0.27019   0.28599
 Alpha virt. eigenvalues --    0.28924   0.30459   0.31059   0.31543   0.32182

 Mulliken charges:
               1
     1  C   -0.172133
     2  C   -0.224499
     3  C   -0.172701
     4  C    0.158801
     5  C   -0.170912
     6  C   -0.218449
     7  H    0.226291
     8  H    0.232901
     9  H    0.275047
    10  H    0.275632
    11  H    0.223466
    12  N    0.488126
    13  O   -0.460361
    14  O   -0.460734
    15  C   -0.298755
    16  C   -0.300591
    17  C   -0.476174
    18  H    0.150016
    19  H    0.150336
    20  H    0.154912
    21  H    0.152041
    22  H    0.154633
    23  H    0.157006
    24  H    0.162202
    25  C   -0.298729
    26  C   -0.301304
    27  C   -0.482102
    28  H    0.148502
    29  H    0.152093
    30  H    0.148050
    31  H    0.156461
    32  H    0.161560
    33  H    0.150512
    34  H    0.158856
 Sum of Mulliken charges =  -0.00000

 Dipole moment (field-independent basis, Debye):
    X=              0.7384    Y=              5.1535    Z=              0.0653  Tot=              5.2066
 Quadrupole moment (field-independent basis, Debye-Ang):
   XX=            -92.7062   YY=           -100.4074   ZZ=            -95.2619
   XY=            -15.8133   XZ=             -1.1369   YZ=             -0.1992

 Normal termination of Gaussian 16 at Wed May  5 20:38:23 2021.
