 Gaussian 16, Revision A.03,
 Gaussian 16:  EM64L-G16RevA.03 25-Dec-2016

 -------------
 #p 6-31g* mp2
 -------------

 ------------------------------------------------------
 Input file generated by CHIRIPA (05-May-2021 14:53:18)
 ------------------------------------------------------
 Symbolic Z-matrix:
 Charge =  0 Multiplicity = 1

                         Standard orientation:
 ---------------------------------------------------------------------
 Center     Atomic      Atomic             Coordinates (Angstroms)
 Number     Number       Type             X           Y           Z
 ---------------------------------------------------------------------
      1          6           0       -4.144123   -0.870001   -0.139493
      2          6           0       -2.688668   -1.017223    0.305437
      3          6           0       -2.101410   -2.386721   -0.037198
      4          1           0       -4.746812   -1.657635    0.333098
      5          1           0       -4.207373   -1.036234   -1.223818
      6          1           0       -2.627978   -0.849396    1.388380
      7          1           0       -2.089408   -0.229030   -0.168118
      8          1           0       -2.132729   -2.559902   -1.117767
      9          1           0       -2.674359   -3.183793    0.447576
     10          1           0       -1.060265   -2.470282    0.289748
     11          6           0       -4.745202    0.493755    0.196071
     12          6           0       -6.200656    0.640977   -0.248858
     13          6           0       -6.787914    2.010475    0.093777
     14          1           0       -4.681951    0.659988    1.280396
     15          1           0       -4.142512    1.281389   -0.276520
     16          1           0       -6.799917   -0.147216    0.224697
     17          1           0       -6.261347    0.473150   -1.331802
     18          1           0       -6.214965    2.807547   -0.390997
     19          1           0       -6.756595    2.183656    1.174345
     20          1           0       -7.829059    2.094036   -0.233169
     21          6           0        4.390308    2.497089   -0.004815
     22          6           0        5.258820    1.405581    0.099196
     23          6           0        4.761346    0.099061    0.090696
     24          6           0        3.383652   -0.080229   -0.023772
     25          6           0        2.492732    0.986758   -0.129073
     26          6           0        3.012465    2.284569   -0.118417
     27          1           0        4.785403    3.508642    0.002626
     28          1           0        6.329325    1.567626    0.187540
     29          1           0        5.411130   -0.764045    0.169742
     30          1           0        1.430389    0.793601   -0.215888
     31          1           0        2.335600    3.130353   -0.199348
     32          7           0        2.845216   -1.458774   -0.033912
     33          8           0        1.627421   -1.590030   -0.135814
     34          8           0        3.651180   -2.381918    0.060236
 ---------------------------------------------------------------------

 SCF Done:  E(RHF) =  -669.536073473     A.U. after   15 cycles
 E2 =    -0.2090767448D+01 EUMP2 =    -0.67162684092074D+03

 The electronic state is 1-A.
 Alpha  occ. eigenvalues --  -20.60908 -20.60900 -15.85951 -11.31271 -11.27835
 Alpha  occ. eigenvalues --  -11.27831 -11.27575 -11.26844 -11.26834 -11.21366
 Alpha  occ. eigenvalues --  -11.21076 -11.20926 -11.20910 -11.20841 -11.19806
 Alpha  occ. eigenvalues --   -1.59973  -1.39529  -1.19440  -1.08845  -1.07982
 Alpha  occ. eigenvalues --   -1.04837  -1.02981  -0.95691  -0.95394  -0.86413
 Alpha  occ. eigenvalues --   -0.86236  -0.82521  -0.79080  -0.77783  -0.77572
 Alpha  occ. eigenvalues --   -0.72181  -0.71289  -0.70550  -0.65098  -0.64840
 Alpha  occ. eigenvalues --   -0.64625  -0.62184  -0.60393  -0.58798  -0.56981
 Alpha  occ. eigenvalues --   -0.55342  -0.54709  -0.53169  -0.52930  -0.52024
 Alpha  occ. eigenvalues --   -0.51819  -0.49372  -0.48930  -0.48915  -0.47364
 Alpha  occ. eigenvalues --   -0.46151  -0.45319  -0.45249  -0.44941  -0.43203
 Alpha  occ. eigenvalues --   -0.37421  -0.36439
 Alpha virt. eigenvalues --    0.04955   0.11216   0.16449   0.21115   0.23202
 Alpha virt. eigenvalues --    0.24566   0.26482   0.27308   0.27627   0.28352
 Alpha virt. eigenvalues --    0.28883   0.30554   0.31607   0.32061   0.32641

 Mulliken charges:
               1
     1  C   -0.297509
     2  C   -0.297411
     3  C   -0.484369
     4  H    0.149416
     5  H    0.148768
     6  H    0.148990
     7  H    0.145317
     8  H    0.152341
     9  H    0.149138
    10  H    0.188548
    11  C   -0.297168
    12  C   -0.299195
    13  C   -0.475289
    14  H    0.148340
    15  H    0.145905
    16  H    0.152266
    17  H    0.151653
    18  H    0.153435
    19  H    0.154584
    20  H    0.159653
    21  C   -0.170599
    22  C   -0.218634
    23  C   -0.170549
    24  C    0.157514
    25  C   -0.171077
    26  C   -0.218636
    27  H    0.225923
    28  H    0.223723
    29  H    0.275805
    30  H    0.276308
    31  H    0.223881
    32  N    0.494417
    33  O   -0.466373
    34  O   -0.459116
 Sum of Mulliken charges =  -0.00000

 Dipole moment (field-independent basis, Debye):
    X=              2.1572    Y=              4.7759    Z=              0.0462  Tot=              5.2406
 Quadrupole moment (field-independent basis, Debye-Ang):
   XX=            -78.6078   YY=            -96.0608   ZZ=            -94.9167
   XY=             15.3289   XZ=              0.3866   YZ=             -0.8479

 Normal termination of Gaussian 16 at Thu May  6 07:35:54 2021.
