 Gaussian 16, Revision A.03,
 Gaussian 16:  EM64L-G16RevA.03 25-Dec-2016

 -------------
 #p 6-31g* mp2
 -------------

 ------------------------------------------------------
 Input file generated by CHIRIPA (05-May-2021 14:51:10)
 ------------------------------------------------------
 Symbolic Z-matrix:
 Charge =  0 Multiplicity = 1

                         Standard orientation:
 ---------------------------------------------------------------------
 Center     Atomic      Atomic             Coordinates (Angstroms)
 Number     Number       Type             X           Y           Z
 ---------------------------------------------------------------------
      1          6           0        2.668965    0.062265   -0.351097
      2          6           0        4.106667    0.509013   -0.618327
      3          6           0        4.234821    1.366588   -1.877667
      4          1           0        2.299379   -0.500792   -1.219037
      5          1           0        2.027851    0.949816   -0.258239
      6          1           0        4.745123   -0.379085   -0.709278
      7          1           0        4.472939    1.070908    0.250428
      8          1           0        3.621610    2.269574   -1.792881
      9          1           0        3.895341    0.811343   -2.758040
     10          1           0        5.270772    1.674918   -2.049706
     11          6           0        2.524695   -0.795861    0.904504
     12          6           0        1.086992   -1.242609    1.171733
     13          6           0        0.958839   -2.100183    2.431073
     14          1           0        3.165808   -1.683411    0.811646
     15          1           0        2.894281   -0.232803    1.772443
     16          1           0        0.720721   -1.804504    0.302978
     17          1           0        0.448537   -0.354511    1.262684
     18          1           0        1.298319   -1.544938    3.311447
     19          1           0        1.572050   -3.003170    2.346288
     20          1           0       -0.077112   -2.408514    2.603113
     21          6           0       -2.522381   -0.393346   -0.268327
     22          6           0       -3.002996   -1.063909   -1.555703
     23          6           0       -2.847630   -2.584642   -1.523719
     24          1           0       -1.468190   -0.652171   -0.099100
     25          1           0       -3.085107   -0.802535    0.582144
     26          1           0       -2.440495   -0.652578   -2.403650
     27          1           0       -4.056111   -0.803301   -1.721985
     28          1           0       -3.422768   -3.013333   -0.696651
     29          1           0       -1.797973   -2.861753   -1.382189
     30          1           0       -3.197234   -3.043565   -2.453787
     31          6           0       -2.671279    1.126942   -0.285080
     32          6           0       -2.190663    1.797505    1.002297
     33          6           0       -2.346030    3.318238    0.970312
     34          1           0       -2.108552    1.536131   -1.135550
     35          1           0       -3.725469    1.385767   -0.454306
     36          1           0       -1.137549    1.536897    1.168579
     37          1           0       -2.753165    1.386174    1.850244
     38          1           0       -3.395687    3.595350    0.828782
     39          1           0       -1.770891    3.746929    0.143244
     40          1           0       -1.996426    3.777161    1.900381
 ---------------------------------------------------------------------

 SCF Done:  E(RHF) =  -470.732254258     A.U. after   11 cycles
 E2 =    -0.1584525257D+01 EUMP2 =    -0.47231677951523D+03

 The electronic state is 1-A.
 Alpha  occ. eigenvalues --  -11.21657 -11.21645 -11.21614 -11.21536 -11.21476
 Alpha  occ. eigenvalues --  -11.21411 -11.21337 -11.21190 -11.21117 -11.21099
 Alpha  occ. eigenvalues --  -11.21086 -11.21052  -1.08515  -1.08367  -1.03590
 Alpha  occ. eigenvalues --   -1.03506  -0.96033  -0.95945  -0.87049  -0.86966
 Alpha  occ. eigenvalues --   -0.79722  -0.79569  -0.78486  -0.78011  -0.65182
 Alpha  occ. eigenvalues --   -0.64982  -0.61064  -0.60840  -0.59415  -0.59312
 Alpha  occ. eigenvalues --   -0.57696  -0.57516  -0.55318  -0.55237  -0.52729
 Alpha  occ. eigenvalues --   -0.52653  -0.52458  -0.52375  -0.49981  -0.49904
 Alpha  occ. eigenvalues --   -0.48145  -0.47912  -0.46876  -0.46503  -0.46289
 Alpha  occ. eigenvalues --   -0.45744  -0.45688  -0.44950  -0.43825  -0.43733
 Alpha virt. eigenvalues --    0.20836   0.22724   0.23476   0.24106   0.25564
 Alpha virt. eigenvalues --    0.26332   0.27033   0.27927   0.27966   0.29837
 Alpha virt. eigenvalues --    0.30040   0.31439   0.31740   0.31920   0.32152

 Mulliken charges:
               1
     1  C   -0.299010
     2  C   -0.299577
     3  C   -0.475779
     4  H    0.149342
     5  H    0.148797
     6  H    0.152255
     7  H    0.152209
     8  H    0.155170
     9  H    0.155193
    10  H    0.160538
    11  C   -0.296590
    12  C   -0.311779
    13  C   -0.475358
    14  H    0.149737
    15  H    0.149780
    16  H    0.152851
    17  H    0.161392
    18  H    0.155216
    19  H    0.155235
    20  H    0.161548
    21  C   -0.309520
    22  C   -0.298885
    23  C   -0.476328
    24  H    0.164348
    25  H    0.147797
    26  H    0.151437
    27  H    0.151425
    28  H    0.155104
    29  H    0.154858
    30  H    0.160095
    31  C   -0.297540
    32  C   -0.305383
    33  C   -0.475331
    34  H    0.149098
    35  H    0.149325
    36  H    0.155774
    37  H    0.152041
    38  H    0.155546
    39  H    0.155021
    40  H    0.159949
 Sum of Mulliken charges =  -0.00000

 Dipole moment (field-independent basis, Debye):
    X=              0.0498    Y=             -0.0113    Z=              0.0276  Tot=              0.0580
 Quadrupole moment (field-independent basis, Debye-Ang):
   XX=            -84.0539   YY=            -85.7346   ZZ=            -85.1104
   XY=             -0.1674   XZ=             -0.2786   YZ=              0.8104

 Normal termination of Gaussian 16 at Thu May  6 03:47:50 2021.
