 Gaussian 16, Revision A.03,
 Gaussian 16:  EM64L-G16RevA.03 25-Dec-2016

 -------------
 #p 6-31g* mp2
 -------------

 ------------------------------------------------------
 Input file generated by CHIRIPA (05-May-2021 14:57:23)
 ------------------------------------------------------
 Symbolic Z-matrix:
 Charge =  0 Multiplicity = 1

                         Standard orientation:
 ---------------------------------------------------------------------
 Center     Atomic      Atomic             Coordinates (Angstroms)
 Number     Number       Type             X           Y           Z
 ---------------------------------------------------------------------
      1          6           0       -1.396483   -0.750977   -0.666718
      2          6           0       -2.440608   -1.522471   -1.187409
      3          6           0       -3.770187   -1.215924   -0.882784
      4          6           0       -4.020602   -0.126010   -0.050518
      5          6           0       -3.002108    0.661699    0.483782
      6          6           0       -1.680065    0.336728    0.165748
      7          1           0       -0.366561   -0.996266   -0.908566
      8          1           0       -2.223345   -2.367772   -1.834178
      9          1           0       -4.597744   -1.796382   -1.272191
     10          1           0       -3.249994    1.498286    1.125725
     11          1           0       -0.871200    0.937643    0.571560
     12          7           0       -5.424179    0.208270    0.279072
     13          8           0       -5.618362    1.173593    1.014654
     14          8           0       -6.303542   -0.501375   -0.204417
     15          6           0        4.737090   -2.108607    0.578970
     16          6           0        5.407107   -1.239513   -0.288368
     17          6           0        4.891181    0.031499   -0.558368
     18          6           0        3.697645    0.402464    0.059001
     19          6           0        3.006738   -0.440816    0.927804
     20          6           0        3.541153   -1.707192    1.183222
     21          1           0        5.145055   -3.094159    0.783048
     22          1           0        6.336072   -1.548576   -0.759056
     23          1           0        5.389280    0.724284   -1.225725
     24          1           0        2.082643   -0.104488    1.382062
     25          1           0        3.018649   -2.380050    1.857237
     26          7           0        3.141670    1.745573   -0.219117
     27          8           0        2.088521    2.048553    0.337404
     28          8           0        3.769574    2.469890   -0.988363
 ---------------------------------------------------------------------

 SCF Done:  E(RHF) =  -868.339069450     A.U. after   16 cycles
 E2 =    -0.2599262040D+01 EUMP2 =    -0.87093833148998D+03

 The electronic state is 1-A.
 Alpha  occ. eigenvalues --  -20.61856 -20.61795 -20.60496 -20.60487 -15.86867
 Alpha  occ. eigenvalues --  -15.85543 -11.32148 -11.30869 -11.28741 -11.28639
 Alpha  occ. eigenvalues --  -11.28360 -11.27685 -11.27632 -11.27449 -11.27358
 Alpha  occ. eigenvalues --  -11.27163 -11.26493 -11.26288  -1.60885  -1.59570
 Alpha  occ. eigenvalues --   -1.40447  -1.39124  -1.20294  -1.19025  -1.09693
 Alpha  occ. eigenvalues --   -1.08435  -1.05679  -1.04404  -0.96547  -0.95281
 Alpha  occ. eigenvalues --   -0.87076  -0.85805  -0.83382  -0.82099  -0.78457
 Alpha  occ. eigenvalues --   -0.77146  -0.73084  -0.72202  -0.71762  -0.71380
 Alpha  occ. eigenvalues --   -0.70892  -0.70155  -0.65941  -0.65662  -0.64672
 Alpha  occ. eigenvalues --   -0.64375  -0.63025  -0.61730  -0.56149  -0.54941
 Alpha  occ. eigenvalues --   -0.54011  -0.53756  -0.52760  -0.52471  -0.49849
 Alpha  occ. eigenvalues --   -0.49812  -0.48521  -0.48515  -0.45862  -0.44538
 Alpha  occ. eigenvalues --   -0.38251  -0.37287  -0.37026  -0.36007
 Alpha virt. eigenvalues --    0.04041   0.05358   0.10323   0.11622   0.15569
 Alpha virt. eigenvalues --    0.16864   0.19935   0.21785   0.25565   0.26894
 Alpha virt. eigenvalues --    0.28297   0.28601   0.30148   0.30987   0.31916

 Mulliken charges:
               1
     1  C   -0.174012
     2  C   -0.218504
     3  C   -0.172273
     4  C    0.158817
     5  C   -0.171874
     6  C   -0.227021
     7  H    0.222254
     8  H    0.220711
     9  H    0.274073
    10  H    0.276996
    11  H    0.241788
    12  N    0.487991
    13  O   -0.459974
    14  O   -0.461869
    15  C   -0.170541
    16  C   -0.217986
    17  C   -0.170527
    18  C    0.158561
    19  C   -0.176724
    20  C   -0.219026
    21  H    0.228843
    22  H    0.226817
    23  H    0.278021
    24  H    0.271883
    25  H    0.226279
    26  N    0.490387
    27  O   -0.469407
    28  O   -0.453684
 Sum of Mulliken charges =  -0.00000

 Dipole moment (field-independent basis, Debye):
    X=              7.3043    Y=             -5.8476    Z=             -0.1848  Tot=              9.3585
 Quadrupole moment (field-independent basis, Debye-Ang):
   XX=           -126.4320   YY=           -105.9213   ZZ=           -102.2671
   XY=            -10.9940   XZ=              6.2375   YZ=              1.9349

 Normal termination of Gaussian 16 at Thu May  6 14:36:39 2021.
