 Gaussian 16, Revision A.03,
 Gaussian 16:  EM64L-G16RevA.03 25-Dec-2016

 -------------
 #p 6-31g* mp2
 -------------

 ------------------------------------------------------
 Input file generated by CHIRIPA (05-May-2021 14:55:20)
 ------------------------------------------------------
 Symbolic Z-matrix:
 Charge =  0 Multiplicity = 1

                         Standard orientation:
 ---------------------------------------------------------------------
 Center     Atomic      Atomic             Coordinates (Angstroms)
 Number     Number       Type             X           Y           Z
 ---------------------------------------------------------------------
      1          6           0       -2.185533    2.201414    0.145485
      2          6           0       -3.405683    1.873412    0.745625
      3          6           0       -3.914275    0.574214    0.656370
      4          6           0       -3.173135   -0.376390   -0.043884
      5          6           0       -1.954434   -0.080480   -0.652567
      6          6           0       -1.465072    1.225142   -0.550469
      7          1           0       -1.797916    3.213157    0.219808
      8          1           0       -3.967360    2.629555    1.286745
      9          1           0       -4.856197    0.293032    1.111493
     10          1           0       -1.417261   -0.855760   -1.185300
     11          1           0       -0.517206    1.477016   -1.017539
     12          7           0       -3.701379   -1.755193   -0.145172
     13          8           0       -3.029240   -2.574508   -0.767739
     14          8           0       -4.777553   -1.990476    0.399922
     15          6           0        4.169517   -0.444705    0.397182
     16          6           0        5.445104   -1.061139   -0.178035
     17          6           0        5.871194   -2.332080    0.557457
     18          1           0        4.326177   -0.219397    1.460966
     19          1           0        3.359313   -1.185511    0.350598
     20          1           0        6.252312   -0.318926   -0.131651
     21          1           0        5.285453   -1.284829   -1.240621
     22          1           0        5.085349   -3.092186    0.500096
     23          1           0        6.057701   -2.120794    1.615367
     24          1           0        6.785143   -2.756067    0.129916
     25          6           0        3.730832    0.826520   -0.327575
     26          6           0        2.455245    1.442953    0.247641
     27          6           0        2.029155    2.713895   -0.487851
     28          1           0        4.541036    1.567325   -0.280991
     29          1           0        3.574172    0.601212   -1.391360
     30          1           0        2.614896    1.666644    1.310228
     31          1           0        1.648037    0.700740    0.201258
     32          1           0        1.842648    2.502608   -1.545761
     33          1           0        2.815000    3.473999   -0.430489
     34          1           0        1.115206    3.137882   -0.060310
 ---------------------------------------------------------------------

 SCF Done:  E(RHF) =  -669.535061745     A.U. after   15 cycles
 E2 =    -0.2092166894D+01 EUMP2 =    -0.67162722863971D+03

 The electronic state is 1-A.
 Alpha  occ. eigenvalues --  -20.60745 -20.60740 -15.85797 -11.31155 -11.27721
 Alpha  occ. eigenvalues --  -11.27708 -11.27452 -11.26742 -11.26649 -11.22501
 Alpha  occ. eigenvalues --  -11.22311 -11.22053 -11.21944 -11.21827 -11.21295
 Alpha  occ. eigenvalues --   -1.59820  -1.39374  -1.19322  -1.09057  -1.08716
 Alpha  occ. eigenvalues --   -1.04731  -1.04192  -0.96669  -0.95556  -0.87687
 Alpha  occ. eigenvalues --   -0.86114  -0.82390  -0.80265  -0.78796  -0.77441
 Alpha  occ. eigenvalues --   -0.72016  -0.71143  -0.70440  -0.65768  -0.64975
 Alpha  occ. eigenvalues --   -0.64740  -0.62236  -0.61448  -0.60032  -0.58226
 Alpha  occ. eigenvalues --   -0.55974  -0.55204  -0.53404  -0.53104  -0.53023
 Alpha  occ. eigenvalues --   -0.52718  -0.50593  -0.48773  -0.48768  -0.48570
 Alpha  occ. eigenvalues --   -0.47298  -0.46348  -0.46240  -0.44781  -0.44429
 Alpha  occ. eigenvalues --   -0.37297  -0.36310
 Alpha virt. eigenvalues --    0.05076   0.11264   0.16500   0.19726   0.22683
 Alpha virt. eigenvalues --    0.24048   0.25338   0.26185   0.26774   0.27163
 Alpha virt. eigenvalues --    0.28987   0.30351   0.31021   0.31516   0.32762

 Mulliken charges:
               1
     1  C   -0.175470
     2  C   -0.218349
     3  C   -0.171176
     4  C    0.158970
     5  C   -0.174150
     6  C   -0.221815
     7  H    0.225952
     8  H    0.223293
     9  H    0.275442
    10  H    0.275140
    11  H    0.236590
    12  N    0.488075
    13  O   -0.460662
    14  O   -0.460511
    15  C   -0.299092
    16  C   -0.300190
    17  C   -0.476293
    18  H    0.151042
    19  H    0.151352
    20  H    0.152160
    21  H    0.152567
    22  H    0.157169
    23  H    0.155674
    24  H    0.161528
    25  C   -0.298552
    26  C   -0.303064
    27  C   -0.485047
    28  H    0.151417
    29  H    0.149357
    30  H    0.156671
    31  H    0.151459
    32  H    0.152886
    33  H    0.164360
    34  H    0.153266
 Sum of Mulliken charges =  -0.00000

 Dipole moment (field-independent basis, Debye):
    X=              2.0632    Y=              4.8343    Z=              0.4034  Tot=              5.2716
 Quadrupole moment (field-independent basis, Debye-Ang):
   XX=           -102.7645   YY=            -99.1824   ZZ=            -93.7697
   XY=            -16.7884   XZ=             -3.4495   YZ=              1.3140

 Normal termination of Gaussian 16 at Thu May  6 14:05:53 2021.
