 Gaussian 16, Revision A.03,
 Gaussian 16:  EM64L-G16RevA.03 25-Dec-2016

 -------------
 #p 6-31g* mp2
 -------------

 ------------------------------------------------------
 Input file generated by CHIRIPA (05-May-2021 14:53:13)
 ------------------------------------------------------
 Symbolic Z-matrix:
 Charge =  0 Multiplicity = 1

                         Standard orientation:
 ---------------------------------------------------------------------
 Center     Atomic      Atomic             Coordinates (Angstroms)
 Number     Number       Type             X           Y           Z
 ---------------------------------------------------------------------
      1          6           0        2.706393   -0.588089   -0.018793
      2          6           0        2.197329   -1.882321    0.616662
      3          6           0        0.673708   -2.002715    0.573324
      4          1           0        2.254542    0.269333    0.498509
      5          1           0        2.363385   -0.540193   -1.061601
      6          1           0        2.542358   -1.928420    1.657549
      7          1           0        2.650593   -2.736760    0.097910
      8          1           0        0.314922   -1.982351   -0.460822
      9          1           0        0.206071   -1.169418    1.107678
     10          1           0        0.331442   -2.935202    1.032868
     11          6           0        4.227664   -0.453216    0.016876
     12          6           0        4.736728    0.841016   -0.618579
     13          6           0        6.260349    0.961410   -0.575242
     14          1           0        4.570672   -0.501112    1.059683
     15          1           0        4.679515   -1.310638   -0.500427
     16          1           0        4.283464    1.695455   -0.099828
     17          1           0        4.391699    0.887115   -1.659466
     18          1           0        6.727986    0.128113   -1.109596
     19          1           0        6.619135    0.941046    0.458904
     20          1           0        6.602615    1.893898   -1.034785
     21          6           0       -1.808728    2.639579    0.756158
     22          6           0       -1.684222    1.518538    1.583374
     23          6           0       -2.179129    0.276396    1.175086
     24          6           0       -2.795614    0.190899   -0.072281
     25          6           0       -2.934884    1.289477   -0.919052
     26          6           0       -2.432562    2.521679   -0.490218
     27          1           0       -1.421392    3.600643    1.081307
     28          1           0       -1.200212    1.607144    2.551841
     29          1           0       -2.096172   -0.607662    1.795552
     30          1           0       -3.422297    1.169992   -1.879036
     31          1           0       -2.530663    3.390597   -1.134734
     32          7           0       -3.323475   -1.118840   -0.515393
     33          8           0       -3.862439   -1.167857   -1.618910
     34          8           0       -3.188252   -2.071595    0.249204
 ---------------------------------------------------------------------

 SCF Done:  E(RHF) =  -669.534746338     A.U. after   15 cycles
 E2 =    -0.2092640263D+01 EUMP2 =    -0.67162738660013D+03

 The electronic state is 1-A.
 Alpha  occ. eigenvalues --  -20.60768 -20.60745 -15.85803 -11.31162 -11.27767
 Alpha  occ. eigenvalues --  -11.27744 -11.27518 -11.26774 -11.26759 -11.21768
 Alpha  occ. eigenvalues --  -11.21563 -11.21498 -11.21429 -11.21225 -11.20874
 Alpha  occ. eigenvalues --   -1.59825  -1.39378  -1.19364  -1.08751  -1.08506
 Alpha  occ. eigenvalues --   -1.04782  -1.03573  -0.96023  -0.95582  -0.87043
 Alpha  occ. eigenvalues --   -0.86160  -0.82422  -0.79653  -0.78327  -0.77456
 Alpha  occ. eigenvalues --   -0.72025  -0.71142  -0.70486  -0.65153  -0.65016
 Alpha  occ. eigenvalues --   -0.64778  -0.62153  -0.60970  -0.59377  -0.57638
 Alpha  occ. eigenvalues --   -0.55398  -0.55220  -0.53204  -0.52895  -0.52660
 Alpha  occ. eigenvalues --   -0.52325  -0.49955  -0.48784  -0.48776  -0.47954
 Alpha  occ. eigenvalues --   -0.46692  -0.45869  -0.45794  -0.44768  -0.43811
 Alpha  occ. eigenvalues --   -0.37333  -0.36307
 Alpha virt. eigenvalues --    0.05046   0.11250   0.16464   0.21231   0.22799
 Alpha virt. eigenvalues --    0.24262   0.26396   0.26879   0.27475   0.27829
 Alpha virt. eigenvalues --    0.28814   0.30733   0.31479   0.31737   0.32163

 Mulliken charges:
               1
     1  C   -0.297381
     2  C   -0.300720
     3  C   -0.476017
     4  H    0.145399
     5  H    0.150768
     6  H    0.149138
     7  H    0.153839
     8  H    0.158223
     9  H    0.146782
    10  H    0.167130
    11  C   -0.298179
    12  C   -0.299132
    13  C   -0.475641
    14  H    0.148547
    15  H    0.151119
    16  H    0.149032
    17  H    0.152379
    18  H    0.156302
    19  H    0.154857
    20  H    0.159734
    21  C   -0.169969
    22  C   -0.220144
    23  C   -0.168881
    24  C    0.159168
    25  C   -0.171018
    26  C   -0.218663
    27  H    0.225592
    28  H    0.223233
    29  H    0.277730
    30  H    0.275600
    31  H    0.223381
    32  N    0.488224
    33  O   -0.460857
    34  O   -0.459575
 Sum of Mulliken charges =  -0.00000

 Dipole moment (field-independent basis, Debye):
    X=              1.7950    Y=              4.5436    Z=              1.5168  Tot=              5.1153
 Quadrupole moment (field-independent basis, Debye-Ang):
   XX=           -106.8069   YY=            -92.2793   ZZ=            -90.7560
   XY=            -13.7066   XZ=             -3.1219   YZ=             -1.6054

 Normal termination of Gaussian 16 at Thu May  6 02:35:52 2021.
