 Gaussian 16, Revision A.03,
 Gaussian 16:  EM64L-G16RevA.03 25-Dec-2016

 -------------
 #p 6-31g* mp2
 -------------

 ------------------------------------------------------
 Input file generated by CHIRIPA (05-May-2021 14:53:13)
 ------------------------------------------------------
 Symbolic Z-matrix:
 Charge =  0 Multiplicity = 1

                         Standard orientation:
 ---------------------------------------------------------------------
 Center     Atomic      Atomic             Coordinates (Angstroms)
 Number     Number       Type             X           Y           Z
 ---------------------------------------------------------------------
      1          6           0        2.617714    0.700840   -0.595966
      2          6           0        2.692185    1.998190    0.209838
      3          6           0        1.865690    3.126291   -0.408295
      4          1           0        2.964772    0.892606   -1.620526
      5          1           0        1.567840    0.386409   -0.675292
      6          1           0        3.741741    2.309340    0.288797
      7          1           0        2.345090    1.803269    1.232651
      8          1           0        0.810779    2.840506   -0.472255
      9          1           0        2.215365    3.349452   -1.421472
     10          1           0        1.933184    4.044299    0.183792
     11          6           0        3.438834   -0.436286    0.009373
     12          6           0        3.364363   -1.733637   -0.796431
     13          6           0        4.190858   -2.861738   -0.178299
     14          1           0        4.488708   -0.121855    0.088698
     15          1           0        3.091776   -0.628052    1.033932
     16          1           0        3.711458   -1.538716   -1.819245
     17          1           0        2.314807   -2.044786   -0.875391
     18          1           0        3.841183   -3.084898    0.834878
     19          1           0        5.245769   -2.575952   -0.114338
     20          1           0        4.123364   -3.779745   -0.770385
     21          6           0       -3.894812   -0.435538   -1.750208
     22          6           0       -2.769651    0.387451   -1.865185
     23          6           0       -1.915524    0.578758   -0.775041
     24          6           0       -2.218024   -0.071225    0.420493
     25          6           0       -3.331345   -0.897376    0.566373
     26          6           0       -4.171580   -1.074200   -0.536934
     27          1           0       -4.552923   -0.578526   -2.602171
     28          1           0       -2.552235    0.884708   -2.806202
     29          1           0       -1.037663    1.210433   -0.836414
     30          1           0       -3.522007   -1.379744    1.517365
     31          1           0       -5.044683   -1.713917   -0.444744
     32          7           0       -1.321151    0.123637    1.581548
     33          8           0       -1.609663   -0.460249    2.623891
     34          8           0       -0.346652    0.856565    1.427257
 ---------------------------------------------------------------------

 SCF Done:  E(RHF) =  -669.535733932     A.U. after   15 cycles
 E2 =    -0.2093544910D+01 EUMP2 =    -0.67162927884202D+03

 The electronic state is 1-A.
 Alpha  occ. eigenvalues --  -20.61054 -20.61041 -15.86069 -11.31340 -11.27893
 Alpha  occ. eigenvalues --  -11.27881 -11.27619 -11.26893 -11.26878 -11.21083
 Alpha  occ. eigenvalues --  -11.20627 -11.20606 -11.20566 -11.20506 -11.20398
 Alpha  occ. eigenvalues --   -1.60108  -1.39669  -1.19503  -1.08918  -1.07655
 Alpha  occ. eigenvalues --   -1.04889  -1.02810  -0.95771  -0.95302  -0.86338
 Alpha  occ. eigenvalues --   -0.86290  -0.82610  -0.78893  -0.77723  -0.77440
 Alpha  occ. eigenvalues --   -0.72338  -0.71418  -0.70615  -0.65188  -0.64910
 Alpha  occ. eigenvalues --   -0.64193  -0.62256  -0.60125  -0.58679  -0.56925
 Alpha  occ. eigenvalues --   -0.55399  -0.54592  -0.53222  -0.52989  -0.52023
 Alpha  occ. eigenvalues --   -0.51756  -0.49290  -0.49089  -0.49031  -0.47221
 Alpha  occ. eigenvalues --   -0.45872  -0.45260  -0.44912  -0.44749  -0.43059
 Alpha  occ. eigenvalues --   -0.37477  -0.36483
 Alpha virt. eigenvalues --    0.04820   0.11102   0.16336   0.20480   0.23575
 Alpha virt. eigenvalues --    0.24197   0.26274   0.27550   0.28178   0.28317
 Alpha virt. eigenvalues --    0.29334   0.30681   0.31464   0.32440   0.32519

 Mulliken charges:
               1
     1  C   -0.298540
     2  C   -0.299307
     3  C   -0.479565
     4  H    0.140825
     5  H    0.149878
     6  H    0.145685
     7  H    0.174752
     8  H    0.154978
     9  H    0.146914
    10  H    0.160573
    11  C   -0.299909
    12  C   -0.298583
    13  C   -0.475533
    14  H    0.146923
    15  H    0.158867
    16  H    0.148327
    17  H    0.149109
    18  H    0.157324
    19  H    0.154396
    20  H    0.157126
    21  C   -0.169915
    22  C   -0.222661
    23  C   -0.174985
    24  C    0.153561
    25  C   -0.169460
    26  C   -0.218983
    27  H    0.226324
    28  H    0.225282
    29  H    0.289534
    30  H    0.275880
    31  H    0.224008
    32  N    0.493138
    33  O   -0.458121
    34  O   -0.467842
 Sum of Mulliken charges =  -0.00000

 Dipole moment (field-independent basis, Debye):
    X=             -3.3744    Y=             -0.7209    Z=             -3.8202  Tot=              5.1478
 Quadrupole moment (field-independent basis, Debye-Ang):
   XX=            -79.5132   YY=            -94.6569   ZZ=            -96.9531
   XY=              4.6257   XZ=              6.2349   YZ=             -1.5207

 Normal termination of Gaussian 16 at Thu May  6 20:19:14 2021.
