 Gaussian 16, Revision A.03,
 Gaussian 16:  EM64L-G16RevA.03 25-Dec-2016

 -------------
 #p 6-31g* mp2
 -------------

 ------------------------------------------------------
 Input file generated by CHIRIPA (05-May-2021 14:57:26)
 ------------------------------------------------------
 Symbolic Z-matrix:
 Charge =  0 Multiplicity = 1

                         Standard orientation:
 ---------------------------------------------------------------------
 Center     Atomic      Atomic             Coordinates (Angstroms)
 Number     Number       Type             X           Y           Z
 ---------------------------------------------------------------------
      1          6           0        5.001212    0.684650    0.555126
      2          6           0        3.894893    1.481931    0.243803
      3          6           0        2.688063    0.898113   -0.152765
      4          6           0        2.622482   -0.492353   -0.227561
      5          6           0        3.707150   -1.313671    0.076117
      6          6           0        4.903981   -0.708151    0.470439
      7          1           0        5.934822    1.146603    0.862317
      8          1           0        3.967509    2.563856    0.308686
      9          1           0        1.816072    1.491546   -0.399518
     10          1           0        3.604266   -2.389476    0.002101
     11          1           0        5.761536   -1.329825    0.711615
     12          7           0        1.350158   -1.121902   -0.646201
     13          8           0        1.318128   -2.349194   -0.704213
     14          8           0        0.409032   -0.376131   -0.908392
     15          6           0       -4.151358   -1.728600    0.536937
     16          6           0       -3.437464   -1.150685    1.591874
     17          6           0       -2.703078    0.022327    1.393717
     18          6           0       -2.704643    0.593278    0.121984
     19          6           0       -3.405776    0.041469   -0.949095
     20          6           0       -4.133267   -1.131730   -0.727949
     21          1           0       -4.719169   -2.639898    0.699800
     22          1           0       -3.449702   -1.612028    2.575265
     23          1           0       -2.141460    0.490892    2.192749
     24          1           0       -3.374485    0.524481   -1.918187
     25          1           0       -4.686749   -1.578329   -1.549079
     26          7           0       -1.930831    1.835193   -0.099965
     27          8           0       -1.948327    2.318680   -1.229819
     28          8           0       -1.321472    2.301604    0.860130
 ---------------------------------------------------------------------

 SCF Done:  E(RHF) =  -868.340201122     A.U. after   16 cycles
 E2 =    -0.2600258909D+01 EUMP2 =    -0.87094046003094D+03

 The electronic state is 1-A.
 Alpha  occ. eigenvalues --  -20.60639 -20.60633 -20.59926 -20.59876 -15.85679
 Alpha  occ. eigenvalues --  -15.84940 -11.30793 -11.30036 -11.27422 -11.27222
 Alpha  occ. eigenvalues --  -11.27112 -11.26655 -11.26587 -11.26399 -11.26393
 Alpha  occ. eigenvalues --  -11.26262 -11.25682 -11.25629  -1.59705  -1.58948
 Alpha  occ. eigenvalues --   -1.39267  -1.38524  -1.18966  -1.18203  -1.08422
 Alpha  occ. eigenvalues --   -1.07667  -1.04323  -1.03626  -0.95288  -0.94555
 Alpha  occ. eigenvalues --   -0.85739  -0.85047  -0.82135  -0.81430  -0.77193
 Alpha  occ. eigenvalues --   -0.76483  -0.72028  -0.71210  -0.71029  -0.70119
 Alpha  occ. eigenvalues --   -0.70011  -0.69411  -0.64622  -0.64329  -0.63918
 Alpha  occ. eigenvalues --   -0.63696  -0.61649  -0.61016  -0.54871  -0.54198
 Alpha  occ. eigenvalues --   -0.52690  -0.52411  -0.51905  -0.51773  -0.48660
 Alpha  occ. eigenvalues --   -0.48628  -0.47961  -0.47933  -0.44751  -0.43986
 Alpha  occ. eigenvalues --   -0.36976  -0.36119  -0.35914  -0.35194
 Alpha virt. eigenvalues --    0.05283   0.06141   0.11734   0.12459   0.16834
 Alpha virt. eigenvalues --    0.17620   0.21876   0.22383   0.27828   0.28259
 Alpha virt. eigenvalues --    0.28723   0.29290   0.31358   0.31869   0.33080

 Mulliken charges:
               1
     1  C   -0.170442
     2  C   -0.220139
     3  C   -0.170892
     4  C    0.155094
     5  C   -0.171652
     6  C   -0.219580
     7  H    0.224624
     8  H    0.226904
     9  H    0.289807
    10  H    0.272788
    11  H    0.221315
    12  N    0.492071
    13  O   -0.463102
    14  O   -0.466466
    15  C   -0.169212
    16  C   -0.217710
    17  C   -0.170596
    18  C    0.175275
    19  C   -0.163154
    20  C   -0.217289
    21  H    0.221728
    22  H    0.218483
    23  H    0.269454
    24  H    0.273335
    25  H    0.220077
    26  N    0.495184
    27  O   -0.462484
    28  O   -0.473420
 Sum of Mulliken charges =  -0.00000

 Dipole moment (field-independent basis, Debye):
    X=              1.8402    Y=             -2.0803    Z=              2.0891  Tot=              3.4754
 Quadrupole moment (field-independent basis, Debye-Ang):
   XX=            -67.2585   YY=           -109.3188   ZZ=           -101.8212
   XY=             12.4293   XZ=              2.6907   YZ=             -1.9365

 Normal termination of Gaussian 16 at Wed May  5 19:36:12 2021.
