 Gaussian 16, Revision A.03,
 Gaussian 16:  EM64L-G16RevA.03 25-Dec-2016

 -------------
 #p 6-31g* mp2
 -------------

 ------------------------------------------------------
 Input file generated by CHIRIPA (05-May-2021 14:53:17)
 ------------------------------------------------------
 Symbolic Z-matrix:
 Charge =  0 Multiplicity = 1

                         Standard orientation:
 ---------------------------------------------------------------------
 Center     Atomic      Atomic             Coordinates (Angstroms)
 Number     Number       Type             X           Y           Z
 ---------------------------------------------------------------------
      1          6           0        4.437131   -0.515944    0.205250
      2          6           0        5.500855    0.555541    0.446903
      3          6           0        6.724875    0.016821    1.188084
      4          1           0        4.126316   -0.939215    1.170226
      5          1           0        4.881248   -1.340607   -0.369281
      6          1           0        5.054495    1.378571    1.019616
      7          1           0        5.809036    0.976444   -0.518747
      8          1           0        7.196336   -0.790043    0.617737
      9          1           0        6.437508   -0.385631    2.164841
     10          1           0        7.472603    0.799421    1.350261
     11          6           0        3.207341    0.007309   -0.534718
     12          6           0        2.143617   -1.064176   -0.776372
     13          6           0        0.919597   -0.525456   -1.517553
     14          1           0        2.763224    0.831972    0.039812
     15          1           0        3.518157    0.430579   -1.499695
     16          1           0        1.835437   -1.485080    0.189278
     17          1           0        2.589977   -1.887206   -1.349085
     18          1           0        1.206964   -0.123004   -2.494310
     19          1           0        0.448136    0.281407   -0.947206
     20          1           0        0.171870   -1.308056   -1.679730
     21          6           0       -3.782295   -2.151263    0.586710
     22          6           0       -4.026564   -1.135627    1.516944
     23          6           0       -3.590026    0.170049    1.273644
     24          6           0       -2.909151    0.425870    0.084420
     25          6           0       -2.650489   -0.564497   -0.861919
     26          6           0       -3.096246   -1.862965   -0.597664
     27          1           0       -4.124988   -3.162743    0.783850
     28          1           0       -4.559113   -1.356617    2.437596
     29          1           0       -3.765641    0.975323    1.976574
     30          1           0       -2.117035   -0.313585   -1.770703
     31          1           0       -2.905129   -2.649729   -1.321903
     32          7           0       -2.442128    1.804315   -0.184243
     33          8           0       -1.844458    2.003844   -1.239522
     34          8           0       -2.682589    2.659109    0.665547
 ---------------------------------------------------------------------

 SCF Done:  E(RHF) =  -669.534955184     A.U. after   15 cycles
 E2 =    -0.2092540370D+01 EUMP2 =    -0.67162749555439D+03

 The electronic state is 1-A.
 Alpha  occ. eigenvalues --  -20.60864 -20.60847 -15.85878 -11.31167 -11.27774
 Alpha  occ. eigenvalues --  -11.27710 -11.27511 -11.26755 -11.26739 -11.21468
 Alpha  occ. eigenvalues --  -11.21397 -11.21208 -11.21120 -11.20915 -11.20865
 Alpha  occ. eigenvalues --   -1.59919  -1.39475  -1.19362  -1.08770  -1.08238
 Alpha  occ. eigenvalues --   -1.04761  -1.03359  -0.95839  -0.95591  -0.86862
 Alpha  occ. eigenvalues --   -0.86140  -0.82449  -0.79443  -0.78046  -0.77482
 Alpha  occ. eigenvalues --   -0.72104  -0.71240  -0.70482  -0.65022  -0.64876
 Alpha  occ. eigenvalues --   -0.64757  -0.62143  -0.60746  -0.59198  -0.57423
 Alpha  occ. eigenvalues --   -0.55291  -0.55074  -0.53173  -0.52929  -0.52360
 Alpha  occ. eigenvalues --   -0.52220  -0.49747  -0.48866  -0.48859  -0.47727
 Alpha  occ. eigenvalues --   -0.46464  -0.45598  -0.45518  -0.44772  -0.43632
 Alpha  occ. eigenvalues --   -0.37345  -0.36314
 Alpha virt. eigenvalues --    0.05009   0.11284   0.16412   0.21179   0.23072
 Alpha virt. eigenvalues --    0.24457   0.26458   0.26881   0.27663   0.27968
 Alpha virt. eigenvalues --    0.28827   0.30372   0.31638   0.31780   0.32397

 Mulliken charges:
               1
     1  C   -0.298141
     2  C   -0.299802
     3  C   -0.475598
     4  H    0.148407
     5  H    0.148088
     6  H    0.153608
     7  H    0.152489
     8  H    0.154319
     9  H    0.154483
    10  H    0.160389
    11  C   -0.298979
    12  C   -0.300028
    13  C   -0.480112
    14  H    0.153962
    15  H    0.151037
    16  H    0.149729
    17  H    0.149100
    18  H    0.158395
    19  H    0.168739
    20  H    0.144918
    21  C   -0.170074
    22  C   -0.219217
    23  C   -0.170784
    24  C    0.155084
    25  C   -0.166793
    26  C   -0.221054
    27  H    0.225606
    28  H    0.223251
    29  H    0.275357
    30  H    0.280926
    31  H    0.223317
    32  N    0.487675
    33  O   -0.458624
    34  O   -0.459674
 Sum of Mulliken charges =  -0.00000

 Dipole moment (field-independent basis, Debye):
    X=             -1.6849    Y=             -4.7202    Z=              0.9469  Tot=              5.1006
 Quadrupole moment (field-independent basis, Debye-Ang):
   XX=            -85.9834   YY=            -99.1963   ZZ=            -90.4981
   XY=             13.3147   XZ=             -5.8203   YZ=              1.6765

 Normal termination of Gaussian 16 at Thu May  6 02:47:55 2021.
