 Gaussian 16, Revision A.03,
 Gaussian 16:  EM64L-G16RevA.03 25-Dec-2016

 -------------
 #p 6-31g* mp2
 -------------

 ------------------------------------------------------
 Input file generated by CHIRIPA (05-May-2021 14:53:12)
 ------------------------------------------------------
 Symbolic Z-matrix:
 Charge =  0 Multiplicity = 1

                         Standard orientation:
 ---------------------------------------------------------------------
 Center     Atomic      Atomic             Coordinates (Angstroms)
 Number     Number       Type             X           Y           Z
 ---------------------------------------------------------------------
      1          6           0       -3.665397   -0.024181   -0.060972
      2          6           0       -3.344372   -1.383901   -0.682332
      3          6           0       -4.579507   -2.077075   -1.258306
      4          1           0       -4.415256   -0.157811    0.730735
      5          1           0       -4.126493    0.619598   -0.822768
      6          1           0       -2.882754   -2.024457    0.080042
      7          1           0       -2.595048   -1.247044   -1.472523
      8          1           0       -5.038646   -1.460795   -2.038045
      9          1           0       -5.327986   -2.242625   -0.476659
     10          1           0       -4.327205   -3.047337   -1.697390
     11          6           0       -2.440748    0.681116    0.519130
     12          6           0       -2.761774    2.040836    1.140491
     13          6           0       -1.526639    2.734010    1.716465
     14          1           0       -1.979652    0.037337    1.280927
     15          1           0       -1.690890    0.814746   -0.272577
     16          1           0       -3.511097    1.903979    1.930681
     17          1           0       -3.223392    2.681392    0.378117
     18          1           0       -0.778159    2.899560    0.934818
     19          1           0       -1.067499    2.117731    2.496203
     20          1           0       -1.778941    3.704272    2.155548
     21          6           0        2.377695   -2.253835    1.362778
     22          6           0        1.204766   -1.875996    0.700967
     23          6           0        1.197287   -0.771113   -0.155611
     24          6           0        2.385940   -0.063532   -0.328019
     25          6           0        3.570606   -0.415085    0.317169
     26          6           0        3.554798   -1.523461    1.169108
     27          1           0        2.374460   -3.113491    2.026387
     28          1           0        0.289144   -2.441353    0.849473
     29          1           0        0.303404   -0.456634   -0.680484
     30          1           0        4.467869    0.168088    0.149103
     31          1           0        4.467194   -1.814594    1.681767
     32          7           0        2.390350    1.108007   -1.232384
     33          8           0        3.450617    1.714843   -1.367366
     34          8           0        1.333454    1.397242   -1.789119
 ---------------------------------------------------------------------

 SCF Done:  E(RHF) =  -669.535967757     A.U. after   15 cycles
 E2 =    -0.2092438450D+01 EUMP2 =    -0.67162840620667D+03

 The electronic state is 1-A.
 Alpha  occ. eigenvalues --  -20.60803 -20.60796 -15.85842 -11.31129 -11.27717
 Alpha  occ. eigenvalues --  -11.27654 -11.27454 -11.26719 -11.26689 -11.22132
 Alpha  occ. eigenvalues --  -11.21679 -11.21630 -11.21578 -11.21433 -11.20889
 Alpha  occ. eigenvalues --   -1.59867  -1.39424  -1.19309  -1.08721  -1.08689
 Alpha  occ. eigenvalues --   -1.04699  -1.03719  -0.96148  -0.95564  -0.87167
 Alpha  occ. eigenvalues --   -0.86107  -0.82398  -0.79822  -0.78569  -0.77420
 Alpha  occ. eigenvalues --   -0.72063  -0.71182  -0.70428  -0.65335  -0.64961
 Alpha  occ. eigenvalues --   -0.64684  -0.62061  -0.61099  -0.59542  -0.57771
 Alpha  occ. eigenvalues --   -0.55419  -0.55214  -0.53048  -0.52864  -0.52831
 Alpha  occ. eigenvalues --   -0.52509  -0.50079  -0.48825  -0.48814  -0.48124
 Alpha  occ. eigenvalues --   -0.46855  -0.46029  -0.45933  -0.44824  -0.43990
 Alpha  occ. eigenvalues --   -0.37298  -0.36286
 Alpha virt. eigenvalues --    0.05053   0.11321   0.16524   0.19841   0.23018
 Alpha virt. eigenvalues --    0.24050   0.24533   0.25113   0.27821   0.28282
 Alpha virt. eigenvalues --    0.30202   0.30984   0.31334   0.31695   0.31992

 Mulliken charges:
               1
     1  C   -0.297214
     2  C   -0.302755
     3  C   -0.475467
     4  H    0.150257
     5  H    0.154397
     6  H    0.143543
     7  H    0.152412
     8  H    0.159048
     9  H    0.156137
    10  H    0.160046
    11  C   -0.309453
    12  C   -0.298246
    13  C   -0.479442
    14  H    0.143265
    15  H    0.159919
    16  H    0.150492
    17  H    0.155785
    18  H    0.165425
    19  H    0.151633
    20  H    0.160936
    21  C   -0.170569
    22  C   -0.223179
    23  C   -0.172253
    24  C    0.156653
    25  C   -0.170298
    26  C   -0.218991
    27  H    0.225342
    28  H    0.225022
    29  H    0.283996
    30  H    0.275295
    31  H    0.223141
    32  N    0.488174
    33  O   -0.459675
    34  O   -0.463375
 Sum of Mulliken charges =  -0.00000

 Dipole moment (field-independent basis, Debye):
    X=             -0.0992    Y=             -3.9954    Z=              3.1157  Tot=              5.0676
 Quadrupole moment (field-independent basis, Debye-Ang):
   XX=            -90.2940   YY=            -94.8280   ZZ=            -96.9292
   XY=             -9.7522   XZ=              8.5822   YZ=              0.5243

 Normal termination of Gaussian 16 at Wed May  5 15:28:27 2021.
