 Gaussian 16, Revision A.03,
 Gaussian 16:  EM64L-G16RevA.03 25-Dec-2016

 -------------
 #p 6-31g* mp2
 -------------

 ------------------------------------------------------
 Input file generated by CHIRIPA (05-May-2021 14:55:21)
 ------------------------------------------------------
 Symbolic Z-matrix:
 Charge =  0 Multiplicity = 1

                         Standard orientation:
 ---------------------------------------------------------------------
 Center     Atomic      Atomic             Coordinates (Angstroms)
 Number     Number       Type             X           Y           Z
 ---------------------------------------------------------------------
      1          6           0        4.660326    0.246648   -0.363611
      2          6           0        3.961128    0.807911    0.709994
      3          6           0        2.663231    0.384451    1.011145
      4          6           0        2.092427   -0.606729    0.214255
      5          6           0        2.763346   -1.185254   -0.862066
      6          6           0        4.060261   -0.746392   -1.144838
      7          1           0        5.668182    0.581584   -0.590414
      8          1           0        4.424644    1.579284    1.318418
      9          1           0        2.099251    0.801911    1.836416
     10          1           0        2.274923   -1.952453   -1.450511
     11          1           0        4.600889   -1.184064   -1.979230
     12          7           0        0.718921   -1.063180    0.523341
     13          8           0        0.238302   -1.937883   -0.193971
     14          8           0        0.148993   -0.537599    1.477062
     15          6           0       -3.271314    0.046273   -0.508127
     16          6           0       -4.285679   -0.633253    0.412357
     17          6           0       -4.883583   -1.900307   -0.199917
     18          1           0       -3.758383    0.292649   -1.461546
     19          1           0       -2.466262   -0.663830   -0.742733
     20          1           0       -5.087863    0.078367    0.646272
     21          1           0       -3.796189   -0.877867    1.363767
     22          1           0       -4.097753   -2.630901   -0.417415
     23          1           0       -5.396765   -1.669234   -1.138986
     24          1           0       -5.606067   -2.369913    0.474875
     25          6           0       -2.664806    1.314368    0.090045
     26          6           0       -1.650441    1.993895   -0.830440
     27          6           0       -1.052538    3.260949   -0.218165
     28          1           0       -3.469858    2.024472    0.324650
     29          1           0       -2.177737    1.067992    1.043464
     30          1           0       -2.139930    2.238509   -1.781849
     31          1           0       -0.848257    1.282276   -1.064354
     32          1           0       -0.539355    3.029876    0.720903
     33          1           0       -1.838367    3.991542   -0.000667
     34          1           0       -0.330053    3.730555   -0.892958
 ---------------------------------------------------------------------

 SCF Done:  E(RHF) =  -669.536938355     A.U. after   15 cycles
 E2 =    -0.2093256144D+01 EUMP2 =    -0.67163019449865D+03

 The electronic state is 1-A.
 Alpha  occ. eigenvalues --  -20.61180 -20.61174 -15.86171 -11.31404 -11.27951
 Alpha  occ. eigenvalues --  -11.27947 -11.27670 -11.26933 -11.26923 -11.20752
 Alpha  occ. eigenvalues --  -11.20486 -11.20202 -11.19969 -11.19829 -11.19820
 Alpha  occ. eigenvalues --   -1.60215  -1.39774  -1.19557  -1.08982  -1.07140
 Alpha  occ. eigenvalues --   -1.04937  -1.02428  -0.95839  -0.94862  -0.86343
 Alpha  occ. eigenvalues --   -0.85903  -0.82676  -0.78510  -0.77743  -0.76911
 Alpha  occ. eigenvalues --   -0.72393  -0.71544  -0.70666  -0.65216  -0.64943
 Alpha  occ. eigenvalues --   -0.63710  -0.62286  -0.59820  -0.58280  -0.56484
 Alpha  occ. eigenvalues --   -0.55448  -0.54146  -0.53260  -0.53028  -0.51660
 Alpha  occ. eigenvalues --   -0.51316  -0.49179  -0.49140  -0.48811  -0.46843
 Alpha  occ. eigenvalues --   -0.45554  -0.45269  -0.44450  -0.44137  -0.42604
 Alpha  occ. eigenvalues --   -0.37526  -0.36529
 Alpha virt. eigenvalues --    0.04721   0.11112   0.16199   0.21152   0.23913
 Alpha virt. eigenvalues --    0.25240   0.27041   0.27527   0.28204   0.28801
 Alpha virt. eigenvalues --    0.29139   0.30805   0.31775   0.32491   0.32835

 Mulliken charges:
               1
     1  C   -0.170137
     2  C   -0.218475
     3  C   -0.170095
     4  C    0.157558
     5  C   -0.170507
     6  C   -0.218592
     7  H    0.226506
     8  H    0.224423
     9  H    0.275959
    10  H    0.276153
    11  H    0.224273
    12  N    0.489915
    13  O   -0.458902
    14  O   -0.459529
    15  C   -0.304219
    16  C   -0.299097
    17  C   -0.476471
    18  H    0.140342
    19  H    0.168549
    20  H    0.144752
    21  H    0.159832
    22  H    0.161275
    23  H    0.149848
    24  H    0.155367
    25  C   -0.303852
    26  C   -0.295834
    27  C   -0.475550
    28  H    0.141307
    29  H    0.170073
    30  H    0.148418
    31  H    0.144913
    32  H    0.153701
    33  H    0.154259
    34  H    0.153837
 Sum of Mulliken charges =  -0.00000

 Dipole moment (field-independent basis, Debye):
    X=              5.1748    Y=              1.3794    Z=             -0.9402  Tot=              5.4374
 Quadrupole moment (field-independent basis, Debye-Ang):
   XX=            -75.8195   YY=            -96.2834   ZZ=            -92.6222
   XY=             -0.2838   XZ=             -1.7312   YZ=              3.5959

 Normal termination of Gaussian 16 at Wed May  5 15:56:43 2021.
