 Gaussian 16, Revision A.03,
 Gaussian 16:  EM64L-G16RevA.03 25-Dec-2016

 -------------
 #p 6-31g* mp2
 -------------

 ------------------------------------------------------
 Input file generated by CHIRIPA (05-May-2021 14:53:16)
 ------------------------------------------------------
 Symbolic Z-matrix:
 Charge =  0 Multiplicity = 1

                         Standard orientation:
 ---------------------------------------------------------------------
 Center     Atomic      Atomic             Coordinates (Angstroms)
 Number     Number       Type             X           Y           Z
 ---------------------------------------------------------------------
      1          6           0       -2.842136   -0.479104   -0.584074
      2          6           0       -2.015377   -1.748941   -0.379207
      3          6           0       -2.735757   -3.007834   -0.862978
      4          1           0       -3.798755   -0.582511   -0.053855
      5          1           0       -3.085451   -0.376447   -1.650682
      6          1           0       -1.772520   -1.848438    0.686503
      7          1           0       -1.060535   -1.642421   -0.909816
      8          1           0       -2.964236   -2.934493   -1.931163
      9          1           0       -3.680266   -3.141680   -0.325774
     10          1           0       -2.126843   -3.903803   -0.707023
     11          6           0       -2.135351    0.787779   -0.105335
     12          6           0       -2.962110    2.057615   -0.310202
     13          6           0       -2.241730    3.316508    0.173569
     14          1           0       -1.892036    0.685122    0.961274
     15          1           0       -1.178732    0.891185   -0.635553
     16          1           0       -3.916952    1.951096    0.220407
     17          1           0       -3.204966    2.157113   -1.375912
     18          1           0       -1.297220    3.450354   -0.363635
     19          1           0       -2.013251    3.243167    1.241754
     20          1           0       -2.850644    4.212478    0.017614
     21          6           0        3.116602    0.646200   -1.829213
     22          6           0        2.774467   -0.700797   -1.670893
     23          6           0        2.124762   -1.136896   -0.512338
     24          6           0        1.831000   -0.194705    0.472177
     25          6           0        2.158899    1.154110    0.343841
     26          6           0        2.808270    1.567730   -0.823114
     27          1           0        3.621179    0.976240   -2.732469
     28          1           0        3.012680   -1.418693   -2.450589
     29          1           0        1.848440   -2.173722   -0.363830
     30          1           0        1.908341    1.846308    1.138511
     31          1           0        3.072776    2.614450   -0.943347
     32          7           0        1.143362   -0.644485    1.703134
     33          8           0        0.895615    0.205372    2.555777
     34          8           0        0.865161   -1.838362    1.792005
 ---------------------------------------------------------------------

 SCF Done:  E(RHF) =  -669.536307997     A.U. after   15 cycles
 E2 =    -0.2094308875D+01 EUMP2 =    -0.67163061687148D+03

 The electronic state is 1-A.
 Alpha  occ. eigenvalues --  -20.60921 -20.60909 -15.85918 -11.31257 -11.27821
 Alpha  occ. eigenvalues --  -11.27818 -11.27566 -11.26842 -11.26832 -11.21319
 Alpha  occ. eigenvalues --  -11.20952 -11.20913 -11.20891 -11.20862 -11.20586
 Alpha  occ. eigenvalues --   -1.59959  -1.39517  -1.19433  -1.08831  -1.07993
 Alpha  occ. eigenvalues --   -1.04832  -1.03112  -0.95675  -0.95591  -0.86614
 Alpha  occ. eigenvalues --   -0.86226  -0.82512  -0.79186  -0.77865  -0.77520
 Alpha  occ. eigenvalues --   -0.72159  -0.71236  -0.70538  -0.65088  -0.64835
 Alpha  occ. eigenvalues --   -0.64618  -0.62178  -0.60510  -0.58957  -0.57198
 Alpha  occ. eigenvalues --   -0.55335  -0.54889  -0.53179  -0.52918  -0.52292
 Alpha  occ. eigenvalues --   -0.52028  -0.49544  -0.48928  -0.48922  -0.47573
 Alpha  occ. eigenvalues --   -0.46239  -0.45388  -0.45213  -0.44710  -0.43360
 Alpha  occ. eigenvalues --   -0.37373  -0.36415
 Alpha virt. eigenvalues --    0.04921   0.11130   0.16415   0.21249   0.23268
 Alpha virt. eigenvalues --    0.24526   0.26724   0.27285   0.27348   0.27947
 Alpha virt. eigenvalues --    0.28923   0.30880   0.31602   0.31871   0.32265

 Mulliken charges:
               1
     1  C   -0.296660
     2  C   -0.308825
     3  C   -0.475460
     4  H    0.150185
     5  H    0.144916
     6  H    0.173698
     7  H    0.142749
     8  H    0.150032
     9  H    0.155768
    10  H    0.160162
    11  C   -0.308690
    12  C   -0.298297
    13  C   -0.476176
    14  H    0.161888
    15  H    0.145755
    16  H    0.153286
    17  H    0.149198
    18  H    0.148506
    19  H    0.160421
    20  H    0.158781
    21  C   -0.170723
    22  C   -0.219544
    23  C   -0.170863
    24  C    0.161863
    25  C   -0.170689
    26  C   -0.219073
    27  H    0.225937
    28  H    0.223897
    29  H    0.276490
    30  H    0.276460
    31  H    0.223985
    32  N    0.488963
    33  O   -0.459888
    34  O   -0.458053
 Sum of Mulliken charges =  -0.00000

 Dipole moment (field-independent basis, Debye):
    X=              2.5336    Y=              1.5275    Z=             -4.1123  Tot=              5.0659
 Quadrupole moment (field-independent basis, Debye-Ang):
   XX=            -86.6445   YY=            -92.2782   ZZ=            -98.1506
   XY=              2.2785   XZ=             -7.9442   YZ=              2.9315

 Normal termination of Gaussian 16 at Thu May  6 12:14:48 2021.
