 Gaussian 16, Revision A.03,
 Gaussian 16:  EM64L-G16RevA.03 25-Dec-2016

 -------------
 #p 6-31g* mp2
 -------------

 ------------------------------------------------------
 Input file generated by CHIRIPA (05-May-2021 14:57:25)
 ------------------------------------------------------
 Symbolic Z-matrix:
 Charge =  0 Multiplicity = 1

                         Standard orientation:
 ---------------------------------------------------------------------
 Center     Atomic      Atomic             Coordinates (Angstroms)
 Number     Number       Type             X           Y           Z
 ---------------------------------------------------------------------
      1          6           0       -2.881426    2.690422   -0.125231
      2          6           0       -1.668608    2.068609    0.189317
      3          6           0       -1.582193    0.674941    0.258387
      4          6           0       -2.733442   -0.069501    0.005958
      5          6           0       -3.956250    0.520634   -0.309908
      6          6           0       -4.019370    1.915816   -0.373402
      7          1           0       -2.939507    3.773645   -0.176720
      8          1           0       -0.783248    2.667652    0.382528
      9          1           0       -0.656017    0.167619    0.499716
     10          1           0       -4.821778   -0.103144   -0.497472
     11          1           0       -4.962597    2.396006   -0.617913
     12          7           0       -2.654289   -1.545717    0.076128
     13          8           0       -3.682929   -2.179095   -0.150516
     14          8           0       -1.565108   -2.041443    0.356442
     15          6           0        1.846569   -2.530758   -0.022675
     16          6           0        2.440595   -1.994465   -1.169864
     17          6           0        2.942638   -0.689673   -1.165640
     18          6           0        2.833489    0.054066    0.008341
     19          6           0        2.247108   -0.452104    1.167324
     20          6           0        1.751889   -1.759227    1.140207
     21          1           0        1.459221   -3.545258   -0.034848
     22          1           0        2.515495   -2.591338   -2.074396
     23          1           0        3.407331   -0.249649   -2.039629
     24          1           0        2.186883    0.167212    2.054024
     25          1           0        1.291066   -2.173116    2.032610
     26          7           0        3.361367    1.436625    0.024931
     27          8           0        3.253015    2.071324    1.071856
     28          8           0        3.873475    1.859396   -1.009306
 ---------------------------------------------------------------------

 SCF Done:  E(RHF) =  -868.340085467     A.U. after   16 cycles
 E2 =    -0.2601399168D+01 EUMP2 =    -0.87094148463454D+03

 The electronic state is 1-A.
 Alpha  occ. eigenvalues --  -20.61235 -20.61178 -20.60957 -20.60935 -15.86244
 Alpha  occ. eigenvalues --  -15.85992 -11.31299 -11.31107 -11.27857 -11.27745
 Alpha  occ. eigenvalues --  -11.27611 -11.27599 -11.27505 -11.27088 -11.26807
 Alpha  occ. eigenvalues --  -11.26703 -11.26485 -11.26438  -1.60285  -1.60038
 Alpha  occ. eigenvalues --   -1.39848  -1.39596  -1.19443  -1.19221  -1.08897
 Alpha  occ. eigenvalues --   -1.08595  -1.04798  -1.04573  -0.95787  -0.95490
 Alpha  occ. eigenvalues --   -0.86203  -0.85940  -0.82629  -0.82341  -0.77725
 Alpha  occ. eigenvalues --   -0.77456  -0.72514  -0.72199  -0.71593  -0.71380
 Alpha  occ. eigenvalues --   -0.70543  -0.70188  -0.65100  -0.64833  -0.64772
 Alpha  occ. eigenvalues --   -0.64494  -0.62159  -0.61913  -0.55310  -0.54914
 Alpha  occ. eigenvalues --   -0.53172  -0.53151  -0.52609  -0.52575  -0.49242
 Alpha  occ. eigenvalues --   -0.49210  -0.48982  -0.48932  -0.45325  -0.45060
 Alpha  occ. eigenvalues --   -0.37415  -0.37024  -0.36392  -0.36174
 Alpha virt. eigenvalues --    0.04684   0.05118   0.11265   0.11474   0.16277
 Alpha virt. eigenvalues --    0.16716   0.21378   0.21940   0.27096   0.27734
 Alpha virt. eigenvalues --    0.28445   0.28800   0.31049   0.31600   0.32517

 Mulliken charges:
               1
     1  C   -0.169745
     2  C   -0.223686
     3  C   -0.176827
     4  C    0.154575
     5  C   -0.170629
     6  C   -0.219323
     7  H    0.228226
     8  H    0.232388
     9  H    0.282628
    10  H    0.274523
    11  H    0.223738
    12  N    0.490707
    13  O   -0.459364
    14  O   -0.472229
    15  C   -0.156482
    16  C   -0.220523
    17  C   -0.172786
    18  C    0.157231
    19  C   -0.193084
    20  C   -0.208081
    21  H    0.235669
    22  H    0.224571
    23  H    0.274002
    24  H    0.272308
    25  H    0.230714
    26  N    0.487263
    27  O   -0.465612
    28  O   -0.460175
 Sum of Mulliken charges =  -0.00000

 Dipole moment (field-independent basis, Debye):
    X=             -2.2139    Y=              0.0568    Z=             -0.3456  Tot=              2.2414
 Quadrupole moment (field-independent basis, Debye-Ang):
   XX=           -110.0120   YY=           -106.0866   ZZ=           -100.9176
   XY=            -29.0877   XZ=              0.2106   YZ=              0.4774

 Normal termination of Gaussian 16 at Fri May  7 01:59:06 2021.
