 Gaussian 16, Revision A.03,
 Gaussian 16:  EM64L-G16RevA.03 25-Dec-2016

 -------------
 #p 6-31g* mp2
 -------------

 ------------------------------------------------------
 Input file generated by CHIRIPA (05-May-2021 14:53:12)
 ------------------------------------------------------
 Symbolic Z-matrix:
 Charge =  0 Multiplicity = 1

                         Standard orientation:
 ---------------------------------------------------------------------
 Center     Atomic      Atomic             Coordinates (Angstroms)
 Number     Number       Type             X           Y           Z
 ---------------------------------------------------------------------
      1          6           0       -3.463115    0.774677    0.089572
      2          6           0       -4.229119    1.886805   -0.627642
      3          6           0       -4.004786    3.261198    0.003636
      4          1           0       -3.768388    0.749402    1.144614
      5          1           0       -2.390464    1.012851    0.080170
      6          1           0       -5.299866    1.645919   -0.618100
      7          1           0       -3.922127    1.909310   -1.681143
      8          1           0       -2.943027    3.527144   -0.019623
      9          1           0       -4.328594    3.262257    1.049460
     10          1           0       -4.561596    4.041377   -0.524703
     11          6           0       -3.677267   -0.605232   -0.529877
     12          6           0       -2.911262   -1.717359    0.187337
     13          6           0       -3.135596   -3.091752   -0.443941
     14          1           0       -4.749918   -0.843405   -0.520475
     15          1           0       -3.371993   -0.579956   -1.584919
     16          1           0       -3.218254   -1.739865    1.240838
     17          1           0       -1.840515   -1.476474    0.177795
     18          1           0       -2.811788   -3.092811   -1.489765
     19          1           0       -4.197355   -3.357699   -0.420682
     20          1           0       -2.578785   -3.871932    0.084398
     21          6           0        4.772727    1.002341   -0.963714
     22          6           0        4.217703   -0.171974   -1.482803
     23          6           0        3.118620   -0.772730   -0.861791
     24          6           0        2.597453   -0.169491    0.281790
     25          6           0        3.128153    1.000394    0.823100
     26          6           0        4.227142    1.583752    0.185555
     27          1           0        5.626485    1.462265   -1.452553
     28          1           0        4.639338   -0.625722   -2.375205
     29          1           0        2.669277   -1.681945   -1.242363
     30          1           0        2.686003    1.429358    1.714118
     31          1           0        4.656120    2.495730    0.590919
     32          7           0        1.433952   -0.796275    0.947979
     33          8           0        0.993243   -0.245104    1.954271
     34          8           0        0.984739   -1.826851    0.451232
 ---------------------------------------------------------------------

 SCF Done:  E(RHF) =  -669.536346658     A.U. after   15 cycles
 E2 =    -0.2091285925D+01 EUMP2 =    -0.67162763258328D+03

 The electronic state is 1-A.
 Alpha  occ. eigenvalues --  -20.61025 -20.61017 -15.86039 -11.31346 -11.27904
 Alpha  occ. eigenvalues --  -11.27900 -11.27637 -11.26905 -11.26895 -11.20931
 Alpha  occ. eigenvalues --  -11.20542 -11.20454 -11.20303 -11.20012 -11.19804
 Alpha  occ. eigenvalues --   -1.60075  -1.39631  -1.19510  -1.08918  -1.07422
 Alpha  occ. eigenvalues --   -1.04902  -1.02506  -0.95761  -0.95012  -0.86303
 Alpha  occ. eigenvalues --   -0.86041  -0.82595  -0.78595  -0.77651  -0.77156
 Alpha  occ. eigenvalues --   -0.72251  -0.71390  -0.70617  -0.65164  -0.64904
 Alpha  occ. eigenvalues --   -0.64065  -0.62248  -0.59910  -0.58402  -0.56577
 Alpha  occ. eigenvalues --   -0.55406  -0.54328  -0.53236  -0.52992  -0.51720
 Alpha  occ. eigenvalues --   -0.51430  -0.49115  -0.49013  -0.48934  -0.46898
 Alpha  occ. eigenvalues --   -0.45664  -0.45073  -0.44725  -0.44460  -0.42770
 Alpha  occ. eigenvalues --   -0.37487  -0.36502
 Alpha virt. eigenvalues --    0.04839   0.11153   0.16336   0.21294   0.23778
 Alpha virt. eigenvalues --    0.25320   0.27217   0.27603   0.28148   0.28580
 Alpha virt. eigenvalues --    0.28909   0.30867   0.32316   0.32434   0.32737

 Mulliken charges:
               1
     1  C   -0.296582
     2  C   -0.298835
     3  C   -0.474642
     4  H    0.150837
     5  H    0.150416
     6  H    0.150420
     7  H    0.148922
     8  H    0.153286
     9  H    0.155457
    10  H    0.157080
    11  C   -0.298148
    12  C   -0.307066
    13  C   -0.473861
    14  H    0.144824
    15  H    0.144552
    16  H    0.150534
    17  H    0.175390
    18  H    0.149753
    19  H    0.148159
    20  H    0.163753
    21  C   -0.170473
    22  C   -0.218575
    23  C   -0.170839
    24  C    0.158369
    25  C   -0.170838
    26  C   -0.218597
    27  H    0.226222
    28  H    0.224037
    29  H    0.275978
    30  H    0.276091
    31  H    0.224069
    32  N    0.487602
    33  O   -0.458129
    34  O   -0.459164
 Sum of Mulliken charges =  -0.00000

 Dipole moment (field-independent basis, Debye):
    X=              4.4545    Y=              2.1683    Z=             -2.2202  Tot=              5.4290
 Quadrupole moment (field-independent basis, Debye-Ang):
   XX=            -74.5268   YY=            -94.7818   ZZ=            -93.9238
   XY=              5.3057   XZ=             -6.0787   YZ=              3.3970

 Normal termination of Gaussian 16 at Thu May  6 10:25:33 2021.
