 Gaussian 16, Revision A.03,
 Gaussian 16:  EM64L-G16RevA.03 25-Dec-2016

 -------------
 #p 6-31g* mp2
 -------------

 ------------------------------------------------------
 Input file generated by CHIRIPA (05-May-2021 14:53:12)
 ------------------------------------------------------
 Symbolic Z-matrix:
 Charge =  0 Multiplicity = 1

                         Standard orientation:
 ---------------------------------------------------------------------
 Center     Atomic      Atomic             Coordinates (Angstroms)
 Number     Number       Type             X           Y           Z
 ---------------------------------------------------------------------
      1          6           0       -3.606069   -0.567994   -0.060157
      2          6           0       -4.849299   -1.457489   -0.094257
      3          6           0       -4.541016   -2.917365    0.239689
      4          1           0       -2.863711   -0.958977   -0.769370
      5          1           0       -3.147921   -0.628191    0.936774
      6          1           0       -5.305747   -1.394554   -1.090404
      7          1           0       -5.588858   -1.064233    0.614980
      8          1           0       -4.106495   -2.999991    1.241171
      9          1           0       -3.821776   -3.332189   -0.473903
     10          1           0       -5.443797   -3.535376    0.209524
     11          6           0       -3.898131    0.894328   -0.391884
     12          6           0       -2.654901    1.783823   -0.357785
     13          6           0       -2.963184    3.243698   -0.691731
     14          1           0       -4.356279    0.954524   -1.388816
     15          1           0       -4.640489    1.285310    0.317328
     16          1           0       -1.915342    1.390566   -1.067022
     17          1           0       -2.198453    1.720888    0.638362
     18          1           0       -3.682424    3.658523    0.021861
     19          1           0       -3.397705    3.326324   -1.693213
     20          1           0       -2.060403    3.861709   -0.661565
     21          6           0        0.668470    0.380991    1.169987
     22          6           0        0.900405   -0.851979    0.551512
     23          6           0        2.150298   -1.144532   -0.002319
     24          6           0        3.150093   -0.176631    0.080540
     25          6           0        2.949884    1.060912    0.690207
     26          6           0        1.692146    1.331826    1.237242
     27          1           0       -0.305524    0.599848    1.597576
     28          1           0        0.107265   -1.592311    0.497815
     29          1           0        2.357095   -2.091023   -0.486887
     30          1           0        3.760131    1.778874    0.728288
     31          1           0        1.514878    2.290209    1.716954
     32          7           0        4.477452   -0.474889   -0.502179
     33          8           0        5.341720    0.394752   -0.416139
     34          8           0        4.628433   -1.572656   -1.033919
 ---------------------------------------------------------------------

 SCF Done:  E(RHF) =  -669.535396242     A.U. after   15 cycles
 E2 =    -0.2091869699D+01 EUMP2 =    -0.67162726594104D+03

 The electronic state is 1-A.
 Alpha  occ. eigenvalues --  -20.60712 -20.60706 -15.85766 -11.31110 -11.27689
 Alpha  occ. eigenvalues --  -11.27682 -11.27382 -11.26686 -11.26664 -11.22602
 Alpha  occ. eigenvalues --  -11.22464 -11.22400 -11.22281 -11.21872 -11.21842
 Alpha  occ. eigenvalues --   -1.59788  -1.39342  -1.19284  -1.09375  -1.08675
 Alpha  occ. eigenvalues --   -1.04686  -1.04405  -0.96841  -0.95517  -0.87855
 Alpha  occ. eigenvalues --   -0.86079  -0.82358  -0.80482  -0.79226  -0.77402
 Alpha  occ. eigenvalues --   -0.71983  -0.71112  -0.70399  -0.65996  -0.64932
 Alpha  occ. eigenvalues --   -0.64684  -0.62035  -0.61797  -0.60219  -0.58464
 Alpha  occ. eigenvalues --   -0.56122  -0.55211  -0.53508  -0.53267  -0.53011
 Alpha  occ. eigenvalues --   -0.52771  -0.50777  -0.48809  -0.48740  -0.48707
 Alpha  occ. eigenvalues --   -0.47509  -0.46726  -0.46660  -0.44753  -0.44676
 Alpha  occ. eigenvalues --   -0.37228  -0.36297
 Alpha virt. eigenvalues --    0.05121   0.11325   0.16571   0.19426   0.22615
 Alpha virt. eigenvalues --    0.23184   0.24746   0.25631   0.27041   0.27694
 Alpha virt. eigenvalues --    0.29692   0.30231   0.30910   0.31172   0.31956

 Mulliken charges:
               1
     1  C   -0.300380
     2  C   -0.299928
     3  C   -0.476734
     4  H    0.149653
     5  H    0.141554
     6  H    0.155465
     7  H    0.154195
     8  H    0.153773
     9  H    0.154814
    10  H    0.164243
    11  C   -0.298489
    12  C   -0.302359
    13  C   -0.475964
    14  H    0.154032
    15  H    0.151718
    16  H    0.157625
    17  H    0.140980
    18  H    0.156301
    19  H    0.159251
    20  H    0.160975
    21  C   -0.169085
    22  C   -0.222071
    23  C   -0.171131
    24  C    0.158250
    25  C   -0.170923
    26  C   -0.220669
    27  H    0.229631
    28  H    0.225302
    29  H    0.275222
    30  H    0.275253
    31  H    0.222880
    32  N    0.488077
    33  O   -0.460728
    34  O   -0.460734
 Sum of Mulliken charges =  -0.00000

 Dipole moment (field-independent basis, Debye):
    X=             -4.9145    Y=              1.0808    Z=              1.9417  Tot=              5.3935
 Quadrupole moment (field-independent basis, Debye-Ang):
   XX=           -123.5216   YY=            -92.0851   ZZ=            -93.8256
   XY=              5.9246   XZ=              6.8242   YZ=              1.5407

 Normal termination of Gaussian 16 at Thu May  6 13:37:46 2021.
