 Gaussian 16, Revision A.03,
 Gaussian 16:  EM64L-G16RevA.03 25-Dec-2016

 -------------
 #p 6-31g* mp2
 -------------

 ------------------------------------------------------
 Input file generated by CHIRIPA (05-May-2021 14:57:21)
 ------------------------------------------------------
 Symbolic Z-matrix:
 Charge =  0 Multiplicity = 1

                         Standard orientation:
 ---------------------------------------------------------------------
 Center     Atomic      Atomic             Coordinates (Angstroms)
 Number     Number       Type             X           Y           Z
 ---------------------------------------------------------------------
      1          6           0       -2.490601   -2.010890    0.182988
      2          6           0       -3.709801   -1.975821    0.867710
      3          6           0       -4.559960   -0.872458    0.747843
      4          6           0       -4.157645    0.183145   -0.068940
      5          6           0       -2.949220    0.177809   -0.763901
      6          6           0       -2.114865   -0.935858   -0.629200
      7          1           0       -1.836316   -2.872011    0.281865
      8          1           0       -4.004189   -2.809273    1.499167
      9          1           0       -5.509377   -0.819187    1.266676
     10          1           0       -2.683008    1.023719   -1.385982
     11          1           0       -1.168600   -0.960355   -1.162144
     12          7           0       -5.049305    1.356680   -0.203690
     13          8           0       -4.671859    2.273933   -0.929512
     14          8           0       -6.108750    1.337023    0.419067
     15          6           0        5.874325    1.693278    0.292208
     16          6           0        4.594441    1.991226    0.771420
     17          6           0        3.554268    1.066274    0.640829
     18          6           0        3.830519   -0.152439    0.023000
     19          6           0        5.095064   -0.478645   -0.464652
     20          6           0        6.120119    0.461465   -0.323215
     21          1           0        6.676483    2.417690    0.397866
     22          1           0        4.400653    2.947075    1.249796
     23          1           0        2.554042    1.271036    1.002818
     24          1           0        5.257678   -1.439837   -0.936971
     25          1           0        7.113110    0.227360   -0.696321
     26          7           0        2.737337   -1.139668   -0.120993
     27          8           0        3.006517   -2.206304   -0.669143
     28          8           0        1.632021   -0.828129    0.317022
 ---------------------------------------------------------------------

 SCF Done:  E(RHF) =  -868.340343170     A.U. after   16 cycles
 E2 =    -0.2598116133D+01 EUMP2 =    -0.87093845930273D+03

 The electronic state is 1-A.
 Alpha  occ. eigenvalues --  -20.61708 -20.61685 -20.60085 -20.60080 -15.86717
 Alpha  occ. eigenvalues --  -15.85127 -11.31793 -11.30252 -11.28328 -11.28318
 Alpha  occ. eigenvalues --  -11.28011 -11.27275 -11.27259 -11.26811 -11.26728
 Alpha  occ. eigenvalues --  -11.26338 -11.25768 -11.25538  -1.60769  -1.59165
 Alpha  occ. eigenvalues --   -1.40326  -1.38726  -1.19939  -1.18370  -1.09389
 Alpha  occ. eigenvalues --   -1.07781  -1.05295  -1.03729  -0.96272  -0.94670
 Alpha  occ. eigenvalues --   -0.86706  -0.85114  -0.83110  -0.81515  -0.78190
 Alpha  occ. eigenvalues --   -0.76617  -0.72952  -0.72069  -0.71351  -0.71039
 Alpha  occ. eigenvalues --   -0.70486  -0.69425  -0.65593  -0.65292  -0.64002
 Alpha  occ. eigenvalues --   -0.63680  -0.62643  -0.61078  -0.55804  -0.54153
 Alpha  occ. eigenvalues --   -0.53643  -0.53379  -0.52079  -0.51793  -0.49721
 Alpha  occ. eigenvalues --   -0.49689  -0.48122  -0.48080  -0.45789  -0.44187
 Alpha  occ. eigenvalues --   -0.37902  -0.36885  -0.36293  -0.35333
 Alpha virt. eigenvalues --    0.04301   0.05893   0.10773   0.12330   0.15851
 Alpha virt. eigenvalues --    0.17484   0.20958   0.22610   0.26892   0.27800
 Alpha virt. eigenvalues --    0.28501   0.29442   0.30558   0.31999   0.32281

 Mulliken charges:
               1
     1  C   -0.170407
     2  C   -0.219639
     3  C   -0.173331
     4  C    0.157656
     5  C   -0.174938
     6  C   -0.215228
     7  H    0.232408
     8  H    0.220219
     9  H    0.271743
    10  H    0.271315
    11  H    0.236951
    12  N    0.488201
    13  O   -0.463654
    14  O   -0.463332
    15  C   -0.169719
    16  C   -0.218524
    17  C   -0.170977
    18  C    0.157211
    19  C   -0.170595
    20  C   -0.218581
    21  H    0.228035
    22  H    0.226255
    23  H    0.276482
    24  H    0.275852
    25  H    0.225260
    26  N    0.488900
    27  O   -0.459866
    28  O   -0.467695
 Sum of Mulliken charges =  -0.00000

 Dipole moment (field-independent basis, Debye):
    X=              7.5656    Y=             -0.7244    Z=              0.9718  Tot=              7.6620
 Quadrupole moment (field-independent basis, Debye-Ang):
   XX=            -98.6545   YY=           -105.2280   ZZ=           -103.2155
   XY=             30.7602   XZ=             -4.0454   YZ=              0.6944

 Normal termination of Gaussian 16 at Thu May  6 00:08:14 2021.
