 Gaussian 16, Revision A.03,
 Gaussian 16:  EM64L-G16RevA.03 25-Dec-2016

 -------------
 #p 6-31g* mp2
 -------------

 ------------------------------------------------------
 Input file generated by CHIRIPA (05-May-2021 14:55:22)
 ------------------------------------------------------
 Symbolic Z-matrix:
 Charge =  0 Multiplicity = 1

                         Standard orientation:
 ---------------------------------------------------------------------
 Center     Atomic      Atomic             Coordinates (Angstroms)
 Number     Number       Type             X           Y           Z
 ---------------------------------------------------------------------
      1          6           0       -3.390289    2.227484    1.035344
      2          6           0       -2.145957    1.613929    1.213408
      3          6           0       -1.834389    0.430814    0.536864
      4          6           0       -2.795069   -0.113787   -0.313897
      5          6           0       -4.043571    0.473748   -0.512224
      6          6           0       -4.333463    1.656442    0.174614
      7          1           0       -3.623903    3.146393    1.564898
      8          1           0       -1.411536    2.055156    1.881233
      9          1           0       -0.878782   -0.065149    0.656258
     10          1           0       -4.755238    0.010188   -1.184578
     11          1           0       -5.300636    2.130739    0.034392
     12          7           0       -2.476700   -1.366075   -1.035573
     13          8           0       -3.340316   -1.825840   -1.779494
     14          8           0       -1.369574   -1.864141   -0.843636
     15          6           0        3.048092   -0.198181    0.719616
     16          6           0        2.881232   -1.621860    1.251858
     17          6           0        1.683136   -1.765284    2.190895
     18          1           0        3.159601    0.492432    1.566708
     19          1           0        2.130607    0.098787    0.192904
     20          1           0        3.799281   -1.916560    1.776216
     21          1           0        2.770300   -2.309188    0.403394
     22          1           0        0.755259   -1.497517    1.675195
     23          1           0        1.790087   -1.102659    3.055817
     24          1           0        1.582549   -2.790856    2.559602
     25          6           0        4.241610   -0.038889   -0.220528
     26          6           0        4.408470    1.384790   -0.752769
     27          6           0        5.606565    1.528214   -1.691807
     28          1           0        5.159095   -0.335857    0.306184
     29          1           0        4.130101   -0.729501   -1.067620
     30          1           0        4.519402    2.072119    0.095694
     31          1           0        3.490420    1.679492   -1.277128
     32          1           0        5.499614    0.865590   -2.556729
     33          1           0        6.534442    1.260448   -1.176107
     34          1           0        5.707152    2.553786   -2.060514
 ---------------------------------------------------------------------

 SCF Done:  E(RHF) =  -669.535743461     A.U. after   15 cycles
 E2 =    -0.2091470841D+01 EUMP2 =    -0.67162721430123D+03

 The electronic state is 1-A.
 Alpha  occ. eigenvalues --  -20.60820 -20.60813 -15.85865 -11.31202 -11.27769
 Alpha  occ. eigenvalues --  -11.27754 -11.27508 -11.26785 -11.26767 -11.21600
 Alpha  occ. eigenvalues --  -11.21469 -11.21411 -11.21313 -11.21039 -11.21036
 Alpha  occ. eigenvalues --   -1.59889  -1.39445  -1.19374  -1.08775  -1.08393
 Alpha  occ. eigenvalues --   -1.04773  -1.03476  -0.95944  -0.95613  -0.86963
 Alpha  occ. eigenvalues --   -0.86175  -0.82445  -0.79547  -0.78233  -0.77495
 Alpha  occ. eigenvalues --   -0.72087  -0.71208  -0.70493  -0.65043  -0.65021
 Alpha  occ. eigenvalues --   -0.64761  -0.62156  -0.60835  -0.59306  -0.57559
 Alpha  occ. eigenvalues --   -0.55328  -0.55182  -0.53104  -0.52893  -0.52616
 Alpha  occ. eigenvalues --   -0.52362  -0.49881  -0.48843  -0.48839  -0.47863
 Alpha  occ. eigenvalues --   -0.46553  -0.45765  -0.45671  -0.44852  -0.43738
 Alpha  occ. eigenvalues --   -0.37355  -0.36372
 Alpha virt. eigenvalues --    0.05018   0.11253   0.16535   0.20030   0.22943
 Alpha virt. eigenvalues --    0.23817   0.25689   0.27166   0.27777   0.27861
 Alpha virt. eigenvalues --    0.29417   0.30371   0.31512   0.31884   0.32047

 Mulliken charges:
               1
     1  C   -0.170400
     2  C   -0.222758
     3  C   -0.179213
     4  C    0.156197
     5  C   -0.169834
     6  C   -0.218979
     7  H    0.225733
     8  H    0.224698
     9  H    0.291184
    10  H    0.275600
    11  H    0.223501
    12  N    0.487171
    13  O   -0.459719
    14  O   -0.463267
    15  C   -0.300066
    16  C   -0.299128
    17  C   -0.483029
    18  H    0.145189
    19  H    0.147641
    20  H    0.151188
    21  H    0.161253
    22  H    0.159849
    23  H    0.149055
    24  H    0.165431
    25  C   -0.298550
    26  C   -0.299753
    27  C   -0.475807
    28  H    0.149678
    29  H    0.154132
    30  H    0.149530
    31  H    0.151822
    32  H    0.157047
    33  H    0.155116
    34  H    0.159488
 Sum of Mulliken charges =  -0.00000

 Dipole moment (field-independent basis, Debye):
    X=             -1.1050    Y=              4.3077    Z=              2.4754  Tot=              5.0897
 Quadrupole moment (field-independent basis, Debye-Ang):
   XX=            -84.6526   YY=            -96.2302   ZZ=            -96.1125
   XY=            -12.9709   XZ=             -3.7584   YZ=             -1.2870

 Normal termination of Gaussian 16 at Wed May  5 17:30:51 2021.
