 Gaussian 16, Revision A.03,
 Gaussian 16:  EM64L-G16RevA.03 25-Dec-2016

 -------------
 #p 6-31g* mp2
 -------------

 ------------------------------------------------------
 Input file generated by CHIRIPA (05-May-2021 14:53:16)
 ------------------------------------------------------
 Symbolic Z-matrix:
 Charge =  0 Multiplicity = 1

                         Standard orientation:
 ---------------------------------------------------------------------
 Center     Atomic      Atomic             Coordinates (Angstroms)
 Number     Number       Type             X           Y           Z
 ---------------------------------------------------------------------
      1          6           0       -4.030043   -0.088358    0.237999
      2          6           0       -3.751327   -1.390069   -0.514232
      3          6           0       -4.733031   -2.504568   -0.150992
      4          1           0       -3.985651   -0.280180    1.318822
      5          1           0       -5.055856    0.240110    0.020715
      6          1           0       -2.725878   -1.715251   -0.296687
      7          1           0       -3.796199   -1.195085   -1.593391
      8          1           0       -5.759782   -2.204744   -0.384421
      9          1           0       -4.683379   -2.727865    0.919650
     10          1           0       -4.515487   -3.425950   -0.700164
     11          6           0       -3.056950    1.035291   -0.114463
     12          6           0       -3.335665    2.337001    0.637768
     13          6           0       -2.353962    3.451501    0.274528
     14          1           0       -2.031137    0.706822    0.102821
     15          1           0       -3.101342    1.227112   -1.195287
     16          1           0       -3.290794    2.142018    1.716926
     17          1           0       -4.361115    2.662183    0.420223
     18          1           0       -2.403614    3.674797   -0.796114
     19          1           0       -1.327211    3.151676    0.507957
     20          1           0       -2.571506    4.372882    0.823700
     21          6           0        0.693145   -1.803716    0.011568
     22          6           0        1.859497   -2.233259    0.653159
     23          6           0        3.015193   -1.446999    0.626533
     24          6           0        2.968981   -0.231279   -0.054040
     25          6           0        1.822273    0.224080   -0.702887
     26          6           0        0.678283   -0.578577   -0.663218
     27          1           0       -0.200081   -2.420871    0.037319
     28          1           0        1.873943   -3.184263    1.177971
     29          1           0        3.931694   -1.755365    1.114747
     30          1           0        1.838477    1.176878   -1.217989
     31          1           0       -0.226101   -0.242455   -1.162374
     32          7           0        4.186268    0.609779   -0.089132
     33          8           0        4.119716    1.676785   -0.695519
     34          8           0        5.183882    0.186068    0.490414
 ---------------------------------------------------------------------

 SCF Done:  E(RHF) =  -669.535364198     A.U. after   15 cycles
 E2 =    -0.2092453441D+01 EUMP2 =    -0.67162781763919D+03

 The electronic state is 1-A.
 Alpha  occ. eigenvalues --  -20.60748 -20.60743 -15.85801 -11.31171 -11.27743
 Alpha  occ. eigenvalues --  -11.27727 -11.27472 -11.26756 -11.26688 -11.22753
 Alpha  occ. eigenvalues --  -11.22317 -11.22265 -11.22220 -11.21995 -11.21585
 Alpha  occ. eigenvalues --   -1.59824  -1.39377  -1.19342  -1.09328  -1.08734
 Alpha  occ. eigenvalues --   -1.04742  -1.04357  -0.96780  -0.95571  -0.87797
 Alpha  occ. eigenvalues --   -0.86142  -0.82402  -0.80446  -0.79180  -0.77438
 Alpha  occ. eigenvalues --   -0.72019  -0.71147  -0.70459  -0.65996  -0.64988
 Alpha  occ. eigenvalues --   -0.64709  -0.62093  -0.61750  -0.60167  -0.58404
 Alpha  occ. eigenvalues --   -0.56066  -0.55242  -0.53464  -0.53258  -0.53064
 Alpha  occ. eigenvalues --   -0.52792  -0.50715  -0.48793  -0.48775  -0.48734
 Alpha  occ. eigenvalues --   -0.47487  -0.46650  -0.46581  -0.44782  -0.44618
 Alpha  occ. eigenvalues --   -0.37315  -0.36332
 Alpha virt. eigenvalues --    0.05077   0.11169   0.16522   0.19306   0.22668
 Alpha virt. eigenvalues --    0.23219   0.25198   0.25618   0.26964   0.27332
 Alpha virt. eigenvalues --    0.29478   0.30552   0.30938   0.31228   0.31554

 Mulliken charges:
               1
     1  C   -0.297610
     2  C   -0.303663
     3  C   -0.476175
     4  H    0.152177
     5  H    0.153810
     6  H    0.141677
     7  H    0.154095
     8  H    0.159732
     9  H    0.156689
    10  H    0.160784
    11  C   -0.306617
    12  C   -0.299489
    13  C   -0.477313
    14  H    0.149081
    15  H    0.148501
    16  H    0.154398
    17  H    0.154164
    18  H    0.155066
    19  H    0.155969
    20  H    0.164355
    21  C   -0.175984
    22  C   -0.218544
    23  C   -0.170708
    24  C    0.158532
    25  C   -0.172977
    26  C   -0.221942
    27  H    0.229441
    28  H    0.223491
    29  H    0.275530
    30  H    0.276056
    31  H    0.230253
    32  N    0.488046
    33  O   -0.460305
    34  O   -0.460518
 Sum of Mulliken charges =  -0.00000

 Dipole moment (field-independent basis, Debye):
    X=             -4.4834    Y=             -2.8855    Z=              0.1721  Tot=              5.3345
 Quadrupole moment (field-independent basis, Debye-Ang):
   XX=           -118.6548   YY=            -91.8055   ZZ=            -93.3376
   XY=            -10.6212   XZ=              2.5703   YZ=             -2.0600

 Normal termination of Gaussian 16 at Thu May  6 01:09:17 2021.
