 Gaussian 16, Revision A.03,
 Gaussian 16:  EM64L-G16RevA.03 25-Dec-2016

 -------------
 #p 6-31g* mp2
 -------------

 ------------------------------------------------------
 Input file generated by CHIRIPA (05-May-2021 14:53:14)
 ------------------------------------------------------
 Symbolic Z-matrix:
 Charge =  0 Multiplicity = 1

                         Standard orientation:
 ---------------------------------------------------------------------
 Center     Atomic      Atomic             Coordinates (Angstroms)
 Number     Number       Type             X           Y           Z
 ---------------------------------------------------------------------
      1          6           0       -3.066851   -0.617787    0.726791
      2          6           0       -2.083849    0.109461    1.644833
      3          6           0       -1.311542   -0.843636    2.557490
      4          1           0       -3.773468   -1.193968    1.339696
      5          1           0       -2.516543   -1.346643    0.115787
      6          1           0       -2.635651    0.837703    2.252941
      7          1           0       -1.379608    0.684130    1.029678
      8          1           0       -0.736135   -1.562494    1.965249
      9          1           0       -1.999314   -1.408049    3.195463
     10          1           0       -0.614599   -0.302708    3.205200
     11          6           0       -3.846445    0.321610   -0.191629
     12          6           0       -4.829447   -0.405638   -1.109671
     13          6           0       -5.601753    0.547459   -2.022328
     14          1           0       -4.396752    1.050466    0.419375
     15          1           0       -3.139827    0.897791   -0.804534
     16          1           0       -5.533687   -0.980308   -0.494516
     17          1           0       -4.277645   -1.133880   -1.717779
     18          1           0       -4.913982    1.111872   -2.660301
     19          1           0       -6.177161    1.266317   -1.430087
     20          1           0       -6.298697    0.006531   -2.670038
     21          6           0        2.274268    2.535333    0.365052
     22          6           0        3.153564    2.206319   -0.671821
     23          6           0        3.397279    0.869025   -0.998618
     24          6           0        2.741714   -0.118228   -0.264549
     25          6           0        1.860112    0.177666    0.773966
     26          6           0        1.631480    1.521744    1.083370
     27          1           0        2.090803    3.576811    0.612160
     28          1           0        3.654162    2.991395   -1.231377
     29          1           0        4.073117    0.586155   -1.796518
     30          1           0        1.375847   -0.626974    1.313837
     31          1           0        0.948094    1.774308    1.889124
     32          7           0        2.991738   -1.537551   -0.601308
     33          8           0        2.401727   -2.388718    0.060539
     34          8           0        3.772986   -1.771978   -1.520728
 ---------------------------------------------------------------------

 SCF Done:  E(RHF) =  -669.535207202     A.U. after   15 cycles
 E2 =    -0.2092786806D+01 EUMP2 =    -0.67162799400761D+03

 The electronic state is 1-A.
 Alpha  occ. eigenvalues --  -20.60780 -20.60774 -15.85829 -11.31162 -11.27755
 Alpha  occ. eigenvalues --  -11.27677 -11.27491 -11.26764 -11.26727 -11.22150
 Alpha  occ. eigenvalues --  -11.21753 -11.21749 -11.21689 -11.21610 -11.21208
 Alpha  occ. eigenvalues --   -1.59853  -1.39407  -1.19349  -1.08766  -1.08741
 Alpha  occ. eigenvalues --   -1.04760  -1.03901  -0.96367  -0.95581  -0.87381
 Alpha  occ. eigenvalues --   -0.86143  -0.82419  -0.79977  -0.78541  -0.77470
 Alpha  occ. eigenvalues --   -0.72050  -0.71176  -0.70469  -0.65412  -0.64991
 Alpha  occ. eigenvalues --   -0.64758  -0.62282  -0.61148  -0.59728  -0.57956
 Alpha  occ. eigenvalues --   -0.55684  -0.55185  -0.53087  -0.53078  -0.52898
 Alpha  occ. eigenvalues --   -0.52713  -0.50248  -0.48806  -0.48803  -0.48285
 Alpha  occ. eigenvalues --   -0.46984  -0.46088  -0.45981  -0.44818  -0.44144
 Alpha  occ. eigenvalues --   -0.37335  -0.36319
 Alpha virt. eigenvalues --    0.05031   0.11264   0.16416   0.20058   0.22846
 Alpha virt. eigenvalues --    0.23890   0.26124   0.26240   0.26794   0.28102
 Alpha virt. eigenvalues --    0.29074   0.30362   0.31319   0.31680   0.32587

 Mulliken charges:
               1
     1  C   -0.299069
     2  C   -0.305998
     3  C   -0.488059
     4  H    0.151411
     5  H    0.155572
     6  H    0.151514
     7  H    0.151192
     8  H    0.165733
     9  H    0.163606
    10  H    0.151577
    11  C   -0.298736
    12  C   -0.300318
    13  C   -0.475893
    14  H    0.148383
    15  H    0.149539
    16  H    0.152640
    17  H    0.154632
    18  H    0.155024
    19  H    0.154496
    20  H    0.161527
    21  C   -0.171579
    22  C   -0.219030
    23  C   -0.170362
    24  C    0.157884
    25  C   -0.176128
    26  C   -0.223198
    27  H    0.225774
    28  H    0.223387
    29  H    0.275505
    30  H    0.285880
    31  H    0.226990
    32  N    0.487933
    33  O   -0.461524
    34  O   -0.460305
 Sum of Mulliken charges =  -0.00000

 Dipole moment (field-independent basis, Debye):
    X=             -0.9867    Y=              4.9081    Z=              1.1452  Tot=              5.1356
 Quadrupole moment (field-independent basis, Debye-Ang):
   XX=            -97.6906   YY=            -96.3055   ZZ=            -93.2555
   XY=             15.5698   XZ=             -0.1133   YZ=             -2.3133

 Normal termination of Gaussian 16 at Wed May  5 17:04:00 2021.
