 Gaussian 16, Revision A.03,
 Gaussian 16:  EM64L-G16RevA.03 25-Dec-2016

 -------------
 #p 6-31g* mp2
 -------------

 ------------------------------------------------------
 Input file generated by CHIRIPA (05-May-2021 14:51:08)
 ------------------------------------------------------
 Symbolic Z-matrix:
 Charge =  0 Multiplicity = 1

                         Standard orientation:
 ---------------------------------------------------------------------
 Center     Atomic      Atomic             Coordinates (Angstroms)
 Number     Number       Type             X           Y           Z
 ---------------------------------------------------------------------
      1          6           0        3.800585   -0.629250    0.023110
      2          6           0        4.336739    0.796396   -0.111267
      3          6           0        5.863141    0.862021   -0.051386
      4          1           0        4.150490   -1.057845    0.972224
      5          1           0        4.226887   -1.250756   -0.776510
      6          1           0        3.908474    1.415354    0.687541
      7          1           0        3.985359    1.221714   -1.060083
      8          1           0        6.306181    0.268110   -0.857356
      9          1           0        6.228860    0.462851    0.900199
     10          1           0        6.224921    1.890304   -0.149406
     11          6           0        2.276232   -0.711191   -0.034873
     12          6           0        1.740077   -2.136837    0.099504
     13          6           0        0.213676   -2.202462    0.039624
     14          1           0        1.849930   -0.089685    0.764747
     15          1           0        1.926327   -0.282597   -0.983987
     16          1           0        2.091458   -2.562155    1.048321
     17          1           0        2.168342   -2.755796   -0.699304
     18          1           0       -0.152043   -1.803293   -0.911962
     19          1           0       -0.229365   -1.608552    0.845593
     20          1           0       -0.148105   -3.230746    0.137644
     21          6           0       -3.456207    0.136294   -0.345969
     22          6           0       -3.593241   -1.155461    0.460614
     23          6           0       -4.431807   -2.213975   -0.256428
     24          1           0       -4.456948    0.538716   -0.554585
     25          1           0       -3.002709   -0.094169   -1.319941
     26          1           0       -4.045075   -0.922423    1.433320
     27          1           0       -2.592051   -1.554751    0.667499
     28          1           0       -3.981037   -2.475283   -1.219302
     29          1           0       -5.442317   -1.839361   -0.449130
     30          1           0       -4.516827   -3.129098    0.337864
     31          6           0       -2.620610    1.204148    0.357732
     32          6           0       -2.483575    2.495902   -0.448852
     33          6           0       -1.645011    3.554416    0.268190
     34          1           0       -3.074107    1.434610    1.331704
     35          1           0       -1.619870    0.801725    0.566348
     36          1           0       -3.484765    2.895193   -0.655736
     37          1           0       -2.031741    2.262865   -1.421557
     38          1           0       -0.634499    3.179803    0.460892
     39          1           0       -2.095780    3.815724    1.231064
     40          1           0       -1.559990    4.469539   -0.326101
 ---------------------------------------------------------------------

 SCF Done:  E(RHF) =  -470.732898858     A.U. after   11 cycles
 E2 =    -0.1583521846D+01 EUMP2 =    -0.47231642070407D+03

 The electronic state is 1-A.
 Alpha  occ. eigenvalues --  -11.21687 -11.21645 -11.21549 -11.21483 -11.21416
 Alpha  occ. eigenvalues --  -11.21410 -11.21318 -11.21255 -11.21191 -11.21102
 Alpha  occ. eigenvalues --  -11.21032 -11.20966  -1.08506  -1.08337  -1.03611
 Alpha  occ. eigenvalues --   -1.03433  -0.96064  -0.95896  -0.87097  -0.86904
 Alpha  occ. eigenvalues --   -0.79719  -0.79475  -0.78340  -0.78127  -0.65141
 Alpha  occ. eigenvalues --   -0.64973  -0.61014  -0.60840  -0.59427  -0.59266
 Alpha  occ. eigenvalues --   -0.57667  -0.57505  -0.55357  -0.55185  -0.52769
 Alpha  occ. eigenvalues --   -0.52620  -0.52475  -0.52316  -0.50033  -0.49830
 Alpha  occ. eigenvalues --   -0.48081  -0.47784  -0.46773  -0.46487  -0.46011
 Alpha  occ. eigenvalues --   -0.45796  -0.45665  -0.45302  -0.43848  -0.43692
 Alpha virt. eigenvalues --    0.20947   0.22928   0.23961   0.24278   0.25488
 Alpha virt. eigenvalues --    0.26464   0.27352   0.27500   0.27972   0.29835
 Alpha virt. eigenvalues --    0.30775   0.31077   0.31737   0.31903   0.32003

 Mulliken charges:
               1
     1  C   -0.298302
     2  C   -0.299755
     3  C   -0.475764
     4  H    0.149920
     5  H    0.149783
     6  H    0.152054
     7  H    0.152011
     8  H    0.155239
     9  H    0.155287
    10  H    0.160493
    11  C   -0.298889
    12  C   -0.300364
    13  C   -0.479997
    14  H    0.149441
    15  H    0.149519
    16  H    0.152463
    17  H    0.152294
    18  H    0.155831
    19  H    0.158445
    20  H    0.161319
    21  C   -0.297258
    22  C   -0.309195
    23  C   -0.475043
    24  H    0.149115
    25  H    0.148859
    26  H    0.150453
    27  H    0.164826
    28  H    0.154787
    29  H    0.154485
    30  H    0.159542
    31  C   -0.301645
    32  C   -0.299250
    33  C   -0.475821
    34  H    0.148948
    35  H    0.152466
    36  H    0.151800
    37  H    0.151629
    38  H    0.155330
    39  H    0.154906
    40  H    0.160039
 Sum of Mulliken charges =  -0.00000

 Dipole moment (field-independent basis, Debye):
    X=              0.0742    Y=             -0.0357    Z=              0.0081  Tot=              0.0827
 Quadrupole moment (field-independent basis, Debye-Ang):
   XX=            -85.8367   YY=            -85.4373   ZZ=            -83.7059
   XY=             -1.0688   XZ=             -0.6757   YZ=             -0.0881

 Normal termination of Gaussian 16 at Thu May  6 03:42:15 2021.
