 Gaussian 16, Revision A.03,
 Gaussian 16:  EM64L-G16RevA.03 25-Dec-2016

 -------------
 #p 6-31g* mp2
 -------------

 ------------------------------------------------------
 Input file generated by CHIRIPA (05-May-2021 14:53:14)
 ------------------------------------------------------
 Symbolic Z-matrix:
 Charge =  0 Multiplicity = 1

                         Standard orientation:
 ---------------------------------------------------------------------
 Center     Atomic      Atomic             Coordinates (Angstroms)
 Number     Number       Type             X           Y           Z
 ---------------------------------------------------------------------
      1          6           0        3.574953    1.058454   -0.437125
      2          6           0        2.164926    1.502599   -0.827695
      3          6           0        2.060318    3.012028   -1.047870
      4          1           0        3.878415    1.585776    0.477636
      5          1           0        4.279247    1.365003   -1.222869
      6          1           0        1.463300    1.194085   -0.042102
      7          1           0        1.864711    0.974015   -1.741525
      8          1           0        2.737636    3.332780   -1.845967
      9          1           0        2.333945    3.554099   -0.136888
     10          1           0        1.043959    3.307655   -1.326221
     11          6           0        3.695482   -0.447942   -0.213583
     12          6           0        5.105509   -0.892087    0.176987
     13          6           0        5.210117   -2.401516    0.397161
     14          1           0        2.991188   -0.754491    0.572161
     15          1           0        3.392020   -0.975264   -1.128344
     16          1           0        5.405724   -0.363504    1.090817
     17          1           0        5.807135   -0.583573   -0.608606
     18          1           0        4.936490   -2.943587   -0.513820
     19          1           0        4.532799   -2.722268    1.195258
     20          1           0        6.226476   -2.697143    0.675512
     21          6           0       -4.459014   -0.881328   -1.571059
     22          6           0       -3.128388   -1.308021   -1.633424
     23          6           0       -2.222590   -0.957824   -0.627721
     24          6           0       -2.683495   -0.176333    0.430640
     25          6           0       -4.002963    0.264253    0.521068
     26          6           0       -4.891292   -0.097935   -0.495908
     27          1           0       -5.155875   -1.158028   -2.356692
     28          1           0       -2.789880   -1.916505   -2.467213
     29          1           0       -1.186934   -1.274511   -0.651038
     30          1           0       -4.310958    0.869869    1.364741
     31          1           0       -5.924094    0.234870   -0.444858
     32          7           0       -1.733814    0.200752    1.501300
     33          8           0       -2.164732    0.890049    2.423155
     34          8           0       -0.576517   -0.200127    1.398356
 ---------------------------------------------------------------------

 SCF Done:  E(RHF) =  -669.536465040     A.U. after   15 cycles
 E2 =    -0.2091176500D+01 EUMP2 =    -0.67162764153940D+03

 The electronic state is 1-A.
 Alpha  occ. eigenvalues --  -20.60982 -20.60974 -15.86002 -11.31285 -11.27850
 Alpha  occ. eigenvalues --  -11.27837 -11.27584 -11.26850 -11.26839 -11.21020
 Alpha  occ. eigenvalues --  -11.20704 -11.20661 -11.20604 -11.20588 -11.20408
 Alpha  occ. eigenvalues --   -1.60034  -1.39592  -1.19453  -1.08866  -1.07710
 Alpha  occ. eigenvalues --   -1.04844  -1.02858  -0.95713  -0.95333  -0.86352
 Alpha  occ. eigenvalues --   -0.86247  -0.82550  -0.78921  -0.77640  -0.77479
 Alpha  occ. eigenvalues --   -0.72229  -0.71341  -0.70563  -0.65113  -0.64848
 Alpha  occ. eigenvalues --   -0.64324  -0.62191  -0.60245  -0.58707  -0.56944
 Alpha  occ. eigenvalues --   -0.55354  -0.54618  -0.53179  -0.52936  -0.52048
 Alpha  occ. eigenvalues --   -0.51763  -0.49275  -0.48995  -0.48982  -0.47259
 Alpha  occ. eigenvalues --   -0.45981  -0.45238  -0.45076  -0.44606  -0.43106
 Alpha  occ. eigenvalues --   -0.37432  -0.36444
 Alpha virt. eigenvalues --    0.04882   0.11208   0.16348   0.21268   0.23563
 Alpha virt. eigenvalues --    0.24924   0.26972   0.27341   0.27633   0.28518
 Alpha virt. eigenvalues --    0.28951   0.30981   0.32018   0.32102   0.32517

 Mulliken charges:
               1
     1  C   -0.296625
     2  C   -0.311597
     3  C   -0.474475
     4  H    0.151231
     5  H    0.144802
     6  H    0.177151
     7  H    0.141655
     8  H    0.150919
     9  H    0.157118
    10  H    0.156235
    11  C   -0.301039
    12  C   -0.299060
    13  C   -0.475566
    14  H    0.161799
    15  H    0.142921
    16  H    0.152907
    17  H    0.149173
    18  H    0.152058
    19  H    0.157297
    20  H    0.158374
    21  C   -0.170489
    22  C   -0.218673
    23  C   -0.170567
    24  C    0.158095
    25  C   -0.170798
    26  C   -0.218651
    27  H    0.225991
    28  H    0.223945
    29  H    0.276846
    30  H    0.275731
    31  H    0.223770
    32  N    0.489056
    33  O   -0.458533
    34  O   -0.461002
 Sum of Mulliken charges =  -0.00000

 Dipole moment (field-independent basis, Debye):
    X=             -3.5779    Y=             -1.3647    Z=             -3.5819  Tot=              5.2434
 Quadrupole moment (field-independent basis, Debye-Ang):
   XX=            -75.0234   YY=            -95.1753   ZZ=            -96.7006
   XY=              2.3526   XZ=              7.1820   YZ=              2.1364

 Normal termination of Gaussian 16 at Thu May  6 02:39:29 2021.
