 Gaussian 16, Revision A.03,
 Gaussian 16:  EM64L-G16RevA.03 25-Dec-2016

 -------------
 #p 6-31g* mp2
 -------------

 ------------------------------------------------------
 Input file generated by CHIRIPA (05-May-2021 14:51:13)
 ------------------------------------------------------
 Symbolic Z-matrix:
 Charge =  0 Multiplicity = 1

                         Standard orientation:
 ---------------------------------------------------------------------
 Center     Atomic      Atomic             Coordinates (Angstroms)
 Number     Number       Type             X           Y           Z
 ---------------------------------------------------------------------
      1          6           0        3.089893    0.600865    0.349749
      2          6           0        2.173681    0.667752    1.572070
      3          6           0        1.274745    1.904564    1.570071
      4          1           0        3.710349    1.506810    0.314499
      5          1           0        2.475424    0.607213   -0.561175
      6          1           0        2.789637    0.659884    2.480449
      7          1           0        1.555469   -0.238547    1.604519
      8          1           0        0.636019    1.915130    0.680960
      9          1           0        1.877199    2.818665    1.561865
     10          1           0        0.628129    1.932322    2.452668
     11          6           0        3.994645   -0.629988    0.337442
     12          6           0        4.910857   -0.696875   -0.884879
     13          6           0        5.809793   -1.933687   -0.882880
     14          1           0        4.609114   -0.636336    1.248366
     15          1           0        3.374189   -1.535933    0.372691
     16          1           0        5.529069    0.209424   -0.917329
     17          1           0        4.294901   -0.689007   -1.793258
     18          1           0        5.207339   -2.847788   -0.874675
     19          1           0        6.448519   -1.944253    0.006231
     20          1           0        6.456408   -1.961445   -1.765478
     21          6           0       -2.998497    0.323229   -0.782307
     22          6           0       -2.802658    1.820498   -0.541847
     23          6           0       -1.711458    2.423609   -1.426907
     24          1           0       -2.048367   -0.197987   -0.601950
     25          1           0       -3.249657    0.158470   -1.839268
     26          1           0       -2.553299    1.982512    0.514651
     27          1           0       -3.753414    2.338187   -0.722613
     28          1           0       -1.957156    2.291244   -2.485545
     29          1           0       -0.750223    1.933548   -1.241252
     30          1           0       -1.588172    3.494683   -1.238590
     31          6           0       -4.086041   -0.294106    0.095117
     32          6           0       -4.281880   -1.791375   -0.145343
     33          6           0       -5.373080   -2.394486    0.739717
     34          1           0       -3.834880   -0.129347    1.152078
     35          1           0       -5.036171    0.227110   -0.085241
     36          1           0       -3.331124   -2.309064    0.035422
     37          1           0       -4.531238   -1.953389   -1.201841
     38          1           0       -6.334314   -1.904425    0.554061
     39          1           0       -5.127382   -2.262121    1.798354
     40          1           0       -5.496366   -3.465560    0.551400
 ---------------------------------------------------------------------

 SCF Done:  E(RHF) =  -470.733252262     A.U. after   11 cycles
 E2 =    -0.1582630041D+01 EUMP2 =    -0.47231588230320D+03

 The electronic state is 1-A.
 Alpha  occ. eigenvalues --  -11.21627 -11.21615 -11.21609 -11.21604 -11.21426
 Alpha  occ. eigenvalues --  -11.21420 -11.21366 -11.21360 -11.21088 -11.21081
 Alpha  occ. eigenvalues --  -11.21077 -11.21060  -1.08454  -1.08438  -1.03569
 Alpha  occ. eigenvalues --   -1.03520  -0.96032  -0.95958  -0.87051  -0.86972
 Alpha  occ. eigenvalues --   -0.79636  -0.79576  -0.78267  -0.78249  -0.65150
 Alpha  occ. eigenvalues --   -0.65016  -0.61135  -0.60779  -0.59371  -0.59350
 Alpha  occ. eigenvalues --   -0.57637  -0.57576  -0.55511  -0.55076  -0.52693
 Alpha  occ. eigenvalues --   -0.52679  -0.52474  -0.52360  -0.50117  -0.49758
 Alpha  occ. eigenvalues --   -0.47992  -0.47850  -0.46730  -0.46528  -0.45846
 Alpha  occ. eigenvalues --   -0.45774  -0.45732  -0.45659  -0.43801  -0.43796
 Alpha virt. eigenvalues --    0.20658   0.23156   0.23587   0.25038   0.26064
 Alpha virt. eigenvalues --    0.26809   0.27098   0.27623   0.27938   0.28877
 Alpha virt. eigenvalues --    0.30636   0.31449   0.31746   0.31811   0.32087

 Mulliken charges:
               1
     1  C   -0.298477
     2  C   -0.299361
     3  C   -0.483222
     4  H    0.150015
     5  H    0.149036
     6  H    0.152096
     7  H    0.151170
     8  H    0.163160
     9  H    0.155550
    10  H    0.159763
    11  C   -0.298287
    12  C   -0.299710
    13  C   -0.475725
    14  H    0.149649
    15  H    0.149537
    16  H    0.152028
    17  H    0.152090
    18  H    0.155173
    19  H    0.155176
    20  H    0.160336
    21  C   -0.298177
    22  C   -0.300877
    23  C   -0.478748
    24  H    0.148923
    25  H    0.149512
    26  H    0.153584
    27  H    0.152182
    28  H    0.155431
    29  H    0.156899
    30  H    0.161082
    31  C   -0.298347
    32  C   -0.299631
    33  C   -0.475719
    34  H    0.149746
    35  H    0.149742
    36  H    0.151753
    37  H    0.151918
    38  H    0.155235
    39  H    0.155237
    40  H    0.160258
 Sum of Mulliken charges =  -0.00000

 Dipole moment (field-independent basis, Debye):
    X=             -0.0069    Y=              0.0176    Z=             -0.0044  Tot=              0.0194
 Quadrupole moment (field-independent basis, Debye-Ang):
   XX=            -84.7885   YY=            -85.4825   ZZ=            -84.3900
   XY=              0.3767   XZ=              1.3972   YZ=              0.3265

 Normal termination of Gaussian 16 at Thu May  6 05:32:47 2021.
