 Gaussian 16, Revision A.03,
 Gaussian 16:  EM64L-G16RevA.03 25-Dec-2016

 -------------
 #p 6-31g* mp2
 -------------

 ------------------------------------------------------
 Input file generated by CHIRIPA (05-May-2021 14:55:25)
 ------------------------------------------------------
 Symbolic Z-matrix:
 Charge =  0 Multiplicity = 1

                         Standard orientation:
 ---------------------------------------------------------------------
 Center     Atomic      Atomic             Coordinates (Angstroms)
 Number     Number       Type             X           Y           Z
 ---------------------------------------------------------------------
      1          6           0       -4.343353   -2.289743    0.119063
      2          6           0       -5.030450   -1.263933    0.776432
      3          6           0       -4.575595    0.056008    0.702885
      4          6           0       -3.425046    0.315568   -0.040188
      5          6           0       -2.718551   -0.684687   -0.706254
      6          6           0       -3.191627   -1.997361   -0.618881
      7          1           0       -4.703773   -3.312282    0.181566
      8          1           0       -5.925178   -1.488064    1.350254
      9          1           0       -5.088177    0.869378    1.201992
     10          1           0       -1.829619   -0.430322   -1.270626
     11          1           0       -2.655991   -2.792003   -1.130430
     12          7           0       -2.933867    1.709084   -0.125367
     13          8           0       -1.917719    1.911634   -0.786467
     14          8           0       -3.574330    2.572385    0.470582
     15          6           0        5.185891   -0.099325   -0.276073
     16          6           0        6.309052   -0.180143    0.758318
     17          6           0        7.699924   -0.157823    0.123674
     18          1           0        5.282965   -0.937514   -0.979608
     19          1           0        5.305907    0.819690   -0.866329
     20          1           0        6.186158   -1.098041    1.347365
     21          1           0        6.209181    0.658227    1.459586
     22          1           0        7.847447    0.763698   -0.448721
     23          1           0        7.824293   -1.002549   -0.561579
     24          1           0        8.487796   -0.216548    0.881084
     25          6           0        3.789465   -0.120578    0.343014
     26          6           0        2.666305   -0.039760   -0.691376
     27          6           0        1.275434   -0.062078   -0.056732
     28          1           0        3.669450   -1.039592    0.933272
     29          1           0        3.692391    0.717611    1.046550
     30          1           0        2.766176   -0.878129   -1.392644
     31          1           0        2.789199    0.878138   -1.280423
     32          1           0        1.151064    0.782647    0.628522
     33          1           0        1.127911   -0.983600    0.515663
     34          1           0        0.487560   -0.003353   -0.814141
 ---------------------------------------------------------------------

 SCF Done:  E(RHF) =  -669.535405817     A.U. after   15 cycles
 E2 =    -0.2091351724D+01 EUMP2 =    -0.67162675754049D+03

 The electronic state is 1-A.
 Alpha  occ. eigenvalues --  -20.60779 -20.60770 -15.85819 -11.31168 -11.27743
 Alpha  occ. eigenvalues --  -11.27727 -11.27489 -11.26758 -11.26746 -11.21450
 Alpha  occ. eigenvalues --  -11.21347 -11.21214 -11.21145 -11.20942 -11.20764
 Alpha  occ. eigenvalues --   -1.59845  -1.39400  -1.19344  -1.08744  -1.08230
 Alpha  occ. eigenvalues --   -1.04748  -1.03322  -0.95783  -0.95572  -0.86799
 Alpha  occ. eigenvalues --   -0.86144  -0.82414  -0.79394  -0.78045  -0.77461
 Alpha  occ. eigenvalues --   -0.72044  -0.71161  -0.70466  -0.65001  -0.64857
 Alpha  occ. eigenvalues --   -0.64766  -0.62134  -0.60711  -0.59135  -0.57386
 Alpha  occ. eigenvalues --   -0.55260  -0.55048  -0.53085  -0.52947  -0.52360
 Alpha  occ. eigenvalues --   -0.52181  -0.49707  -0.48799  -0.48794  -0.47702
 Alpha  occ. eigenvalues --   -0.46418  -0.45586  -0.45509  -0.44805  -0.43557
 Alpha  occ. eigenvalues --   -0.37326  -0.36341
 Alpha virt. eigenvalues --    0.05052   0.11273   0.16561   0.20989   0.23071
 Alpha virt. eigenvalues --    0.24237   0.26442   0.26857   0.27693   0.27804
 Alpha virt. eigenvalues --    0.28984   0.30224   0.31595   0.31640   0.32078

 Mulliken charges:
               1
     1  C   -0.170583
     2  C   -0.218755
     3  C   -0.170571
     4  C    0.156557
     5  C   -0.169738
     6  C   -0.220713
     7  H    0.225490
     8  H    0.223323
     9  H    0.275494
    10  H    0.280567
    11  H    0.223635
    12  N    0.488120
    13  O   -0.461561
    14  O   -0.460322
    15  C   -0.298139
    16  C   -0.299522
    17  C   -0.475613
    18  H    0.148132
    19  H    0.150791
    20  H    0.150848
    21  H    0.152723
    22  H    0.155720
    23  H    0.154387
    24  H    0.159822
    25  C   -0.298676
    26  C   -0.299636
    27  C   -0.479270
    28  H    0.147202
    29  H    0.151787
    30  H    0.147102
    31  H    0.156729
    32  H    0.164630
    33  H    0.147697
    34  H    0.162344
 Sum of Mulliken charges =  -0.00000

 Dipole moment (field-independent basis, Debye):
    X=             -1.7687    Y=             -4.8091    Z=              0.3148  Tot=              5.1337
 Quadrupole moment (field-independent basis, Debye-Ang):
   XX=            -81.7090   YY=            -96.9497   ZZ=            -93.8744
   XY=             15.4758   XZ=             -3.2450   YZ=              1.3877

 Normal termination of Gaussian 16 at Thu May  6 04:48:06 2021.
