 Gaussian 16, Revision A.03,
 Gaussian 16:  EM64L-G16RevA.03 25-Dec-2016

 -------------
 #p 6-31g* mp2
 -------------

 ------------------------------------------------------
 Input file generated by CHIRIPA (05-May-2021 14:53:13)
 ------------------------------------------------------
 Symbolic Z-matrix:
 Charge =  0 Multiplicity = 1

                         Standard orientation:
 ---------------------------------------------------------------------
 Center     Atomic      Atomic             Coordinates (Angstroms)
 Number     Number       Type             X           Y           Z
 ---------------------------------------------------------------------
      1          6           0        4.102669   -0.524441    0.034427
      2          6           0        2.887527   -0.286539    0.931543
      3          6           0        1.721079   -1.220188    0.606743
      4          1           0        3.806879   -0.392497   -1.015355
      5          1           0        4.427789   -1.568869    0.138656
      6          1           0        2.565643    0.757499    0.826701
      7          1           0        3.186289   -0.418877    1.979323
      8          1           0        2.019262   -2.266397    0.729766
      9          1           0        1.395090   -1.083337   -0.429406
     10          1           0        0.863066   -1.032910    1.259889
     11          6           0        5.276970    0.401336    0.346965
     12          6           0        6.492113    0.163434   -0.550150
     13          6           0        7.658560    1.097083   -0.225350
     14          1           0        4.951851    1.445764    0.242736
     15          1           0        5.572760    0.269392    1.396748
     16          1           0        6.193351    0.295772   -1.597931
     17          1           0        6.813996   -0.880604   -0.445308
     18          1           0        7.984550    0.960232    0.810798
     19          1           0        7.360378    2.143292   -0.348373
     20          1           0        8.516574    0.909805   -0.878496
     21          6           0       -5.932199    1.049293    0.318384
     22          6           0       -4.830756    1.883073    0.098935
     23          6           0       -3.569260    1.339335   -0.160914
     24          6           0       -3.444633   -0.048705   -0.194164
     25          6           0       -4.522884   -0.905801    0.020431
     26          6           0       -5.775025   -0.340033    0.278501
     27          1           0       -6.908526    1.480239    0.519550
     28          1           0       -4.949863    2.962395    0.129309
     29          1           0       -2.699669    1.961542   -0.334373
     30          1           0       -4.372996   -1.978000   -0.016168
     31          1           0       -6.628649   -0.989996    0.448552
     32          7           0       -2.114095   -0.635997   -0.468314
     33          8           0       -2.030605   -1.862004   -0.492271
     34          8           0       -1.179905    0.140811   -0.654044
 ---------------------------------------------------------------------

 SCF Done:  E(RHF) =  -669.535635900     A.U. after   15 cycles
 E2 =    -0.2091445620D+01 EUMP2 =    -0.67162708151940D+03

 The electronic state is 1-A.
 Alpha  occ. eigenvalues --  -20.60929 -20.60924 -15.85952 -11.31294 -11.27858
 Alpha  occ. eigenvalues --  -11.27853 -11.27595 -11.26866 -11.26856 -11.20907
 Alpha  occ. eigenvalues --  -11.20532 -11.20514 -11.20271 -11.20174 -11.19015
 Alpha  occ. eigenvalues --   -1.59984  -1.39541  -1.19462  -1.08864  -1.07414
 Alpha  occ. eigenvalues --   -1.04859  -1.02396  -0.95708  -0.94804  -0.86260
 Alpha  occ. eigenvalues --   -0.85816  -0.82535  -0.78511  -0.77587  -0.77175
 Alpha  occ. eigenvalues --   -0.72172  -0.71304  -0.70569  -0.65116  -0.64863
 Alpha  occ. eigenvalues --   -0.64054  -0.62206  -0.59793  -0.58288  -0.56421
 Alpha  occ. eigenvalues --   -0.55369  -0.54104  -0.53192  -0.52950  -0.51508
 Alpha  occ. eigenvalues --   -0.51244  -0.49230  -0.48922  -0.48411  -0.46794
 Alpha  occ. eigenvalues --   -0.45544  -0.44939  -0.44703  -0.44580  -0.42640
 Alpha  occ. eigenvalues --   -0.37440  -0.36461
 Alpha virt. eigenvalues --    0.04931   0.11194   0.16429   0.21331   0.23801
 Alpha virt. eigenvalues --    0.25515   0.27247   0.27615   0.28213   0.28438
 Alpha virt. eigenvalues --    0.29288   0.30904   0.32428   0.32564   0.32678

 Mulliken charges:
               1
     1  C   -0.297602
     2  C   -0.300932
     3  C   -0.467753
     4  H    0.150639
     5  H    0.147234
     6  H    0.150031
     7  H    0.144082
     8  H    0.144711
     9  H    0.175072
    10  H    0.156703
    11  C   -0.297155
    12  C   -0.298903
    13  C   -0.475074
    14  H    0.147752
    15  H    0.147260
    16  H    0.151537
    17  H    0.150998
    18  H    0.153955
    19  H    0.153980
    20  H    0.158221
    21  C   -0.170623
    22  C   -0.218533
    23  C   -0.170895
    24  C    0.158529
    25  C   -0.170824
    26  C   -0.218572
    27  H    0.225981
    28  H    0.223796
    29  H    0.275646
    30  H    0.275957
    31  H    0.223836
    32  N    0.487955
    33  O   -0.458670
    34  O   -0.458337
 Sum of Mulliken charges =  -0.00000

 Dipole moment (field-independent basis, Debye):
    X=             -5.0882    Y=              2.0579    Z=              0.8394  Tot=              5.5524
 Quadrupole moment (field-independent basis, Debye-Ang):
   XX=            -64.3996   YY=            -90.8398   ZZ=            -95.7897
   XY=             -5.8045   XZ=             -2.8581   YZ=             -1.2545

 Normal termination of Gaussian 16 at Wed May  5 23:25:36 2021.
