 Gaussian 16, Revision A.03,
 Gaussian 16:  EM64L-G16RevA.03 25-Dec-2016

 -------------
 #p 6-31g* mp2
 -------------

 ------------------------------------------------------
 Input file generated by CHIRIPA (05-May-2021 14:53:12)
 ------------------------------------------------------
 Symbolic Z-matrix:
 Charge =  0 Multiplicity = 1

                         Standard orientation:
 ---------------------------------------------------------------------
 Center     Atomic      Atomic             Coordinates (Angstroms)
 Number     Number       Type             X           Y           Z
 ---------------------------------------------------------------------
      1          6           0        3.458400    0.649072   -0.695928
      2          6           0        2.289908    1.632021   -0.615785
      3          6           0        2.263677    2.615823   -1.785930
      4          1           0        4.401423    1.211939   -0.724804
      5          1           0        3.396893    0.093513   -1.641954
      6          1           0        2.352822    2.184584    0.330434
      7          1           0        1.349566    1.066743   -0.586903
      8          1           0        2.177022    2.080815   -2.737171
      9          1           0        3.185979    3.205007   -1.814621
     10          1           0        1.420415    3.309216   -1.708635
     11          6           0        3.498153   -0.340864    0.466902
     12          6           0        4.666646   -1.323812    0.386760
     13          6           0        4.692876   -2.307614    1.556905
     14          1           0        3.559660    0.214696    1.412928
     15          1           0        2.555130   -0.903730    0.495779
     16          1           0        5.606987   -0.758535    0.357878
     17          1           0        4.603731   -1.876375   -0.559460
     18          1           0        3.770575   -2.896798    1.585596
     19          1           0        4.779532   -1.772606    2.508145
     20          1           0        5.536139   -3.001007    1.479610
     21          6           0       -2.399756    1.744232    1.759252
     22          6           0       -1.453031    1.539421    0.750151
     23          6           0       -1.618779    0.509356   -0.180462
     24          6           0       -2.748112   -0.300659   -0.071966
     25          6           0       -3.708996   -0.121855    0.922027
     26          6           0       -3.522738    0.914403    1.841823
     27          1           0       -2.263032    2.546816    2.477974
     28          1           0       -0.579939    2.182326    0.683600
     29          1           0       -0.901418    0.328515   -0.971732
     30          1           0       -4.569124   -0.779072    0.962808
     31          1           0       -4.259609    1.071126    2.624449
     32          7           0       -2.934440   -1.394421   -1.051439
     33          8           0       -3.938005   -2.094253   -0.934274
     34          8           0       -2.073389   -1.531169   -1.917770
 ---------------------------------------------------------------------

 SCF Done:  E(RHF) =  -669.535131181     A.U. after   15 cycles
 E2 =    -0.2092178113D+01 EUMP2 =    -0.67162730929380D+03

 The electronic state is 1-A.
 Alpha  occ. eigenvalues --  -20.60758 -20.60753 -15.85809 -11.31153 -11.27717
 Alpha  occ. eigenvalues --  -11.27695 -11.27445 -11.26736 -11.26674 -11.22470
 Alpha  occ. eigenvalues --  -11.21876 -11.21805 -11.21770 -11.21705 -11.21200
 Alpha  occ. eigenvalues --   -1.59833  -1.39387  -1.19320  -1.08901  -1.08717
 Alpha  occ. eigenvalues --   -1.04727  -1.04003  -0.96414  -0.95560  -0.87431
 Alpha  occ. eigenvalues --   -0.86117  -0.82407  -0.80131  -0.78693  -0.77425
 Alpha  occ. eigenvalues --   -0.72029  -0.71155  -0.70444  -0.65548  -0.64966
 Alpha  occ. eigenvalues --   -0.64719  -0.62184  -0.61322  -0.59798  -0.58029
 Alpha  occ. eigenvalues --   -0.55672  -0.55218  -0.53142  -0.53053  -0.52835
 Alpha  occ. eigenvalues --   -0.52801  -0.50346  -0.48790  -0.48785  -0.48396
 Alpha  occ. eigenvalues --   -0.47147  -0.46214  -0.46106  -0.44797  -0.44238
 Alpha  occ. eigenvalues --   -0.37300  -0.36309
 Alpha virt. eigenvalues --    0.05070   0.11325   0.16539   0.19822   0.22723
 Alpha virt. eigenvalues --    0.23814   0.25324   0.25980   0.27127   0.28257
 Alpha virt. eigenvalues --    0.29439   0.29701   0.31111   0.31570   0.32400

 Mulliken charges:
               1
     1  C   -0.297995
     2  C   -0.308710
     3  C   -0.477243
     4  H    0.151614
     5  H    0.154848
     6  H    0.149016
     7  H    0.147929
     8  H    0.161535
     9  H    0.159296
    10  H    0.156400
    11  C   -0.299470
    12  C   -0.300329
    13  C   -0.476277
    14  H    0.147757
    15  H    0.152159
    16  H    0.151798
    17  H    0.154951
    18  H    0.157403
    19  H    0.154077
    20  H    0.161594
    21  C   -0.171603
    22  C   -0.221021
    23  C   -0.178159
    24  C    0.160125
    25  C   -0.171272
    26  C   -0.218378
    27  H    0.225565
    28  H    0.230369
    29  H    0.278375
    30  H    0.275375
    31  H    0.223271
    32  N    0.488613
    33  O   -0.460399
    34  O   -0.461215
 Sum of Mulliken charges =  -0.00000

 Dipole moment (field-independent basis, Debye):
    X=              0.8240    Y=              3.8053    Z=              3.4058  Tot=              5.1729
 Quadrupole moment (field-independent basis, Debye-Ang):
   XX=            -94.0364   YY=            -97.5694   ZZ=            -95.0090
   XY=             -9.1993   XZ=            -11.9798   YZ=             -1.0281

 Normal termination of Gaussian 16 at Wed May  5 15:29:06 2021.
