 Gaussian 16, Revision A.03,
 Gaussian 16:  EM64L-G16RevA.03 25-Dec-2016

 -------------
 #p 6-31g* mp2
 -------------

 ------------------------------------------------------
 Input file generated by CHIRIPA (05-May-2021 14:51:09)
 ------------------------------------------------------
 Symbolic Z-matrix:
 Charge =  0 Multiplicity = 1

                         Standard orientation:
 ---------------------------------------------------------------------
 Center     Atomic      Atomic             Coordinates (Angstroms)
 Number     Number       Type             X           Y           Z
 ---------------------------------------------------------------------
      1          6           0        4.782493   -0.408845    0.368455
      2          6           0        5.930788   -0.598753   -0.623179
      3          6           0        7.172895   -1.214594    0.021574
      4          1           0        5.122544    0.229166    1.195651
      5          1           0        4.523757   -1.381319    0.809755
      6          1           0        6.186359    0.373572   -1.063502
      7          1           0        5.587906   -1.236228   -1.448207
      8          1           0        6.940147   -2.196895    0.445266
      9          1           0        7.542000   -0.577948    0.832157
     10          1           0        7.981385   -1.341490   -0.705131
     11          6           0        3.533727    0.205861   -0.261186
     12          6           0        2.385432    0.395769    0.730448
     13          6           0        1.143326    1.011611    0.085696
     14          1           0        3.792464    1.178335   -0.702485
     15          1           0        3.193676   -0.432149   -1.088382
     16          1           0        2.728315    1.033245    1.555477
     17          1           0        2.129862   -0.576555    1.170772
     18          1           0        0.774221    0.374965   -0.724887
     19          1           0        1.376074    1.993911   -0.337996
     20          1           0        0.334835    1.138506    0.812401
     21          6           0       -3.712684    0.589381   -0.437030
     22          6           0       -3.101355    1.676077    0.448041
     23          6           0       -2.212809    2.644424   -0.333359
     24          1           0       -2.905891    0.031251   -0.931520
     25          1           0       -4.299570    1.063853   -1.235676
     26          1           0       -2.516929    1.199668    1.245598
     27          1           0       -3.909692    2.231562    0.940630
     28          1           0       -2.787390    3.146293   -1.118589
     29          1           0       -1.386713    2.108535   -0.811888
     30          1           0       -1.786158    3.412984    0.318673
     31          6           0       -4.603536   -0.386397    0.329761
     32          6           0       -5.214866   -1.473094   -0.555311
     33          6           0       -6.103411   -2.441441    0.226088
     34          1           0       -4.016650   -0.860869    1.128406
     35          1           0       -5.410330    0.171733    0.824250
     36          1           0       -4.406529   -2.028579   -1.047899
     37          1           0       -5.799292   -0.996684   -1.352868
     38          1           0       -6.929507   -1.905552    0.704617
     39          1           0       -5.528831   -2.943309    1.011319
     40          1           0       -6.530063   -3.210001   -0.425942
 ---------------------------------------------------------------------

 SCF Done:  E(RHF) =  -470.732856303     A.U. after   11 cycles
 E2 =    -0.1582825714D+01 EUMP2 =    -0.47231568201734D+03

 The electronic state is 1-A.
 Alpha  occ. eigenvalues --  -11.21617 -11.21613 -11.21581 -11.21540 -11.21421
 Alpha  occ. eigenvalues --  -11.21366 -11.21362 -11.21304 -11.21097 -11.21081
 Alpha  occ. eigenvalues --  -11.21057 -11.20884  -1.08451  -1.08383  -1.03573
 Alpha  occ. eigenvalues --   -1.03455  -0.96060  -0.95867  -0.87103  -0.86861
 Alpha  occ. eigenvalues --   -0.79672  -0.79490  -0.78265  -0.78196  -0.65080
 Alpha  occ. eigenvalues --   -0.65022  -0.60958  -0.60925  -0.59367  -0.59262
 Alpha  occ. eigenvalues --   -0.57643  -0.57500  -0.55294  -0.55246  -0.52732
 Alpha  occ. eigenvalues --   -0.52572  -0.52471  -0.52268  -0.49953  -0.49817
 Alpha  occ. eigenvalues --   -0.47967  -0.47827  -0.46648  -0.46569  -0.45826
 Alpha  occ. eigenvalues --   -0.45728  -0.45723  -0.45639  -0.43768  -0.43730
 Alpha virt. eigenvalues --    0.21507   0.22998   0.23656   0.24954   0.26190
 Alpha virt. eigenvalues --    0.26614   0.26742   0.27661   0.27740   0.29105
 Alpha virt. eigenvalues --    0.30024   0.30998   0.31296   0.31894   0.32303

 Mulliken charges:
               1
     1  C   -0.298266
     2  C   -0.299627
     3  C   -0.475712
     4  H    0.149702
     5  H    0.149469
     6  H    0.151990
     7  H    0.151921
     8  H    0.155167
     9  H    0.155207
    10  H    0.160301
    11  C   -0.298496
    12  C   -0.300892
    13  C   -0.479012
    14  H    0.149671
    15  H    0.149505
    16  H    0.152125
    17  H    0.151609
    18  H    0.153685
    19  H    0.156486
    20  H    0.165121
    21  C   -0.298246
    22  C   -0.301042
    23  C   -0.481560
    24  H    0.149689
    25  H    0.149495
    26  H    0.151571
    27  H    0.151667
    28  H    0.153911
    29  H    0.166194
    30  H    0.158898
    31  C   -0.298271
    32  C   -0.299595
    33  C   -0.475672
    34  H    0.149338
    35  H    0.149578
    36  H    0.151774
    37  H    0.151911
    38  H    0.155169
    39  H    0.155092
    40  H    0.160146
 Sum of Mulliken charges =  -0.00000

 Dipole moment (field-independent basis, Debye):
    X=              0.0361    Y=              0.0062    Z=             -0.0085  Tot=              0.0376
 Quadrupole moment (field-independent basis, Debye-Ang):
   XX=            -85.5607   YY=            -84.4032   ZZ=            -85.0184
   XY=             -0.1731   XZ=              0.2140   YZ=              0.5740

 Normal termination of Gaussian 16 at Wed May  5 21:20:36 2021.
