 Gaussian 16, Revision A.03,
 Gaussian 16:  EM64L-G16RevA.03 25-Dec-2016

 -------------
 #p 6-31g* mp2
 -------------

 ------------------------------------------------------
 Input file generated by CHIRIPA (05-May-2021 14:53:14)
 ------------------------------------------------------
 Symbolic Z-matrix:
 Charge =  0 Multiplicity = 1

                         Standard orientation:
 ---------------------------------------------------------------------
 Center     Atomic      Atomic             Coordinates (Angstroms)
 Number     Number       Type             X           Y           Z
 ---------------------------------------------------------------------
      1          6           0       -3.083936    1.011693    0.473403
      2          6           0       -2.859825    2.327783   -0.272026
      3          6           0       -2.362252    3.447720    0.642280
      4          1           0       -3.808276    1.175012    1.283097
      5          1           0       -2.143747    0.704889    0.952267
      6          1           0       -3.799806    2.631301   -0.750491
      7          1           0       -2.136079    2.161268   -1.080160
      8          1           0       -1.411921    3.169976    1.109538
      9          1           0       -3.085101    3.642679    1.441080
     10          1           0       -2.208696    4.379394    0.088869
     11          6           0       -3.581419   -0.117532   -0.427202
     12          6           0       -3.805530   -1.433623    0.318228
     13          6           0       -4.303103   -2.553560   -0.596079
     14          1           0       -4.521608    0.189271   -0.906065
     15          1           0       -2.857079   -0.280851   -1.236896
     16          1           0       -4.529275   -1.267108    1.126362
     17          1           0       -2.865549   -1.737140    0.796692
     18          1           0       -3.580254   -2.748519   -1.394879
     19          1           0       -5.253434   -2.275816   -1.063336
     20          1           0       -4.456658   -3.485234   -0.042667
     21          6           0        4.751243    0.952580   -0.260832
     22          6           0        4.778633   -0.358470    0.225910
     23          6           0        3.594863   -1.089224    0.364589
     24          6           0        2.396033   -0.475140    0.005424
     25          6           0        2.336080    0.829327   -0.482491
     26          6           0        3.532202    1.541257   -0.612859
     27          1           0        5.675621    1.512936   -0.365334
     28          1           0        5.723902   -0.818193    0.500078
     29          1           0        3.587247   -2.105753    0.738795
     30          1           0        1.378459    1.260732   -0.747577
     31          1           0        3.507909    2.559272   -0.991143
     32          7           0        1.136290   -1.238794    0.147838
     33          8           0        0.093063   -0.675099   -0.175524
     34          8           0        1.215984   -2.386579    0.580128
 ---------------------------------------------------------------------

 SCF Done:  E(RHF) =  -669.536602138     A.U. after   15 cycles
 E2 =    -0.2091985491D+01 EUMP2 =    -0.67162858762864D+03

 The electronic state is 1-A.
 Alpha  occ. eigenvalues --  -20.61115 -20.61110 -15.86130 -11.31388 -11.27942
 Alpha  occ. eigenvalues --  -11.27938 -11.27666 -11.26934 -11.26924 -11.20809
 Alpha  occ. eigenvalues --  -11.20595 -11.20083 -11.20070 -11.19935 -11.19785
 Alpha  occ. eigenvalues --   -1.60165  -1.39724  -1.19549  -1.08966  -1.07187
 Alpha  occ. eigenvalues --   -1.04934  -1.02438  -0.95820  -0.94902  -0.86338
 Alpha  occ. eigenvalues --   -0.85939  -0.82656  -0.78524  -0.77717  -0.76954
 Alpha  occ. eigenvalues --   -0.72372  -0.71471  -0.70657  -0.65216  -0.64937
 Alpha  occ. eigenvalues --   -0.63744  -0.62283  -0.59824  -0.58328  -0.56511
 Alpha  occ. eigenvalues --   -0.55441  -0.54175  -0.53270  -0.53023  -0.51681
 Alpha  occ. eigenvalues --   -0.51350  -0.49172  -0.49102  -0.48806  -0.46853
 Alpha  occ. eigenvalues --   -0.45563  -0.45192  -0.44524  -0.44219  -0.42635
 Alpha  occ. eigenvalues --   -0.37523  -0.36532
 Alpha virt. eigenvalues --    0.04780   0.11121   0.16268   0.20810   0.23401
 Alpha virt. eigenvalues --    0.25159   0.26969   0.27471   0.28659   0.28846
 Alpha virt. eigenvalues --    0.29159   0.30928   0.31718   0.32459   0.32901

 Mulliken charges:
               1
     1  C   -0.301607
     2  C   -0.298562
     3  C   -0.475156
     4  H    0.142568
     5  H    0.165958
     6  H    0.148838
     7  H    0.149107
     8  H    0.151289
     9  H    0.155209
    10  H    0.154555
    11  C   -0.295261
    12  C   -0.302814
    13  C   -0.475124
    14  H    0.140296
    15  H    0.158562
    16  H    0.143793
    17  H    0.169665
    18  H    0.157772
    19  H    0.148654
    20  H    0.156973
    21  C   -0.170347
    22  C   -0.218601
    23  C   -0.170449
    24  C    0.157544
    25  C   -0.171281
    26  C   -0.218586
    27  H    0.226427
    28  H    0.224161
    29  H    0.276017
    30  H    0.276227
    31  H    0.224524
    32  N    0.492383
    33  O   -0.464819
    34  O   -0.457917
 Sum of Mulliken charges =  -0.00000

 Dipole moment (field-independent basis, Debye):
    X=              4.8402    Y=              2.4974    Z=             -0.4789  Tot=              5.4676
 Quadrupole moment (field-independent basis, Debye-Ang):
   XX=            -73.1110   YY=            -95.9364   ZZ=            -95.3155
   XY=              1.7786   XZ=             -0.6252   YZ=             -1.9011

 Normal termination of Gaussian 16 at Wed May  5 18:38:04 2021.
