 Gaussian 16, Revision A.03,
 Gaussian 16:  EM64L-G16RevA.03 25-Dec-2016

 -------------
 #p 6-31g* mp2
 -------------

 ------------------------------------------------------
 Input file generated by CHIRIPA (05-May-2021 14:55:22)
 ------------------------------------------------------
 Symbolic Z-matrix:
 Charge =  0 Multiplicity = 1

                         Standard orientation:
 ---------------------------------------------------------------------
 Center     Atomic      Atomic             Coordinates (Angstroms)
 Number     Number       Type             X           Y           Z
 ---------------------------------------------------------------------
      1          6           0       -1.513617   -2.466964    0.777999
      2          6           0       -0.816626   -1.273131    0.564721
      3          6           0       -1.488051   -0.127276    0.127968
      4          6           0       -2.862904   -0.211247   -0.086554
      5          6           0       -3.585300   -1.385983    0.116983
      6          6           0       -2.893297   -2.519488    0.553844
      7          1           0       -0.984045   -3.352295    1.117321
      8          1           0        0.254874   -1.229415    0.737988
      9          1           0       -0.973142    0.809928   -0.045047
     10          1           0       -4.653188   -1.398727   -0.064322
     11          1           0       -3.437176   -3.445274    0.718650
     12          7           0       -3.584604    0.995281   -0.548982
     13          8           0       -4.796051    0.895270   -0.730729
     14          8           0       -2.925161    2.018123   -0.720930
     15          6           0        3.749012    0.021087   -0.509767
     16          6           0        4.829641   -0.928430    0.008543
     17          6           0        5.293018   -1.930461   -1.049290
     18          1           0        2.890213   -0.567483   -0.860470
     19          1           0        4.135186    0.562318   -1.384600
     20          1           0        4.442027   -1.466701    0.882978
     21          1           0        5.685891   -0.337522    0.358231
     22          1           0        5.704927   -1.409177   -1.919459
     23          1           0        4.453997   -2.544771   -1.391731
     24          1           0        6.065582   -2.599411   -0.657485
     25          6           0        3.275522    1.028762    0.536239
     26          6           0        2.194894    1.978278    0.017928
     27          6           0        1.731516    2.980309    1.075761
     28          1           0        2.889349    0.487530    1.411072
     29          1           0        4.134322    1.617332    0.886941
     30          1           0        1.338644    1.387370   -0.331759
     31          1           0        2.582508    2.516549   -0.856506
     32          1           0        2.570538    3.594620    1.418202
     33          1           0        1.319607    2.459025    1.945930
     34          1           0        0.958953    3.649260    0.683956
 ---------------------------------------------------------------------

 SCF Done:  E(RHF) =  -669.535438116     A.U. after   15 cycles
 E2 =    -0.2091932604D+01 EUMP2 =    -0.67162737071971D+03

 The electronic state is 1-A.
 Alpha  occ. eigenvalues --  -20.60758 -20.60752 -15.85810 -11.31173 -11.27753
 Alpha  occ. eigenvalues --  -11.27727 -11.27503 -11.26772 -11.26761 -11.22259
 Alpha  occ. eigenvalues --  -11.22221 -11.22091 -11.22031 -11.21605 -11.21438
 Alpha  occ. eigenvalues --   -1.59832  -1.39385  -1.19353  -1.09089  -1.08749
 Alpha  occ. eigenvalues --   -1.04762  -1.04110  -0.96533  -0.95583  -0.87541
 Alpha  occ. eigenvalues --   -0.86157  -0.82419  -0.80175  -0.78903  -0.77461
 Alpha  occ. eigenvalues --   -0.72030  -0.71154  -0.70476  -0.65774  -0.65004
 Alpha  occ. eigenvalues --   -0.64770  -0.62210  -0.61415  -0.59884  -0.58135
 Alpha  occ. eigenvalues --   -0.55842  -0.55261  -0.53186  -0.53086  -0.52946
 Alpha  occ. eigenvalues --   -0.52839  -0.50486  -0.48788  -0.48788  -0.48464
 Alpha  occ. eigenvalues --   -0.47232  -0.46427  -0.46381  -0.44791  -0.44368
 Alpha  occ. eigenvalues --   -0.37338  -0.36360
 Alpha virt. eigenvalues --    0.05066   0.11281   0.16529   0.18180   0.22639
 Alpha virt. eigenvalues --    0.23511   0.25246   0.25954   0.26889   0.28396
 Alpha virt. eigenvalues --    0.29408   0.30900   0.31399   0.31421   0.32341

 Mulliken charges:
               1
     1  C   -0.170828
     2  C   -0.223642
     3  C   -0.180297
     4  C    0.160702
     5  C   -0.170399
     6  C   -0.218765
     7  H    0.225628
     8  H    0.226071
     9  H    0.284828
    10  H    0.275610
    11  H    0.223473
    12  N    0.487935
    13  O   -0.460471
    14  O   -0.460345
    15  C   -0.299667
    16  C   -0.299568
    17  C   -0.475810
    18  H    0.144883
    19  H    0.154130
    20  H    0.148541
    21  H    0.154803
    22  H    0.157711
    23  H    0.153697
    24  H    0.161698
    25  C   -0.299289
    26  C   -0.304409
    27  C   -0.478792
    28  H    0.144228
    29  H    0.154343
    30  H    0.143769
    31  H    0.158729
    32  H    0.157904
    33  H    0.153039
    34  H    0.170560
 Sum of Mulliken charges =  -0.00000

 Dipole moment (field-independent basis, Debye):
    X=              2.6853    Y=             -4.1068    Z=              1.5977  Tot=              5.1603
 Quadrupole moment (field-independent basis, Debye-Ang):
   XX=           -104.7277   YY=            -91.6892   ZZ=            -96.2691
   XY=             15.4433   XZ=             -5.0008   YZ=             -0.7060

 Normal termination of Gaussian 16 at Thu May  6 19:12:19 2021.
