 Gaussian 16, Revision A.03,
 Gaussian 16:  EM64L-G16RevA.03 25-Dec-2016

 -------------
 #p 6-31g* mp2
 -------------

 ------------------------------------------------------
 Input file generated by CHIRIPA (05-May-2021 14:53:15)
 ------------------------------------------------------
 Symbolic Z-matrix:
 Charge =  0 Multiplicity = 1

                         Standard orientation:
 ---------------------------------------------------------------------
 Center     Atomic      Atomic             Coordinates (Angstroms)
 Number     Number       Type             X           Y           Z
 ---------------------------------------------------------------------
      1          6           0       -3.311039    0.234174   -0.105763
      2          6           0       -4.823829    0.272618    0.113263
      3          6           0       -5.333230    1.667627    0.476934
      4          1           0       -2.806095    0.584615    0.804824
      5          1           0       -3.044873    0.942070   -0.902904
      6          1           0       -5.087225   -0.436152    0.908803
      7          1           0       -5.325226   -0.078136   -0.797884
      8          1           0       -5.099117    2.382678   -0.318361
      9          1           0       -4.859764    2.022629    1.398023
     10          1           0       -6.417066    1.672222    0.629041
     11          6           0       -2.786723   -1.153681   -0.470013
     12          6           0       -1.273933   -1.192126   -0.689039
     13          6           0       -0.764533   -2.587134   -1.052710
     14          1           0       -3.052889   -1.861578    0.327128
     15          1           0       -3.291667   -1.504122   -1.380599
     16          1           0       -0.772536   -0.841371    0.222108
     17          1           0       -1.010537   -0.483356   -1.484579
     18          1           0       -1.237998   -2.942136   -1.973799
     19          1           0       -0.998645   -3.302185   -0.257415
     20          1           0        0.319304   -2.591730   -1.204817
     21          6           0        2.403445   -2.044339    0.992077
     22          6           0        3.182974   -1.651382   -0.100827
     23          6           0        3.178841   -0.322340   -0.534623
     24          6           0        2.379859    0.591546    0.150746
     25          6           0        1.592283    0.230833    1.242945
     26          6           0        1.611983   -1.103636    1.659299
     27          1           0        2.412702   -3.078879    1.322285
     28          1           0        3.798598   -2.379784   -0.620907
     29          1           0        3.772696    0.009052   -1.377791
     30          1           0        0.988761    0.979706    1.741311
     31          1           0        1.005581   -1.405964    2.508369
     32          7           0        2.367243    2.001417   -0.299262
     33          8           0        1.654760    2.787331    0.321497
     34          8           0        3.070079    2.293862   -1.264215
 ---------------------------------------------------------------------

 SCF Done:  E(RHF) =  -669.533498990     A.U. after   15 cycles
 E2 =    -0.2094943470D+01 EUMP2 =    -0.67162844245995D+03

 The electronic state is 1-A.
 Alpha  occ. eigenvalues --  -20.60812 -20.60807 -15.85869 -11.31255 -11.27856
 Alpha  occ. eigenvalues --  -11.27837 -11.27587 -11.26856 -11.26831 -11.21604
 Alpha  occ. eigenvalues --  -11.21561 -11.21448 -11.21373 -11.21231 -11.21002
 Alpha  occ. eigenvalues --   -1.59888  -1.39441  -1.19463  -1.08844  -1.08466
 Alpha  occ. eigenvalues --   -1.04886  -1.03563  -0.96032  -0.95667  -0.87048
 Alpha  occ. eigenvalues --   -0.86260  -0.82508  -0.79641  -0.78286  -0.77541
 Alpha  occ. eigenvalues --   -0.72088  -0.71211  -0.70558  -0.65158  -0.65082
 Alpha  occ. eigenvalues --   -0.64865  -0.62217  -0.61012  -0.59465  -0.57701
 Alpha  occ. eigenvalues --   -0.55380  -0.55339  -0.53281  -0.52955  -0.52560
 Alpha  occ. eigenvalues --   -0.52374  -0.49984  -0.48848  -0.48840  -0.47975
 Alpha  occ. eigenvalues --   -0.46687  -0.45832  -0.45758  -0.44837  -0.43840
 Alpha  occ. eigenvalues --   -0.37376  -0.36306
 Alpha virt. eigenvalues --    0.04984   0.11076   0.16395   0.20985   0.22962
 Alpha virt. eigenvalues --    0.24318   0.26131   0.26967   0.27642   0.27852
 Alpha virt. eigenvalues --    0.28895   0.30831   0.31438   0.31659   0.32123

 Mulliken charges:
               1
     1  C   -0.297605
     2  C   -0.299640
     3  C   -0.475730
     4  H    0.146014
     5  H    0.154085
     6  H    0.149847
     7  H    0.152282
     8  H    0.157704
     9  H    0.155104
    10  H    0.159815
    11  C   -0.297467
    12  C   -0.303024
    13  C   -0.478029
    14  H    0.145377
    15  H    0.149874
    16  H    0.154166
    17  H    0.153862
    18  H    0.155202
    19  H    0.147554
    20  H    0.161665
    21  C   -0.167435
    22  C   -0.220421
    23  C   -0.170990
    24  C    0.162288
    25  C   -0.172008
    26  C   -0.217240
    27  H    0.226742
    28  H    0.224211
    29  H    0.276136
    30  H    0.276241
    31  H    0.224079
    32  N    0.487952
    33  O   -0.460177
    34  O   -0.460434
 Sum of Mulliken charges =  -0.00000

 Dipole moment (field-independent basis, Debye):
    X=              0.1643    Y=             -4.8713    Z=              1.5926  Tot=              5.1277
 Quadrupole moment (field-independent basis, Debye-Ang):
   XX=            -93.1797   YY=           -102.1392   ZZ=            -91.0722
   XY=            -12.7113   XZ=              1.5014   YZ=              0.5071

 Normal termination of Gaussian 16 at Thu May  6 12:09:01 2021.
