 Gaussian 16, Revision A.03,
 Gaussian 16:  EM64L-G16RevA.03 25-Dec-2016

 -------------
 #p 6-31g* mp2
 -------------

 ------------------------------------------------------
 Input file generated by CHIRIPA (05-May-2021 14:55:24)
 ------------------------------------------------------
 Symbolic Z-matrix:
 Charge =  0 Multiplicity = 1

                         Standard orientation:
 ---------------------------------------------------------------------
 Center     Atomic      Atomic             Coordinates (Angstroms)
 Number     Number       Type             X           Y           Z
 ---------------------------------------------------------------------
      1          6           0        1.912326    0.220294    2.495777
      2          6           0        1.011615    0.387861    1.438819
      3          6           0        1.434037    0.234680    0.114944
      4          6           0        2.770331   -0.087704   -0.116742
      5          6           0        3.691731   -0.261154    0.914872
      6          6           0        3.247156   -0.103108    2.230898
      7          1           0        1.575575    0.341178    3.521146
      8          1           0       -0.025620    0.639035    1.641548
      9          1           0        0.757913    0.358670   -0.722253
     10          1           0        4.719491   -0.511371    0.681381
     11          1           0        3.948880   -0.233844    3.049761
     12          7           0        3.229256   -0.252444   -1.514113
     13          8           0        4.411772   -0.536606   -1.691719
     14          8           0        2.397755   -0.094287   -2.405309
     15          6           0       -3.680676    0.804244   -0.104012
     16          6           0       -2.569292    1.812285   -0.398397
     17          6           0       -3.047833    3.261868   -0.311788
     18          1           0       -4.506756    0.962020   -0.810869
     19          1           0       -4.085956    0.998265    0.898733
     20          1           0       -2.165289    1.615542   -1.399741
     21          1           0       -1.745681    1.651964    0.309119
     22          1           0       -3.432427    3.481419    0.689453
     23          1           0       -3.854420    3.444790   -1.029116
     24          1           0       -2.237423    3.965644   -0.525783
     25          6           0       -3.217741   -0.649229   -0.186707
     26          6           0       -4.329126   -1.657269    0.107678
     27          6           0       -3.850583   -3.106853    0.021069
     28          1           0       -2.812461   -0.843249   -1.189453
     29          1           0       -2.391661   -0.807005    0.520149
     30          1           0       -5.152736   -1.496949   -0.599838
     31          1           0       -4.733128   -1.460527    1.109022
     32          1           0       -3.043997   -3.289775    0.738396
     33          1           0       -3.465990   -3.326405   -0.980173
     34          1           0       -4.660993   -3.810630    0.235065
 ---------------------------------------------------------------------

 SCF Done:  E(RHF) =  -669.535542154     A.U. after   15 cycles
 E2 =    -0.2091855693D+01 EUMP2 =    -0.67162739784718D+03

 The electronic state is 1-A.
 Alpha  occ. eigenvalues --  -20.60723 -20.60718 -15.85776 -11.31128 -11.27716
 Alpha  occ. eigenvalues --  -11.27679 -11.27460 -11.26727 -11.26695 -11.22428
 Alpha  occ. eigenvalues --  -11.22062 -11.22029 -11.21966 -11.21652 -11.21390
 Alpha  occ. eigenvalues --   -1.59798  -1.39352  -1.19308  -1.09053  -1.08708
 Alpha  occ. eigenvalues --   -1.04711  -1.04089  -0.96506  -0.95542  -0.87524
 Alpha  occ. eigenvalues --   -0.86112  -0.82383  -0.80184  -0.78882  -0.77409
 Alpha  occ. eigenvalues --   -0.71995  -0.71121  -0.70418  -0.65734  -0.64959
 Alpha  occ. eigenvalues --   -0.64698  -0.62099  -0.61455  -0.59876  -0.58125
 Alpha  occ. eigenvalues --   -0.55786  -0.55223  -0.53195  -0.53048  -0.52916
 Alpha  occ. eigenvalues --   -0.52817  -0.50449  -0.48759  -0.48750  -0.48471
 Alpha  occ. eigenvalues --   -0.47219  -0.46393  -0.46303  -0.44760  -0.44351
 Alpha  occ. eigenvalues --   -0.37296  -0.36308
 Alpha virt. eigenvalues --    0.05102   0.11326   0.16539   0.19167   0.22838
 Alpha virt. eigenvalues --    0.23835   0.24702   0.25459   0.27488   0.28302
 Alpha virt. eigenvalues --    0.29703   0.30192   0.31405   0.31444   0.32040

 Mulliken charges:
               1
     1  C   -0.170965
     2  C   -0.224938
     3  C   -0.172738
     4  C    0.158331
     5  C   -0.170672
     6  C   -0.218762
     7  H    0.225543
     8  H    0.229457
     9  H    0.278099
    10  H    0.275435
    11  H    0.223173
    12  N    0.488154
    13  O   -0.460752
    14  O   -0.460497
    15  C   -0.298179
    16  C   -0.307106
    17  C   -0.475558
    18  H    0.154337
    19  H    0.148929
    20  H    0.158339
    21  H    0.142589
    22  H    0.154782
    23  H    0.159348
    24  H    0.163250
    25  C   -0.301030
    26  C   -0.299926
    27  C   -0.476310
    28  H    0.154551
    29  H    0.142727
    30  H    0.154530
    31  H    0.151288
    32  H    0.154438
    33  H    0.158423
    34  H    0.161713
 Sum of Mulliken charges =  -0.00000

 Dipole moment (field-independent basis, Debye):
    X=             -1.7985    Y=              0.5857    Z=              4.8133  Tot=              5.1716
 Quadrupole moment (field-independent basis, Debye-Ang):
   XX=            -98.8467   YY=            -96.3337   ZZ=            -94.8947
   XY=              0.8252   XZ=             16.3040   YZ=             -0.9623

 Normal termination of Gaussian 16 at Wed May  5 19:09:20 2021.
