 Gaussian 16, Revision A.03,
 Gaussian 16:  EM64L-G16RevA.03 25-Dec-2016

 -------------
 #p 6-31g* mp2
 -------------

 ------------------------------------------------------
 Input file generated by CHIRIPA (05-May-2021 14:57:21)
 ------------------------------------------------------
 Symbolic Z-matrix:
 Charge =  0 Multiplicity = 1

                         Standard orientation:
 ---------------------------------------------------------------------
 Center     Atomic      Atomic             Coordinates (Angstroms)
 Number     Number       Type             X           Y           Z
 ---------------------------------------------------------------------
      1          6           0        2.611706    2.499525    0.286758
      2          6           0        2.380488    1.647147    1.371429
      3          6           0        2.568358    0.267734    1.243085
      4          6           0        2.989960   -0.227500    0.010087
      5          6           0        3.228655    0.595936   -1.089125
      6          6           0        3.034307    1.972129   -0.937898
      7          1           0        2.463248    3.569835    0.395347
      8          1           0        2.052240    2.053934    2.323701
      9          1           0        2.396704   -0.414922    2.066453
     10          1           0        3.555329    0.160974   -2.025881
     11          1           0        3.214644    2.631709   -1.781981
     12          7           0        3.192279   -1.686119   -0.137897
     13          8           0        3.564167   -2.097552   -1.234737
     14          8           0        2.975137   -2.390331    0.845755
     15          6           0       -5.450427   -0.386901   -0.117819
     16          6           0       -4.928534    0.897238   -0.305262
     17          6           0       -3.548435    1.116164   -0.261170
     18          6           0       -2.715523    0.023260   -0.026419
     19          6           0       -3.205092   -1.267981    0.164134
     20          6           0       -4.588560   -1.463514    0.115869
     21          1           0       -6.523831   -0.547882   -0.153692
     22          1           0       -5.595487    1.735223   -0.486925
     23          1           0       -3.117573    2.099872   -0.402929
     24          1           0       -2.515107   -2.083592    0.343351
     25          1           0       -4.991056   -2.461887    0.261791
     26          7           0       -1.252690    0.242645    0.022468
     27          8           0       -0.540112   -0.736866    0.230864
     28          8           0       -0.846399    1.389956   -0.148536
 ---------------------------------------------------------------------

 SCF Done:  E(RHF) =  -868.338111800     A.U. after   16 cycles
 E2 =    -0.2601544666D+01 EUMP2 =    -0.87093965646597D+03

 The electronic state is 1-A.
 Alpha  occ. eigenvalues --  -20.61107 -20.61072 -20.59236 -20.59211 -15.86115
 Alpha  occ. eigenvalues --  -15.84270 -11.31388 -11.29316 -11.27978 -11.27902
 Alpha  occ. eigenvalues --  -11.27673 -11.26959 -11.26908 -11.26003 -11.25907
 Alpha  occ. eigenvalues --  -11.25730 -11.24990 -11.24909  -1.60153  -1.58291
 Alpha  occ. eigenvalues --   -1.39711  -1.37861  -1.19553  -1.17499  -1.08967
 Alpha  occ. eigenvalues --   -1.06975  -1.04938  -1.02935  -0.95817  -0.93872
 Alpha  occ. eigenvalues --   -0.86341  -0.84372  -0.82652  -0.80760  -0.77707
 Alpha  occ. eigenvalues --   -0.75816  -0.72352  -0.71473  -0.70657  -0.70534
 Alpha  occ. eigenvalues --   -0.69561  -0.68750  -0.65206  -0.64940  -0.63236
 Alpha  occ. eigenvalues --   -0.63042  -0.62282  -0.60356  -0.55456  -0.53537
 Alpha  occ. eigenvalues --   -0.53277  -0.53026  -0.51460  -0.51119  -0.49108
 Alpha  occ. eigenvalues --   -0.48771  -0.47282  -0.47253  -0.45137  -0.43345
 Alpha  occ. eigenvalues --   -0.37536  -0.36538  -0.35384  -0.34431
 Alpha virt. eigenvalues --    0.04797   0.06791   0.11117   0.13201   0.16321
 Alpha virt. eigenvalues --    0.18315   0.21278   0.22932   0.27194   0.28173
 Alpha virt. eigenvalues --    0.28778   0.29822   0.30839   0.32354   0.32427

 Mulliken charges:
               1
     1  C   -0.159172
     2  C   -0.210917
     3  C   -0.154374
     4  C    0.168652
     5  C   -0.171582
     6  C   -0.216959
     7  H    0.217532
     8  H    0.214405
     9  H    0.269379
    10  H    0.268522
    11  H    0.214881
    12  N    0.489485
    13  O   -0.468663
    14  O   -0.464153
    15  C   -0.170450
    16  C   -0.218628
    17  C   -0.171427
    18  C    0.157763
    19  C   -0.170827
    20  C   -0.218664
    21  H    0.226378
    22  H    0.223191
    23  H    0.273142
    24  H    0.279869
    25  H    0.225438
    26  N    0.488027
    27  O   -0.457917
    28  O   -0.462933
 Sum of Mulliken charges =  -0.00000

 Dipole moment (field-independent basis, Debye):
    X=             -6.2673    Y=              4.2799    Z=              0.4305  Tot=              7.6014
 Quadrupole moment (field-independent basis, Debye-Ang):
   XX=            -83.0648   YY=           -103.4879   ZZ=           -101.4124
   XY=             17.2809   XZ=              1.0809   YZ=             -1.8305

 Normal termination of Gaussian 16 at Thu May  6 11:11:24 2021.
