 Gaussian 16, Revision A.03,
 Gaussian 16:  EM64L-G16RevA.03 25-Dec-2016

 -------------
 #p 6-31g* mp2
 -------------

 ------------------------------------------------------
 Input file generated by CHIRIPA (05-May-2021 14:55:18)
 ------------------------------------------------------
 Symbolic Z-matrix:
 Charge =  0 Multiplicity = 1

                         Standard orientation:
 ---------------------------------------------------------------------
 Center     Atomic      Atomic             Coordinates (Angstroms)
 Number     Number       Type             X           Y           Z
 ---------------------------------------------------------------------
      1          6           0        0.522827   -1.227226    0.521385
      2          6           0        1.647011   -1.736817    1.179450
      3          6           0        2.920804   -1.230274    0.904834
      4          6           0        3.034403   -0.209604   -0.037831
      5          6           0        1.933514    0.318988   -0.710084
      6          6           0        0.669409   -0.202756   -0.419623
      7          1           0       -0.462923   -1.626625    0.740868
      8          1           0        1.536174   -2.532431    1.910722
      9          1           0        3.808018   -1.606363    1.399633
     10          1           0        2.075620    1.112130   -1.434067
     11          1           0       -0.201875    0.194930   -0.932221
     12          7           0        4.377783    0.334696   -0.336942
     13          8           0        4.451170    1.233879   -1.171641
     14          8           0        5.331900   -0.148170    0.268977
     15          6           0       -4.164314   -0.127138   -0.087738
     16          6           0       -3.672333   -1.523682   -0.469324
     17          6           0       -4.811650   -2.533366   -0.611761
     18          1           0       -4.722946   -0.187369    0.856321
     19          1           0       -4.874211    0.224661   -0.849104
     20          1           0       -2.962519   -1.872173    0.291817
     21          1           0       -3.114644   -1.460089   -1.412485
     22          1           0       -5.516877   -2.211884   -1.385004
     23          1           0       -5.363888   -2.626310    0.328981
     24          1           0       -4.437503   -3.524961   -0.884916
     25          6           0       -3.036961    0.893376    0.058386
     26          6           0       -3.528940    2.289920    0.439971
     27          6           0       -2.389625    3.299604    0.582408
     28          1           0       -2.327062    0.541577    0.819752
     29          1           0       -2.478328    0.953607   -0.885673
     30          1           0       -4.086631    2.226327    1.383132
     31          1           0       -4.238755    2.638410   -0.321169
     32          1           0       -1.837386    3.392548   -0.358333
     33          1           0       -1.684397    2.978122    1.355652
     34          1           0       -2.763771    4.291200    0.855564
 ---------------------------------------------------------------------

 SCF Done:  E(RHF) =  -669.535058350     A.U. after   15 cycles
 E2 =    -0.2092868029D+01 EUMP2 =    -0.67162792637901D+03

 The electronic state is 1-A.
 Alpha  occ. eigenvalues --  -20.60678 -20.60673 -15.85729 -11.31070 -11.27636
 Alpha  occ. eigenvalues --  -11.27610 -11.27326 -11.26650 -11.26553 -11.22873
 Alpha  occ. eigenvalues --  -11.22628 -11.22477 -11.22458 -11.22033 -11.21791
 Alpha  occ. eigenvalues --   -1.59754  -1.39308  -1.19231  -1.09548  -1.08625
 Alpha  occ. eigenvalues --   -1.04629  -1.04524  -0.96951  -0.95471  -0.87967
 Alpha  occ. eigenvalues --   -0.86030  -0.82307  -0.80613  -0.79437  -0.77346
 Alpha  occ. eigenvalues --   -0.71947  -0.71076  -0.70346  -0.66168  -0.64876
 Alpha  occ. eigenvalues --   -0.64637  -0.62000  -0.61907  -0.60331  -0.58573
 Alpha  occ. eigenvalues --   -0.56228  -0.55145  -0.53607  -0.53414  -0.52957
 Alpha  occ. eigenvalues --   -0.52692  -0.50889  -0.48918  -0.48706  -0.48694
 Alpha  occ. eigenvalues --   -0.47651  -0.46851  -0.46826  -0.44808  -0.44719
 Alpha  occ. eigenvalues --   -0.37199  -0.36227
 Alpha virt. eigenvalues --    0.05157   0.11359   0.16632   0.19314   0.22567
 Alpha virt. eigenvalues --    0.22716   0.24087   0.25194   0.27053   0.28396
 Alpha virt. eigenvalues --    0.29475   0.30370   0.30838   0.31240   0.31787

 Mulliken charges:
               1
     1  C   -0.178754
     2  C   -0.220045
     3  C   -0.171238
     4  C    0.158612
     5  C   -0.172970
     6  C   -0.223232
     7  H    0.232794
     8  H    0.223011
     9  H    0.274976
    10  H    0.275243
    11  H    0.231956
    12  N    0.488006
    13  O   -0.460709
    14  O   -0.460870
    15  C   -0.297673
    16  C   -0.305076
    17  C   -0.475723
    18  H    0.153398
    19  H    0.154271
    20  H    0.145007
    21  H    0.152111
    22  H    0.159260
    23  H    0.157719
    24  H    0.162475
    25  C   -0.306117
    26  C   -0.299625
    27  C   -0.477238
    28  H    0.148960
    29  H    0.145171
    30  H    0.155063
    31  H    0.154978
    32  H    0.153532
    33  H    0.157936
    34  H    0.164791
 Sum of Mulliken charges =  -0.00000

 Dipole moment (field-independent basis, Debye):
    X=             -5.0613    Y=             -1.8322    Z=              1.0649  Tot=              5.4871
 Quadrupole moment (field-independent basis, Debye-Ang):
   XX=           -122.6145   YY=            -92.6237   ZZ=            -92.1363
   XY=             -7.0051   XZ=              4.9395   YZ=             -2.7808

 Normal termination of Gaussian 16 at Thu May  6 10:45:42 2021.
