 Gaussian 16, Revision A.03,
 Gaussian 16:  EM64L-G16RevA.03 25-Dec-2016

 -------------
 #p 6-31g* mp2
 -------------

 ------------------------------------------------------
 Input file generated by CHIRIPA (05-May-2021 14:57:26)
 ------------------------------------------------------
 Symbolic Z-matrix:
 Charge =  0 Multiplicity = 1

                         Standard orientation:
 ---------------------------------------------------------------------
 Center     Atomic      Atomic             Coordinates (Angstroms)
 Number     Number       Type             X           Y           Z
 ---------------------------------------------------------------------
      1          6           0        2.930320    2.540301   -0.867039
      2          6           0        1.903129    2.185566    0.013622
      3          6           0        1.831139    0.890686    0.535782
      4          6           0        2.807369   -0.028386    0.154245
      5          6           0        3.843053    0.294646   -0.721140
      6          6           0        3.895302    1.595375   -1.230967
      7          1           0        2.978576    3.548466   -1.267875
      8          1           0        1.152342    2.917339    0.298006
      9          1           0        1.046747    0.589240    1.219359
     10          1           0        4.577056   -0.456633   -0.986164
     11          1           0        4.694167    1.868054   -1.914711
     12          7           0        2.741606   -1.402313    0.700505
     13          8           0        3.613839   -2.193602    0.348782
     14          8           0        1.819073   -1.661893    1.470043
     15          6           0       -3.708595    2.001249    0.793806
     16          6           0       -4.269960    1.415445   -0.345591
     17          6           0       -3.784621    0.197085   -0.829939
     18          6           0       -2.732129   -0.410674   -0.147166
     19          6           0       -2.151813    0.147867    0.990620
     20          6           0       -2.653173    1.366709    1.457105
     21          1           0       -4.091841    2.947888    1.163120
     22          1           0       -5.089701    1.905976   -0.862745
     23          1           0       -4.200669   -0.278582   -1.709747
     24          1           0       -1.335579   -0.364946    1.484790
     25          1           0       -2.215266    1.819331    2.342213
     26          7           0       -2.209841   -1.700753   -0.650467
     27          8           0       -1.281813   -2.216074   -0.030915
     28          8           0       -2.738390   -2.172168   -1.654978
 ---------------------------------------------------------------------

 SCF Done:  E(RHF) =  -868.335848397     A.U. after   16 cycles
 E2 =    -0.2601827683D+01 EUMP2 =    -0.87093767607976D+03

 The electronic state is 1-A.
 Alpha  occ. eigenvalues --  -20.60524 -20.60456 -20.60397 -20.60333 -15.85549
 Alpha  occ. eigenvalues --  -15.85415 -11.31261 -11.31043 -11.27865 -11.27861
 Alpha  occ. eigenvalues --  -11.27717 -11.27687 -11.27596 -11.27421 -11.27001
 Alpha  occ. eigenvalues --  -11.26940 -11.26760 -11.26678  -1.59577  -1.59411
 Alpha  occ. eigenvalues --   -1.39113  -1.38964  -1.19474  -1.19232  -1.08804
 Alpha  occ. eigenvalues --   -1.08574  -1.04936  -1.04686  -0.95581  -0.95370
 Alpha  occ. eigenvalues --   -0.86309  -0.86069  -0.82412  -0.82201  -0.77447
 Alpha  occ. eigenvalues --   -0.77167  -0.71795  -0.71597  -0.70933  -0.70699
 Alpha  occ. eigenvalues --   -0.70605  -0.70326  -0.65114  -0.64966  -0.64885
 Alpha  occ. eigenvalues --   -0.64682  -0.62370  -0.61941  -0.55418  -0.55174
 Alpha  occ. eigenvalues --   -0.53257  -0.53064  -0.52969  -0.52735  -0.48566
 Alpha  occ. eigenvalues --   -0.48528  -0.48405  -0.48345  -0.44519  -0.44215
 Alpha  occ. eigenvalues --   -0.37475  -0.37208  -0.36609  -0.36240
 Alpha virt. eigenvalues --    0.05036   0.05409   0.10953   0.11458   0.16483
 Alpha virt. eigenvalues --    0.16807   0.20079   0.21996   0.25408   0.27558
 Alpha virt. eigenvalues --    0.27801   0.29460   0.30142   0.31297   0.31855

 Mulliken charges:
               1
     1  C   -0.171316
     2  C   -0.218809
     3  C   -0.168526
     4  C    0.161431
     5  C   -0.169844
     6  C   -0.218132
     7  H    0.224125
     8  H    0.218949
     9  H    0.267693
    10  H    0.276926
    11  H    0.223413
    12  N    0.489958
    13  O   -0.459571
    14  O   -0.456890
    15  C   -0.171829
    16  C   -0.218469
    17  C   -0.170714
    18  C    0.159514
    19  C   -0.182744
    20  C   -0.222962
    21  H    0.224612
    22  H    0.223548
    23  H    0.276656
    24  H    0.287453
    25  H    0.220880
    26  N    0.485743
    27  O   -0.448143
    28  O   -0.462950
 Sum of Mulliken charges =  -0.00000

 Dipole moment (field-independent basis, Debye):
    X=             -1.5349    Y=              9.0721    Z=             -0.2092  Tot=              9.2034
 Quadrupole moment (field-independent basis, Debye-Ang):
   XX=            -88.3716   YY=           -109.8370   ZZ=           -102.9544
   XY=              0.5461   XZ=             -9.7126   YZ=             -0.2377

 Normal termination of Gaussian 16 at Thu May  6 21:21:49 2021.
