 Gaussian 16, Revision A.03,
 Gaussian 16:  EM64L-G16RevA.03 25-Dec-2016

 -------------
 #p 6-31g* mp2
 -------------

 ------------------------------------------------------
 Input file generated by CHIRIPA (05-May-2021 14:51:12)
 ------------------------------------------------------
 Symbolic Z-matrix:
 Charge =  0 Multiplicity = 1

                         Standard orientation:
 ---------------------------------------------------------------------
 Center     Atomic      Atomic             Coordinates (Angstroms)
 Number     Number       Type             X           Y           Z
 ---------------------------------------------------------------------
      1          6           0       -2.582777   -0.278908    0.245812
      2          6           0       -2.005802   -0.725647    1.589505
      3          6           0       -0.498833   -0.977555    1.531366
      4          1           0       -2.366542   -1.044681   -0.511669
      5          1           0       -2.069361    0.636442   -0.079663
      6          1           0       -2.521110   -1.639110    1.913015
      7          1           0       -2.223602    0.041191    2.343918
      8          1           0        0.032540   -0.068099    1.232813
      9          1           0       -0.266658   -1.757947    0.799462
     10          1           0       -0.107256   -1.295936    2.502531
     11          6           0       -4.088280   -0.023148    0.287920
     12          6           0       -4.665255    0.423591   -1.055773
     13          6           0       -6.172224    0.675500   -0.997634
     14          1           0       -4.601696   -0.938497    0.613395
     15          1           0       -4.304515    0.742626    1.045401
     16          1           0       -4.447455   -0.343247   -1.810186
     17          1           0       -4.149947    1.337055   -1.379283
     18          1           0       -6.404399    1.455892   -0.265730
     19          1           0       -6.703597   -0.233957   -0.699081
     20          1           0       -6.563801    0.993880   -1.968799
     21          6           0        3.080039    0.779107    0.084808
     22          6           0        3.780963    2.058359   -0.373672
     23          6           0        3.258941    3.306357    0.338920
     24          1           0        1.999848    0.877789   -0.089535
     25          1           0        3.212454    0.665402    1.169672
     26          1           0        3.648440    2.168893   -1.457571
     27          1           0        4.859632    1.956545   -0.198396
     28          1           0        3.405671    3.222094    1.420572
     29          1           0        2.187596    3.435649    0.154242
     30          1           0        3.773704    4.209308   -0.003952
     31          6           0        3.591018   -0.477051   -0.618540
     32          6           0        2.890094   -1.756304   -0.160060
     33          6           0        3.412116   -3.004302   -0.872652
     34          1           0        3.458604   -0.363347   -1.703405
     35          1           0        4.671208   -0.575733   -0.444198
     36          1           0        1.811425   -1.654490   -0.335337
     37          1           0        3.022617   -1.866838    0.923838
     38          1           0        4.483460   -3.133593   -0.687975
     39          1           0        3.265387   -2.920038   -1.954305
     40          1           0        2.897353   -3.907251   -0.529780
 ---------------------------------------------------------------------

 SCF Done:  E(RHF) =  -470.732452577     A.U. after   11 cycles
 E2 =    -0.1583522021D+01 EUMP2 =    -0.47231597459796D+03

 The electronic state is 1-A.
 Alpha  occ. eigenvalues --  -11.21615 -11.21583 -11.21572 -11.21447 -11.21418
 Alpha  occ. eigenvalues --  -11.21359 -11.21355 -11.21291 -11.21081 -11.21075
 Alpha  occ. eigenvalues --  -11.21003 -11.20990  -1.08442  -1.08373  -1.03538
 Alpha  occ. eigenvalues --   -1.03467  -0.95977  -0.95939  -0.87015  -0.86939
 Alpha  occ. eigenvalues --   -0.79691  -0.79476  -0.78321  -0.78098  -0.65067
 Alpha  occ. eigenvalues --   -0.65019  -0.60992  -0.60829  -0.59342  -0.59314
 Alpha  occ. eigenvalues --   -0.57592  -0.57560  -0.55339  -0.55154  -0.52723
 Alpha  occ. eigenvalues --   -0.52625  -0.52409  -0.52351  -0.50027  -0.49791
 Alpha  occ. eigenvalues --   -0.48111  -0.47761  -0.46727  -0.46426  -0.45994
 Alpha  occ. eigenvalues --   -0.45708  -0.45674  -0.45312  -0.43781  -0.43727
 Alpha virt. eigenvalues --    0.21909   0.23088   0.23943   0.24185   0.25712
 Alpha virt. eigenvalues --    0.26448   0.26732   0.27676   0.27821   0.29452
 Alpha virt. eigenvalues --    0.30333   0.31331   0.31820   0.31931   0.32195

 Mulliken charges:
               1
     1  C   -0.298117
     2  C   -0.300189
     3  C   -0.480652
     4  H    0.149104
     5  H    0.148632
     6  H    0.151642
     7  H    0.151707
     8  H    0.160350
     9  H    0.157251
    10  H    0.160038
    11  C   -0.298180
    12  C   -0.299649
    13  C   -0.475711
    14  H    0.149649
    15  H    0.149782
    16  H    0.151860
    17  H    0.151793
    18  H    0.155237
    19  H    0.155228
    20  H    0.160255
    21  C   -0.301549
    22  C   -0.299283
    23  C   -0.475614
    24  H    0.152571
    25  H    0.149802
    26  H    0.151785
    27  H    0.152007
    28  H    0.155221
    29  H    0.154388
    30  H    0.160304
    31  C   -0.297924
    32  C   -0.304359
    33  C   -0.475658
    34  H    0.148847
    35  H    0.149161
    36  H    0.159406
    37  H    0.151959
    38  H    0.154768
    39  H    0.154545
    40  H    0.159591
 Sum of Mulliken charges =  -0.00000

 Dipole moment (field-independent basis, Debye):
    X=             -0.0086    Y=             -0.0019    Z=              0.0168  Tot=              0.0190
 Quadrupole moment (field-independent basis, Debye-Ang):
   XX=            -85.6792   YY=            -84.9313   ZZ=            -84.4066
   XY=              0.6338   XZ=              0.6252   YZ=             -0.2626

 Normal termination of Gaussian 16 at Wed May  5 19:56:13 2021.
