 Gaussian 16, Revision A.03,
 Gaussian 16:  EM64L-G16RevA.03 25-Dec-2016

 -------------
 #p 6-31g* mp2
 -------------

 ------------------------------------------------------
 Input file generated by CHIRIPA (05-May-2021 14:53:13)
 ------------------------------------------------------
 Symbolic Z-matrix:
 Charge =  0 Multiplicity = 1

                         Standard orientation:
 ---------------------------------------------------------------------
 Center     Atomic      Atomic             Coordinates (Angstroms)
 Number     Number       Type             X           Y           Z
 ---------------------------------------------------------------------
      1          6           0       -2.969302    0.654354   -0.803116
      2          6           0       -2.206594    1.944399   -0.499727
      3          6           0       -2.070985    2.852436   -1.722377
      4          1           0       -2.454981    0.112644   -1.608702
      5          1           0       -3.967849    0.908176   -1.185051
      6          1           0       -1.210284    1.688207   -0.117174
      7          1           0       -2.722685    2.483008    0.305361
      8          1           0       -3.057567    3.136835   -2.102342
      9          1           0       -1.536573    2.337519   -2.527278
     10          1           0       -1.522531    3.768822   -1.483017
     11          6           0       -3.113092   -0.263821    0.409322
     12          6           0       -3.875801   -1.553866    0.105933
     13          6           0       -4.011410   -2.461902    1.328583
     14          1           0       -2.114546   -0.517643    0.791257
     15          1           0       -3.627414    0.277890    1.214908
     16          1           0       -3.359710   -2.092474   -0.699156
     17          1           0       -4.872111   -1.297674   -0.276621
     18          1           0       -4.545821   -1.946985    2.133484
     19          1           0       -3.024827   -2.746302    1.708548
     20          1           0       -4.559864   -3.378289    1.089223
     21          6           0        2.914267   -1.457263   -1.937550
     22          6           0        3.945945   -1.019688   -1.100479
     23          6           0        3.659367   -0.296017    0.060867
     24          6           0        2.323892   -0.026417    0.356013
     25          6           0        1.273896   -0.448711   -0.457908
     26          6           0        1.583881   -1.170883   -1.614163
     27          1           0        3.145980   -2.018846   -2.837733
     28          1           0        4.980064   -1.240640   -1.349123
     29          1           0        4.438549    0.054803    0.726613
     30          1           0        0.252760   -0.213130   -0.183684
     31          1           0        0.780621   -1.509446   -2.262387
     32          7           0        2.008114    0.738906    1.582782
     33          8           0        0.823349    0.963485    1.820547
     34          8           0        2.951353    1.099698    2.283330
 ---------------------------------------------------------------------

 SCF Done:  E(RHF) =  -669.535413191     A.U. after   15 cycles
 E2 =    -0.2093157265D+01 EUMP2 =    -0.67162857045596D+03

 The electronic state is 1-A.
 Alpha  occ. eigenvalues --  -20.60916 -20.60908 -15.85942 -11.31268 -11.27831
 Alpha  occ. eigenvalues --  -11.27813 -11.27569 -11.26845 -11.26835 -11.21672
 Alpha  occ. eigenvalues --  -11.21474 -11.21343 -11.21297 -11.21048 -11.20952
 Alpha  occ. eigenvalues --   -1.59975  -1.39532  -1.19440  -1.08842  -1.08429
 Alpha  occ. eigenvalues --   -1.04838  -1.03469  -0.95943  -0.95685  -0.86954
 Alpha  occ. eigenvalues --   -0.86243  -0.82518  -0.79518  -0.78243  -0.77544
 Alpha  occ. eigenvalues --   -0.72167  -0.71287  -0.70566  -0.65268  -0.65093
 Alpha  occ. eigenvalues --   -0.64718  -0.62180  -0.60860  -0.59289  -0.57526
 Alpha  occ. eigenvalues --   -0.55367  -0.55233  -0.53165  -0.52945  -0.52599
 Alpha  occ. eigenvalues --   -0.52345  -0.49905  -0.48969  -0.48919  -0.47818
 Alpha  occ. eigenvalues --   -0.46577  -0.45755  -0.45639  -0.44878  -0.43743
 Alpha  occ. eigenvalues --   -0.37417  -0.36434
 Alpha virt. eigenvalues --    0.04912   0.11157   0.16435   0.19411   0.23080
 Alpha virt. eigenvalues --    0.24344   0.25732   0.26386   0.27728   0.28126
 Alpha virt. eigenvalues --    0.30105   0.31150   0.31487   0.31919   0.32015

 Mulliken charges:
               1
     1  C   -0.300076
     2  C   -0.310979
     3  C   -0.475133
     4  H    0.137203
     5  H    0.151216
     6  H    0.167094
     7  H    0.157609
     8  H    0.154230
     9  H    0.148760
    10  H    0.163658
    11  C   -0.304061
    12  C   -0.298555
    13  C   -0.475601
    14  H    0.154142
    15  H    0.156095
    16  H    0.145245
    17  H    0.152538
    18  H    0.157926
    19  H    0.156244
    20  H    0.159095
    21  C   -0.170144
    22  C   -0.218918
    23  C   -0.169705
    24  C    0.155269
    25  C   -0.177212
    26  C   -0.223049
    27  H    0.226025
    28  H    0.223810
    29  H    0.275790
    30  H    0.291069
    31  H    0.224252
    32  N    0.488537
    33  O   -0.463554
    34  O   -0.458818
 Sum of Mulliken charges =  -0.00000

 Dipole moment (field-independent basis, Debye):
    X=              1.1606    Y=             -2.6071    Z=             -4.1286  Tot=              5.0189
 Quadrupole moment (field-independent basis, Debye-Ang):
   XX=            -83.7444   YY=            -95.6922   ZZ=            -98.9647
   XY=             -6.8462   XZ=             -9.1937   YZ=              0.2073

 Normal termination of Gaussian 16 at Thu May  6 18:44:51 2021.
