 Gaussian 16, Revision A.03,
 Gaussian 16:  EM64L-G16RevA.03 25-Dec-2016

 -------------
 #p 6-31g* mp2
 -------------

 ------------------------------------------------------
 Input file generated by CHIRIPA (05-May-2021 14:55:19)
 ------------------------------------------------------
 Symbolic Z-matrix:
 Charge =  0 Multiplicity = 1

                         Standard orientation:
 ---------------------------------------------------------------------
 Center     Atomic      Atomic             Coordinates (Angstroms)
 Number     Number       Type             X           Y           Z
 ---------------------------------------------------------------------
      1          6           0       -0.692367   -0.149429    0.336595
      2          6           0       -1.479834   -1.015584    1.102226
      3          6           0       -2.865005   -1.064528    0.919321
      4          6           0       -3.432124   -0.229712   -0.042317
      5          6           0       -2.674416    0.643925   -0.820730
      6          6           0       -1.291116    0.676106   -0.620752
      7          1           0        0.382941   -0.117919    0.485311
      8          1           0       -1.017560   -1.657845    1.846436
      9          1           0       -3.498341   -1.725666    1.498286
     10          1           0       -3.163915    1.272160   -1.554985
     11          1           0       -0.682043    1.349760   -1.216794
     12          7           0       -4.897553   -0.272654   -0.244988
     13          8           0       -5.372971    0.472953   -1.098618
     14          8           0       -5.542989   -1.051105    0.453627
     15          6           0        3.631759    0.688687    0.476115
     16          6           0        3.151003    2.004001   -0.137733
     17          6           0        2.247273    2.800386    0.803988
     18          1           0        2.759874    0.079841    0.751919
     19          1           0        4.171052    0.903076    1.409172
     20          1           0        2.613973    1.787295   -1.070070
     21          1           0        4.024135    2.609704   -0.412282
     22          1           0        2.776782    3.045460    1.730356
     23          1           0        1.358607    2.218379    1.068831
     24          1           0        1.915153    3.736871    0.345129
     25          6           0        4.536186   -0.118742   -0.453294
     26          6           0        5.016943   -1.434055    0.160554
     27          6           0        5.920673   -2.230441   -0.781166
     28          1           0        3.996893   -0.333131   -1.386351
     29          1           0        5.408072    0.490105   -0.729097
     30          1           0        4.143809   -2.039759    0.435104
     31          1           0        5.553972   -1.217350    1.092892
     32          1           0        6.809338   -1.648433   -1.046010
     33          1           0        5.391164   -2.475515   -1.707535
     34          1           0        6.252793   -3.166926   -0.322307
 ---------------------------------------------------------------------

 SCF Done:  E(RHF) =  -669.535236217     A.U. after   15 cycles
 E2 =    -0.2092180589D+01 EUMP2 =    -0.67162741680681D+03

 The electronic state is 1-A.
 Alpha  occ. eigenvalues --  -20.60756 -20.60751 -15.85810 -11.31184 -11.27747
 Alpha  occ. eigenvalues --  -11.27743 -11.27463 -11.26766 -11.26756 -11.22763
 Alpha  occ. eigenvalues --  -11.22609 -11.22430 -11.22319 -11.22149 -11.21732
 Alpha  occ. eigenvalues --   -1.59831  -1.39385  -1.19353  -1.09481  -1.08747
 Alpha  occ. eigenvalues --   -1.04756  -1.04500  -0.96940  -0.95584  -0.87948
 Alpha  occ. eigenvalues --   -0.86151  -0.82419  -0.80567  -0.79282  -0.77458
 Alpha  occ. eigenvalues --   -0.72028  -0.71154  -0.70515  -0.66131  -0.65004
 Alpha  occ. eigenvalues --   -0.64749  -0.62129  -0.61867  -0.60316  -0.58544
 Alpha  occ. eigenvalues --   -0.56250  -0.55274  -0.53596  -0.53364  -0.53071
 Alpha  occ. eigenvalues --   -0.52843  -0.50888  -0.48866  -0.48787  -0.48781
 Alpha  occ. eigenvalues --   -0.47616  -0.46801  -0.46725  -0.44788  -0.44766
 Alpha  occ. eigenvalues --   -0.37322  -0.36357
 Alpha virt. eigenvalues --    0.05047   0.11253   0.16470   0.18264   0.22740
 Alpha virt. eigenvalues --    0.23800   0.24761   0.25602   0.26956   0.27849
 Alpha virt. eigenvalues --    0.29563   0.30031   0.30854   0.31190   0.31418

 Mulliken charges:
               1
     1  C   -0.178572
     2  C   -0.222084
     3  C   -0.170672
     4  C    0.158505
     5  C   -0.170721
     6  C   -0.222613
     7  H    0.238657
     8  H    0.223914
     9  H    0.275621
    10  H    0.275672
    11  H    0.225450
    12  N    0.487935
    13  O   -0.460373
    14  O   -0.460388
    15  C   -0.302905
    16  C   -0.302498
    17  C   -0.480071
    18  H    0.140838
    19  H    0.155225
    20  H    0.147333
    21  H    0.158459
    22  H    0.160402
    23  H    0.151221
    24  H    0.164088
    25  C   -0.298575
    26  C   -0.299892
    27  C   -0.476324
    28  H    0.149756
    29  H    0.153606
    30  H    0.149444
    31  H    0.153805
    32  H    0.156979
    33  H    0.156254
    34  H    0.162526
 Sum of Mulliken charges =  -0.00000

 Dipole moment (field-independent basis, Debye):
    X=              5.4092    Y=              0.1966    Z=              0.7115  Tot=              5.4593
 Quadrupole moment (field-independent basis, Debye-Ang):
   XX=           -129.3261   YY=            -92.6981   ZZ=            -92.8449
   XY=             -0.3851   XZ=             -2.3036   YZ=             -3.2188

 Normal termination of Gaussian 16 at Thu May  6 09:13:42 2021.
