 Gaussian 16, Revision A.03,
 Gaussian 16:  EM64L-G16RevA.03 25-Dec-2016

 -------------
 #p 6-31g* mp2
 -------------

 ------------------------------------------------------
 Input file generated by CHIRIPA (05-May-2021 14:57:27)
 ------------------------------------------------------
 Symbolic Z-matrix:
 Charge =  0 Multiplicity = 1

                         Standard orientation:
 ---------------------------------------------------------------------
 Center     Atomic      Atomic             Coordinates (Angstroms)
 Number     Number       Type             X           Y           Z
 ---------------------------------------------------------------------
      1          6           0        2.608511   -1.820699   -1.676344
      2          6           0        1.702206   -0.757489   -1.745016
      3          6           0        1.851126    0.357188   -0.914435
      4          6           0        2.922595    0.375577   -0.022859
      5          6           0        3.842186   -0.668057    0.069163
      6          6           0        3.673731   -1.772675   -0.771069
      7          1           0        2.485239   -2.682700   -2.325308
      8          1           0        0.874003   -0.792061   -2.447105
      9          1           0        1.164158    1.194116   -0.946773
     10          1           0        4.657875   -0.604884    0.779149
     11          1           0        4.379116   -2.596929   -0.715554
     12          7           0        3.090590    1.550312    0.861548
     13          8           0        4.042918    1.542273    1.638493
     14          8           0        2.266755    2.456863    0.761056
     15          6           0       -1.708210   -1.816305    1.680775
     16          6           0       -3.015255   -1.413509    1.973879
     17          6           0       -3.682475   -0.508448    1.143078
     18          6           0       -3.009633   -0.023965    0.022431
     19          6           0       -1.707479   -0.406179   -0.296314
     20          6           0       -1.059637   -1.312245    0.548611
     21          1           0       -1.197423   -2.519768    2.331647
     22          1           0       -3.521410   -1.803330    2.852452
     23          1           0       -4.694422   -0.179761    1.346414
     24          1           0       -1.228893   -0.000312   -1.179288
     25          1           0       -0.044577   -1.623294    0.318511
     26          7           0       -3.705732    0.934714   -0.864576
     27          8           0       -3.091026    1.346958   -1.845814
     28          8           0       -4.852858    1.255728   -0.561779
 ---------------------------------------------------------------------

 SCF Done:  E(RHF) =  -868.335915530     A.U. after   16 cycles
 E2 =    -0.2603335622D+01 EUMP2 =    -0.87093925115162D+03

 The electronic state is 1-A.
 Alpha  occ. eigenvalues --  -20.61325 -20.61305 -20.60993 -20.60972 -15.86381
 Alpha  occ. eigenvalues --  -15.86035 -11.31993 -11.31404 -11.28588 -11.28584
 Alpha  occ. eigenvalues --  -11.28384 -11.28016 -11.27896 -11.27651 -11.27618
 Alpha  occ. eigenvalues --  -11.27608 -11.26926 -11.26829  -1.60391  -1.60054
 Alpha  occ. eigenvalues --   -1.39935  -1.39613  -1.20231  -1.19535  -1.09553
 Alpha  occ. eigenvalues --   -1.08921  -1.05707  -1.04914  -0.96336  -0.95777
 Alpha  occ. eigenvalues --   -0.87013  -0.86344  -0.83204  -0.82591  -0.78221
 Alpha  occ. eigenvalues --   -0.77639  -0.72590  -0.72256  -0.71726  -0.71372
 Alpha  occ. eigenvalues --   -0.71280  -0.70662  -0.65857  -0.65627  -0.65187
 Alpha  occ. eigenvalues --   -0.64975  -0.63080  -0.62210  -0.56093  -0.55454
 Alpha  occ. eigenvalues --   -0.54072  -0.53725  -0.53230  -0.52864  -0.49371
 Alpha  occ. eigenvalues --   -0.49329  -0.49023  -0.48997  -0.45285  -0.45019
 Alpha  occ. eigenvalues --   -0.38242  -0.37491  -0.37307  -0.36444
 Alpha virt. eigenvalues --    0.04294   0.04879   0.10301   0.11096   0.15683
 Alpha virt. eigenvalues --    0.16400   0.19511   0.21971   0.24845   0.27415
 Alpha virt. eigenvalues --    0.27739   0.29457   0.30071   0.31252   0.31664

 Mulliken charges:
               1
     1  C   -0.172620
     2  C   -0.235040
     3  C   -0.174738
     4  C    0.159320
     5  C   -0.170857
     6  C   -0.219830
     7  H    0.229806
     8  H    0.229008
     9  H    0.283053
    10  H    0.278512
    11  H    0.226622
    12  N    0.487971
    13  O   -0.459179
    14  O   -0.455352
    15  C   -0.171239
    16  C   -0.217085
    17  C   -0.170616
    18  C    0.162118
    19  C   -0.177763
    20  C   -0.221222
    21  H    0.226123
    22  H    0.224568
    23  H    0.276545
    24  H    0.263571
    25  H    0.231394
    26  N    0.488731
    27  O   -0.463919
    28  O   -0.457880
 Sum of Mulliken charges =  -0.00000

 Dipole moment (field-independent basis, Debye):
    X=              2.0369    Y=             -7.4647    Z=              0.1308  Tot=              7.7387
 Quadrupole moment (field-independent basis, Debye-Ang):
   XX=           -115.9405   YY=           -107.9514   ZZ=           -102.9114
   XY=             -4.0648   XZ=            -19.7584   YZ=             -2.3197

 Normal termination of Gaussian 16 at Wed May  5 19:37:02 2021.
