 Gaussian 16, Revision A.03,
 Gaussian 16:  EM64L-G16RevA.03 25-Dec-2016

 -------------
 #p 6-31g* mp2
 -------------

 ------------------------------------------------------
 Input file generated by CHIRIPA (05-May-2021 14:57:22)
 ------------------------------------------------------
 Symbolic Z-matrix:
 Charge =  0 Multiplicity = 1

                         Standard orientation:
 ---------------------------------------------------------------------
 Center     Atomic      Atomic             Coordinates (Angstroms)
 Number     Number       Type             X           Y           Z
 ---------------------------------------------------------------------
      1          6           0       -5.297169    0.715445    0.362011
      2          6           0       -4.222118    1.510440   -0.048803
      3          6           0       -2.962349    0.944201   -0.265380
      4          6           0       -2.812522   -0.426544   -0.060690
      5          6           0       -3.864161   -1.245074    0.348399
      6          6           0       -5.115081   -0.657354    0.558954
      7          1           0       -6.272351    1.163656    0.527914
      8          1           0       -4.360608    2.576851   -0.202535
      9          1           0       -2.112908    1.536315   -0.583609
     10          1           0       -3.695318   -2.305210    0.493392
     11          1           0       -5.948180   -1.277205    0.877978
     12          7           0       -1.483545   -1.037366   -0.286783
     13          8           0       -1.377540   -2.247456   -0.099481
     14          8           0       -0.573063   -0.294472   -0.647015
     15          6           0        4.054918   -1.975450    0.173617
     16          6           0        4.152526   -1.094001    1.255301
     17          6           0        3.589277    0.183536    1.183214
     18          6           0        2.932618    0.548357    0.008908
     19          6           0        2.818655   -0.307225   -1.085753
     20          6           0        3.389467   -1.579947   -0.991403
     21          1           0        4.495401   -2.966001    0.238263
     22          1           0        4.668738   -1.398450    2.161325
     23          1           0        3.650094    0.885892    2.005660
     24          1           0        2.297885    0.024752   -1.975701
     25          1           0        3.312117   -2.262399   -1.833021
     26          7           0        2.332328    1.898279   -0.079190
     27          8           0        1.759034    2.195637   -1.124920
     28          8           0        2.446481    2.633429    0.899154
 ---------------------------------------------------------------------

 SCF Done:  E(RHF) =  -868.339583654     A.U. after   16 cycles
 E2 =    -0.2599904324D+01 EUMP2 =    -0.87093948797851D+03

 The electronic state is 1-A.
 Alpha  occ. eigenvalues --  -20.60775 -20.60765 -20.59728 -20.59681 -15.85806
 Alpha  occ. eigenvalues --  -15.84741 -11.30984 -11.29817 -11.27591 -11.27450
 Alpha  occ. eigenvalues --  -11.27289 -11.26568 -11.26519 -11.26477 -11.26352
 Alpha  occ. eigenvalues --  -11.26234 -11.25491 -11.25355  -1.59847  -1.58767
 Alpha  occ. eigenvalues --   -1.39402  -1.38330  -1.19153  -1.18019  -1.08594
 Alpha  occ. eigenvalues --   -1.07485  -1.04521  -1.03412  -0.95454  -0.94362
 Alpha  occ. eigenvalues --   -0.85932  -0.84837  -0.82286  -0.81222  -0.77342
 Alpha  occ. eigenvalues --   -0.76270  -0.72079  -0.71161  -0.70999  -0.70267
 Alpha  occ. eigenvalues --   -0.70002  -0.69204  -0.64808  -0.64526  -0.63713
 Alpha  occ. eigenvalues --   -0.63469  -0.61854  -0.60785  -0.55054  -0.54003
 Alpha  occ. eigenvalues --   -0.52876  -0.52608  -0.51743  -0.51548  -0.48800
 Alpha  occ. eigenvalues --   -0.48756  -0.47749  -0.47724  -0.44856  -0.43791
 Alpha  occ. eigenvalues --   -0.37147  -0.36119  -0.35995  -0.34941
 Alpha virt. eigenvalues --    0.05148   0.06296   0.11535   0.12702   0.16674
 Alpha virt. eigenvalues --    0.17786   0.21695   0.22603   0.27636   0.28481
 Alpha virt. eigenvalues --    0.28607   0.29500   0.31238   0.32062   0.32916

 Mulliken charges:
               1
     1  C   -0.170356
     2  C   -0.219289
     3  C   -0.172202
     4  C    0.156102
     5  C   -0.171224
     6  C   -0.219156
     7  H    0.225327
     8  H    0.226121
     9  H    0.286686
    10  H    0.273451
    11  H    0.222173
    12  N    0.490349
    13  O   -0.464002
    14  O   -0.462697
    15  C   -0.169196
    16  C   -0.220005
    17  C   -0.172263
    18  C    0.159978
    19  C   -0.146988
    20  C   -0.217845
    21  H    0.221162
    22  H    0.217591
    23  H    0.270049
    24  H    0.276211
    25  H    0.220779
    26  N    0.489987
    27  O   -0.461633
    28  O   -0.469110
 Sum of Mulliken charges =  -0.00000

 Dipole moment (field-independent basis, Debye):
    X=             -2.8286    Y=             -2.5658    Z=              0.8986  Tot=              3.9233
 Quadrupole moment (field-independent basis, Debye-Ang):
   XX=            -67.3547   YY=           -108.8992   ZZ=           -101.3810
   XY=            -15.3907   XZ=             -0.4149   YZ=             -0.6171

 Normal termination of Gaussian 16 at Thu May  6 19:33:11 2021.
