 Gaussian 16, Revision A.03,
 Gaussian 16:  EM64L-G16RevA.03 25-Dec-2016

 -------------
 #p 6-31g* mp2
 -------------

 ------------------------------------------------------
 Input file generated by CHIRIPA (05-May-2021 14:55:25)
 ------------------------------------------------------
 Symbolic Z-matrix:
 Charge =  0 Multiplicity = 1

                         Standard orientation:
 ---------------------------------------------------------------------
 Center     Atomic      Atomic             Coordinates (Angstroms)
 Number     Number       Type             X           Y           Z
 ---------------------------------------------------------------------
      1          6           0       -0.123614   -1.800882    1.548428
      2          6           0       -0.655512   -2.428013    0.416919
      3          6           0       -1.654936   -1.804881   -0.336345
      4          6           0       -2.101108   -0.549034    0.072394
      5          6           0       -1.591051    0.101475    1.194878
      6          6           0       -0.592255   -0.540362    1.933118
      7          1           0        0.652519   -2.292212    2.127746
      8          1           0       -0.293478   -3.406946    0.115809
      9          1           0       -2.084261   -2.267723   -1.216615
     10          1           0       -1.972163    1.077362    1.470224
     11          1           0       -0.181014   -0.050949    2.811412
     12          7           0       -3.158822    0.120549   -0.717101
     13          8           0       -3.534831    1.226920   -0.336051
     14          8           0       -3.591820   -0.473680   -1.702007
     15          6           0        2.765678    0.326896   -0.735009
     16          6           0        3.757370   -0.618781   -0.056608
     17          6           0        4.347777   -1.647573   -1.021387
     18          1           0        1.955508   -0.262988   -1.185127
     19          1           0        3.271015    0.845595   -1.561436
     20          1           0        3.250690   -1.134519    0.769168
     21          1           0        4.565173   -0.026564    0.392112
     22          1           0        4.877787   -1.148902   -1.839323
     23          1           0        3.555836   -2.263152   -1.460125
     24          1           0        5.054016   -2.313307   -0.515535
     25          6           0        2.166890    1.361140    0.216579
     26          6           0        1.175199    2.306817   -0.461822
     27          6           0        0.584791    3.335609    0.502957
     28          1           0        1.661554    0.842441    1.043006
     29          1           0        2.977060    1.951024    0.666697
     30          1           0        0.367396    1.714600   -0.910542
     31          1           0        1.681878    2.822555   -1.287598
     32          1           0        1.376733    3.951188    0.941695
     33          1           0        0.054782    2.836938    1.320893
     34          1           0       -0.121447    4.001342   -0.002895
 ---------------------------------------------------------------------

 SCF Done:  E(RHF) =  -669.534529037     A.U. after   15 cycles
 E2 =    -0.2095725922D+01 EUMP2 =    -0.67163025495864D+03

 The electronic state is 1-A.
 Alpha  occ. eigenvalues --  -20.60877 -20.60871 -15.85932 -11.31354 -11.27916
 Alpha  occ. eigenvalues --  -11.27900 -11.27667 -11.26951 -11.26929 -11.22088
 Alpha  occ. eigenvalues --  -11.21697 -11.21642 -11.21548 -11.21517 -11.21272
 Alpha  occ. eigenvalues --   -1.59952  -1.39502  -1.19538  -1.08932  -1.08686
 Alpha  occ. eigenvalues --   -1.04951  -1.03825  -0.96278  -0.95736  -0.87301
 Alpha  occ. eigenvalues --   -0.86333  -0.82571  -0.79899  -0.78521  -0.77602
 Alpha  occ. eigenvalues --   -0.72147  -0.71280  -0.70627  -0.65395  -0.65182
 Alpha  occ. eigenvalues --   -0.64930  -0.62319  -0.61228  -0.59638  -0.57880
 Alpha  occ. eigenvalues --   -0.55610  -0.55419  -0.53241  -0.53041  -0.52967
 Alpha  occ. eigenvalues --   -0.52682  -0.50237  -0.48912  -0.48898  -0.48220
 Alpha  occ. eigenvalues --   -0.46949  -0.46062  -0.45990  -0.44893  -0.44048
 Alpha  occ. eigenvalues --   -0.37448  -0.36446
 Alpha virt. eigenvalues --    0.04872   0.11001   0.16228   0.20023   0.22906
 Alpha virt. eigenvalues --    0.23401   0.25908   0.26366   0.26651   0.28273
 Alpha virt. eigenvalues --    0.29155   0.30100   0.31258   0.31565   0.31697

 Mulliken charges:
               1
     1  C   -0.169100
     2  C   -0.218921
     3  C   -0.171501
     4  C    0.158252
     5  C   -0.169044
     6  C   -0.220352
     7  H    0.227189
     8  H    0.224607
     9  H    0.276407
    10  H    0.277915
    11  H    0.225437
    12  N    0.487733
    13  O   -0.459447
    14  O   -0.459993
    15  C   -0.298615
    16  C   -0.298390
    17  C   -0.475606
    18  H    0.151793
    19  H    0.151097
    20  H    0.142480
    21  H    0.153017
    22  H    0.158302
    23  H    0.152976
    24  H    0.159262
    25  C   -0.300963
    26  C   -0.300968
    27  C   -0.474855
    28  H    0.148732
    29  H    0.147574
    30  H    0.154610
    31  H    0.153930
    32  H    0.154787
    33  H    0.143234
    34  H    0.168420
 Sum of Mulliken charges =  -0.00000

 Dipole moment (field-independent basis, Debye):
    X=              3.6084    Y=             -2.3555    Z=              2.7092  Tot=              5.0900
 Quadrupole moment (field-independent basis, Debye-Ang):
   XX=           -111.0596   YY=            -89.4669   ZZ=            -93.0929
   XY=              3.9793   XZ=             -5.5795   YZ=              0.2615

 Normal termination of Gaussian 16 at Wed May  5 22:27:45 2021.
