 Gaussian 16, Revision A.03,
 Gaussian 16:  EM64L-G16RevA.03 25-Dec-2016

 -------------
 #p 6-31g* mp2
 -------------

 ------------------------------------------------------
 Input file generated by CHIRIPA (05-May-2021 14:51:11)
 ------------------------------------------------------
 Symbolic Z-matrix:
 Charge =  0 Multiplicity = 1

                         Standard orientation:
 ---------------------------------------------------------------------
 Center     Atomic      Atomic             Coordinates (Angstroms)
 Number     Number       Type             X           Y           Z
 ---------------------------------------------------------------------
      1          6           0        2.281748    1.245876   -0.437515
      2          6           0        1.691879    2.484146    0.238301
      3          6           0        0.772325    3.281264   -0.687343
      4          1           0        2.838631    1.554793   -1.332721
      5          1           0        1.462628    0.601573   -0.785814
      6          1           0        2.511873    3.125252    0.586449
      7          1           0        1.136495    2.172263    1.132110
      8          1           0       -0.065098    2.662114   -1.024948
      9          1           0        1.318095    3.620518   -1.573708
     10          1           0        0.361685    4.162109   -0.184008
     11          6           0        3.203188    0.438620    0.475181
     12          6           0        3.793057   -0.799651   -0.200634
     13          6           0        4.712610   -1.596769    0.725010
     14          1           0        4.022308    1.082922    0.823480
     15          1           0        2.646304    0.129702    1.370388
     16          1           0        4.348441   -0.487767   -1.094443
     17          1           0        2.973062   -1.440757   -0.548783
     18          1           0        4.166840   -1.936023    1.611375
     19          1           0        5.550033   -0.977619    1.062614
     20          1           0        5.123251   -2.477614    0.221675
     21          6           0       -2.009981   -1.007842    0.120712
     22          6           0       -1.487675   -2.186841   -0.700960
     23          6           0       -0.020814   -2.505981   -0.410677
     24          1           0       -1.392799   -0.122862   -0.086273
     25          1           0       -1.887012   -1.231661    1.189439
     26          1           0       -1.612864   -1.961443   -1.767796
     27          1           0       -2.106291   -3.069068   -0.492140
     28          1           0        0.117088   -2.756564    0.646107
     29          1           0        0.613318   -1.642646   -0.636797
     30          1           0        0.331956   -3.351966   -1.008777
     31          6           0       -3.474955   -0.676653   -0.158378
     32          6           0       -3.997261    0.502346    0.663292
     33          6           0       -5.464121    0.821486    0.373011
     34          1           0       -3.597923   -0.452834   -1.227106
     35          1           0       -4.092137   -1.561633    0.048605
     36          1           0       -3.378645    1.384574    0.454473
     37          1           0       -3.872071    0.276949    1.730129
     38          1           0       -6.098254   -0.041849    0.599131
     39          1           0       -5.602024    1.072070   -0.683773
     40          1           0       -5.816891    1.667471    0.971110
 ---------------------------------------------------------------------

 SCF Done:  E(RHF) =  -470.732728227     A.U. after   11 cycles
 E2 =    -0.1584180656D+01 EUMP2 =    -0.47231690888283D+03

 The electronic state is 1-A.
 Alpha  occ. eigenvalues --  -11.21669 -11.21634 -11.21617 -11.21503 -11.21475
 Alpha  occ. eigenvalues --  -11.21407 -11.21405 -11.21327 -11.21126 -11.21117
 Alpha  occ. eigenvalues --  -11.21092 -11.21009  -1.08499  -1.08412  -1.03588
 Alpha  occ. eigenvalues --   -1.03507  -0.96043  -0.95965  -0.87068  -0.86977
 Alpha  occ. eigenvalues --   -0.79679  -0.79559  -0.78351  -0.78189  -0.65285
 Alpha  occ. eigenvalues --   -0.64929  -0.61004  -0.60899  -0.59405  -0.59335
 Alpha  occ. eigenvalues --   -0.57661  -0.57562  -0.55412  -0.55185  -0.52737
 Alpha  occ. eigenvalues --   -0.52669  -0.52456  -0.52392  -0.50023  -0.49905
 Alpha  occ. eigenvalues --   -0.48033  -0.47876  -0.46818  -0.46603  -0.46048
 Alpha  occ. eigenvalues --   -0.45791  -0.45738  -0.45207  -0.43837  -0.43766
 Alpha virt. eigenvalues --    0.19594   0.22581   0.23809   0.24377   0.25648
 Alpha virt. eigenvalues --    0.26753   0.26926   0.27466   0.28372   0.29707
 Alpha virt. eigenvalues --    0.30735   0.31516   0.31705   0.31794   0.32012

 Mulliken charges:
               1
     1  C   -0.305414
     2  C   -0.299359
     3  C   -0.476755
     4  H    0.149905
     5  H    0.154169
     6  H    0.152254
     7  H    0.152744
     8  H    0.154708
     9  H    0.155462
    10  H    0.160601
    11  C   -0.298014
    12  C   -0.306401
    13  C   -0.475173
    14  H    0.149573
    15  H    0.150218
    16  H    0.151199
    17  H    0.159908
    18  H    0.155180
    19  H    0.154682
    20  H    0.160054
    21  C   -0.301346
    22  C   -0.299387
    23  C   -0.485156
    24  H    0.151062
    25  H    0.149675
    26  H    0.152131
    27  H    0.152374
    28  H    0.155224
    29  H    0.164041
    30  H    0.160829
    31  C   -0.298264
    32  C   -0.299939
    33  C   -0.475740
    34  H    0.149739
    35  H    0.150004
    36  H    0.152288
    37  H    0.151924
    38  H    0.155200
    39  H    0.155346
    40  H    0.160454
 Sum of Mulliken charges =  -0.00000

 Dipole moment (field-independent basis, Debye):
    X=             -0.0203    Y=             -0.0141    Z=              0.0020  Tot=              0.0248
 Quadrupole moment (field-independent basis, Debye-Ang):
   XX=            -85.6912   YY=            -84.6143   ZZ=            -84.4360
   XY=              1.4756   XZ=             -0.9654   YZ=             -0.2325

 Normal termination of Gaussian 16 at Thu May  6 05:25:46 2021.
