 Gaussian 16, Revision A.03,
 Gaussian 16:  EM64L-G16RevA.03 25-Dec-2016

 -------------
 #p 6-31g* mp2
 -------------

 ------------------------------------------------------
 Input file generated by CHIRIPA (05-May-2021 14:51:08)
 ------------------------------------------------------
 Symbolic Z-matrix:
 Charge =  0 Multiplicity = 1

                         Standard orientation:
 ---------------------------------------------------------------------
 Center     Atomic      Atomic             Coordinates (Angstroms)
 Number     Number       Type             X           Y           Z
 ---------------------------------------------------------------------
      1          6           0       -4.032926   -0.058553    0.330104
      2          6           0       -5.241142   -0.534379   -0.477229
      3          6           0       -5.959201   -1.716511    0.174498
      4          1           0       -3.330020   -0.893885    0.452942
      5          1           0       -4.363136    0.223113    1.339570
      6          1           0       -4.908972   -0.813755   -1.485310
      7          1           0       -5.941164    0.302235   -0.598322
      8          1           0       -6.318173   -1.446318    1.172864
      9          1           0       -5.280116   -2.568648    0.280837
     10          1           0       -6.819659   -2.040448   -0.419250
     11          6           0       -3.304650    1.122702   -0.308628
     12          6           0       -2.096433    1.598528    0.498705
     13          6           0       -1.378375    2.780661   -0.153022
     14          1           0       -2.974439    0.841036   -1.318094
     15          1           0       -4.007555    1.958034   -0.431466
     16          1           0       -1.396412    0.761914    0.619799
     17          1           0       -2.428604    1.877904    1.506786
     18          1           0       -2.057459    3.632797   -0.259361
     19          1           0       -1.019403    2.510467   -1.151388
     20          1           0       -0.517917    3.104597    0.440727
     21          6           0        4.415195   -0.682649   -0.071038
     22          6           0        5.298142    0.555990    0.084412
     23          6           0        6.788754    0.238626   -0.038676
     24          1           0        4.697632   -1.424151    0.688797
     25          1           0        4.613103   -1.145189   -1.047912
     26          1           0        5.097624    1.016843    1.060128
     27          1           0        5.013442    1.294706   -0.675758
     28          1           0        7.009647   -0.200426   -1.016961
     29          1           0        7.094308   -0.479868    0.728790
     30          1           0        7.401527    1.138241    0.075609
     31          6           0        2.922381   -0.381500    0.049561
     32          6           0        2.039433   -1.620139   -0.105888
     33          6           0        0.548822   -1.302775    0.017200
     34          1           0        2.724472    0.081040    1.026436
     35          1           0        2.639943    0.360002   -0.710273
     36          1           0        2.324135   -2.358855    0.654283
     37          1           0        2.239951   -2.080991   -1.081605
     38          1           0        0.243268   -0.584280   -0.750266
     39          1           0        0.327928   -0.863723    0.995485
     40          1           0       -0.063951   -2.202391   -0.097085
 ---------------------------------------------------------------------

 SCF Done:  E(RHF) =  -470.732759238     A.U. after   11 cycles
 E2 =    -0.1583201801D+01 EUMP2 =    -0.47231596103822D+03

 The electronic state is 1-A.
 Alpha  occ. eigenvalues --  -11.21673 -11.21624 -11.21540 -11.21446 -11.21385
 Alpha  occ. eigenvalues --  -11.21383 -11.21307 -11.21246 -11.21182 -11.21088
 Alpha  occ. eigenvalues --  -11.21027 -11.20987  -1.08479  -1.08329  -1.03598
 Alpha  occ. eigenvalues --   -1.03428  -0.96049  -0.95893  -0.87082  -0.86902
 Alpha  occ. eigenvalues --   -0.79721  -0.79452  -0.78304  -0.78121  -0.65107
 Alpha  occ. eigenvalues --   -0.64972  -0.60988  -0.60869  -0.59411  -0.59264
 Alpha  occ. eigenvalues --   -0.57679  -0.57474  -0.55331  -0.55189  -0.52750
 Alpha  occ. eigenvalues --   -0.52598  -0.52515  -0.52296  -0.49991  -0.49836
 Alpha  occ. eigenvalues --   -0.48162  -0.47699  -0.46694  -0.46477  -0.45919
 Alpha  occ. eigenvalues --   -0.45754  -0.45658  -0.45402  -0.43835  -0.43687
 Alpha virt. eigenvalues --    0.21433   0.22952   0.23844   0.24824   0.25675
 Alpha virt. eigenvalues --    0.26461   0.27259   0.27432   0.28167   0.29271
 Alpha virt. eigenvalues --    0.30443   0.30965   0.31828   0.31848   0.32321

 Mulliken charges:
               1
     1  C   -0.299016
     2  C   -0.299545
     3  C   -0.475615
     4  H    0.150657
     5  H    0.149129
     6  H    0.151742
     7  H    0.151763
     8  H    0.155050
     9  H    0.155014
    10  H    0.159996
    11  C   -0.297259
    12  C   -0.310587
    13  C   -0.475222
    14  H    0.148602
    15  H    0.148972
    16  H    0.165748
    17  H    0.150396
    18  H    0.154791
    19  H    0.153728
    20  H    0.159872
    21  C   -0.298331
    22  C   -0.299702
    23  C   -0.475741
    24  H    0.149718
    25  H    0.149582
    26  H    0.152002
    27  H    0.152137
    28  H    0.155208
    29  H    0.155196
    30  H    0.160381
    31  C   -0.298440
    32  C   -0.299838
    33  C   -0.479736
    34  H    0.149620
    35  H    0.150063
    36  H    0.152266
    37  H    0.152104
    38  H    0.157259
    39  H    0.157618
    40  H    0.160420
 Sum of Mulliken charges =  -0.00000

 Dipole moment (field-independent basis, Debye):
    X=              0.0691    Y=             -0.0432    Z=              0.0100  Tot=              0.0821
 Quadrupole moment (field-independent basis, Debye-Ang):
   XX=            -86.2340   YY=            -85.2002   ZZ=            -83.6273
   XY=             -0.7884   XZ=              0.0226   YZ=              0.4581

 Normal termination of Gaussian 16 at Thu May  6 02:04:21 2021.
