 Gaussian 16, Revision A.03,
 Gaussian 16:  EM64L-G16RevA.03 25-Dec-2016

 -------------
 #p 6-31g* mp2
 -------------

 ------------------------------------------------------
 Input file generated by CHIRIPA (05-May-2021 14:51:10)
 ------------------------------------------------------
 Symbolic Z-matrix:
 Charge =  0 Multiplicity = 1

                         Standard orientation:
 ---------------------------------------------------------------------
 Center     Atomic      Atomic             Coordinates (Angstroms)
 Number     Number       Type             X           Y           Z
 ---------------------------------------------------------------------
      1          6           0       -2.885952   -0.103569   -0.479978
      2          6           0       -3.880754    1.050976   -0.355973
      3          6           0       -4.209804    1.695046   -1.703079
      4          1           0       -1.962456    0.265111   -0.947071
      5          1           0       -3.298416   -0.862412   -1.159262
      6          1           0       -3.467142    1.806776    0.323960
      7          1           0       -4.801918    0.679547    0.111054
      8          1           0       -4.646000    0.958715   -2.385830
      9          1           0       -3.303640    2.092348   -2.171715
     10          1           0       -4.922627    2.517980   -1.591174
     11          6           0       -2.547061   -0.757632    0.858335
     12          6           0       -1.552259   -1.912178    0.734329
     13          6           0       -1.223209   -2.556248    2.081435
     14          1           0       -2.134597    0.001211    1.537619
     15          1           0       -3.470557   -1.126312    1.325428
     16          1           0       -0.631095   -1.540749    0.267303
     17          1           0       -1.965871   -2.667977    0.054397
     18          1           0       -2.129372   -2.953550    2.550071
     19          1           0       -0.787013   -1.819916    2.764187
     20          1           0       -0.510386   -3.379182    1.969531
     21          6           0        3.165033   -0.157731   -0.379235
     22          6           0        2.432615   -1.252473   -1.155822
     23          6           0        3.343197   -2.422711   -1.528886
     24          1           0        4.007640    0.208929   -0.981330
     25          1           0        3.597984   -0.591822    0.532638
     26          1           0        1.999998   -0.816153   -2.065264
     27          1           0        1.591538   -1.616436   -0.551889
     28          1           0        3.764602   -2.884639   -0.630197
     29          1           0        4.175383   -2.079808   -2.152172
     30          1           0        2.799243   -3.193729   -2.083419
     31          6           0        2.267980    1.018932    0.000878
     32          6           0        3.000398    2.113675    0.777466
     33          6           0        2.089816    3.283913    1.150530
     34          1           0        1.835029    1.453023   -0.910995
     35          1           0        1.425373    0.652272    0.602974
     36          1           0        3.841475    2.477637    0.173531
     37          1           0        3.433014    1.677354    1.686907
     38          1           0        1.257629    2.941009    1.773815
     39          1           0        1.668411    3.745840    0.251840
     40          1           0        2.633771    4.054929    1.705063
 ---------------------------------------------------------------------

 SCF Done:  E(RHF) =  -470.733361198     A.U. after   11 cycles
 E2 =    -0.1583251118D+01 EUMP2 =    -0.47231661231584D+03

 The electronic state is 1-A.
 Alpha  occ. eigenvalues --  -11.21657 -11.21617 -11.21589 -11.21582 -11.21467
 Alpha  occ. eigenvalues --  -11.21399 -11.21395 -11.21330 -11.21127 -11.21106
 Alpha  occ. eigenvalues --  -11.21088 -11.21055  -1.08487  -1.08417  -1.03577
 Alpha  occ. eigenvalues --   -1.03524  -0.96021  -0.95979  -0.87038  -0.86994
 Alpha  occ. eigenvalues --   -0.79689  -0.79550  -0.78354  -0.78178  -0.65212
 Alpha  occ. eigenvalues --   -0.64966  -0.61052  -0.60857  -0.59417  -0.59318
 Alpha  occ. eigenvalues --   -0.57644  -0.57576  -0.55309  -0.55266  -0.52716
 Alpha  occ. eigenvalues --   -0.52672  -0.52449  -0.52401  -0.49985  -0.49912
 Alpha  occ. eigenvalues --   -0.48095  -0.47834  -0.46879  -0.46514  -0.46058
 Alpha  occ. eigenvalues --   -0.45780  -0.45731  -0.45300  -0.43828  -0.43777
 Alpha virt. eigenvalues --    0.20315   0.23362   0.23697   0.24390   0.25577
 Alpha virt. eigenvalues --    0.26721   0.27117   0.27708   0.27999   0.29693
 Alpha virt. eigenvalues --    0.30555   0.31588   0.31608   0.31900   0.31956

 Mulliken charges:
               1
     1  C   -0.298845
     2  C   -0.299669
     3  C   -0.475681
     4  H    0.150808
     5  H    0.149388
     6  H    0.152104
     7  H    0.151791
     8  H    0.155081
     9  H    0.155195
    10  H    0.160207
    11  C   -0.297288
    12  C   -0.310181
    13  C   -0.475561
    14  H    0.148951
    15  H    0.149624
    16  H    0.161202
    17  H    0.152095
    18  H    0.155656
    19  H    0.154423
    20  H    0.160081
    21  C   -0.297762
    22  C   -0.308298
    23  C   -0.475145
    24  H    0.149921
    25  H    0.149637
    26  H    0.151725
    27  H    0.160511
    28  H    0.155147
    29  H    0.155207
    30  H    0.160523
    31  C   -0.300303
    32  C   -0.299692
    33  C   -0.475681
    34  H    0.149331
    35  H    0.150364
    36  H    0.152370
    37  H    0.152215
    38  H    0.154753
    39  H    0.155188
    40  H    0.160609
 Sum of Mulliken charges =  -0.00000

 Dipole moment (field-independent basis, Debye):
    X=              0.0202    Y=             -0.0004    Z=             -0.0115  Tot=              0.0232
 Quadrupole moment (field-independent basis, Debye-Ang):
   XX=            -84.4954   YY=            -85.2821   ZZ=            -84.9364
   XY=              1.3238   XZ=             -0.2226   YZ=             -0.1170

 Normal termination of Gaussian 16 at Wed May  5 18:13:01 2021.
