 Gaussian 16, Revision A.03,
 Gaussian 16:  EM64L-G16RevA.03 25-Dec-2016

 -------------
 #p 6-31g* mp2
 -------------

 ------------------------------------------------------
 Input file generated by CHIRIPA (05-May-2021 14:53:12)
 ------------------------------------------------------
 Symbolic Z-matrix:
 Charge =  0 Multiplicity = 1

                         Standard orientation:
 ---------------------------------------------------------------------
 Center     Atomic      Atomic             Coordinates (Angstroms)
 Number     Number       Type             X           Y           Z
 ---------------------------------------------------------------------
      1          6           0       -3.850564    0.151020   -0.509483
      2          6           0       -2.496244   -0.421357   -0.089737
      3          6           0       -1.321290    0.277063   -0.774927
      4          1           0       -3.955989    0.064719   -1.599612
      5          1           0       -3.874937    1.224710   -0.277124
      6          1           0       -2.474948   -1.493936   -0.321551
      7          1           0       -2.394112   -0.333858    0.999542
      8          1           0       -1.314386    1.345039   -0.534136
      9          1           0       -1.395681    0.178371   -1.862735
     10          1           0       -0.362926   -0.147812   -0.460477
     11          6           0       -5.034954   -0.536900    0.167064
     12          6           0       -6.389274    0.035477   -0.252682
     13          6           0       -7.564228   -0.662943    0.432509
     14          1           0       -5.010581   -1.610590   -0.065294
     15          1           0       -4.929529   -0.450599    1.257194
     16          1           0       -6.491406   -0.052022   -1.341961
     17          1           0       -6.410570    1.108056   -0.020868
     18          1           0       -7.489837   -0.564251    1.520317
     19          1           0       -7.571132   -1.730919    0.191718
     20          1           0       -8.522592   -0.238068    0.118058
     21          6           0        1.646342    1.819403    0.636189
     22          6           0        2.113891    0.968923    1.643463
     23          6           0        3.124472    0.040499    1.376436
     24          6           0        3.647298   -0.010586    0.085184
     25          6           0        3.202549    0.823231   -0.939627
     26          6           0        2.191203    1.743976   -0.649875
     27          1           0        0.861002    2.537642    0.852448
     28          1           0        1.692599    1.025275    2.643155
     29          1           0        3.505035   -0.629859    2.137496
     30          1           0        3.642038    0.743603   -1.926504
     31          1           0        1.830048    2.403218   -1.434102
     32          7           0        4.717560   -0.989402   -0.209535
     33          8           0        5.161687   -1.014608   -1.355289
     34          8           0        5.092036   -1.712859    0.710800
 ---------------------------------------------------------------------

 SCF Done:  E(RHF) =  -669.534731130     A.U. after   15 cycles
 E2 =    -0.2092063455D+01 EUMP2 =    -0.67162679458507D+03

 The electronic state is 1-A.
 Alpha  occ. eigenvalues --  -20.60757 -20.60751 -15.85812 -11.31174 -11.27770
 Alpha  occ. eigenvalues --  -11.27749 -11.27483 -11.26756 -11.26727 -11.22072
 Alpha  occ. eigenvalues --  -11.21932 -11.21830 -11.21735 -11.21564 -11.21350
 Alpha  occ. eigenvalues --   -1.59833  -1.39387  -1.19363  -1.08847  -1.08746
 Alpha  occ. eigenvalues --   -1.04761  -1.03936  -0.96396  -0.95580  -0.87412
 Alpha  occ. eigenvalues --   -0.86153  -0.82414  -0.80006  -0.78649  -0.77460
 Alpha  occ. eigenvalues --   -0.72030  -0.71158  -0.70472  -0.65475  -0.65007
 Alpha  occ. eigenvalues --   -0.64756  -0.62105  -0.61347  -0.59772  -0.58000
 Alpha  occ. eigenvalues --   -0.55750  -0.55221  -0.53578  -0.52861  -0.52825
 Alpha  occ. eigenvalues --   -0.52542  -0.50339  -0.48788  -0.48784  -0.48316
 Alpha  occ. eigenvalues --   -0.47048  -0.46192  -0.46117  -0.44794  -0.44184
 Alpha  occ. eigenvalues --   -0.37243  -0.36367
 Alpha virt. eigenvalues --    0.05071   0.11237   0.16533   0.20796   0.22562
 Alpha virt. eigenvalues --    0.23991   0.26033   0.26583   0.27288   0.27478
 Alpha virt. eigenvalues --    0.28576   0.30500   0.31230   0.31596   0.32047

 Mulliken charges:
               1
     1  C   -0.298160
     2  C   -0.299910
     3  C   -0.477915
     4  H    0.150769
     5  H    0.146850
     6  H    0.155239
     7  H    0.149044
     8  H    0.142668
     9  H    0.155488
    10  H    0.170681
    11  C   -0.298388
    12  C   -0.299776
    13  C   -0.475874
    14  H    0.151089
    15  H    0.148998
    16  H    0.152608
    17  H    0.151162
    18  H    0.155092
    19  H    0.156110
    20  H    0.160977
    21  C   -0.166180
    22  C   -0.220359
    23  C   -0.171155
    24  C    0.157801
    25  C   -0.171525
    26  C   -0.216717
    27  H    0.225618
    28  H    0.223325
    29  H    0.275663
    30  H    0.275700
    31  H    0.223997
    32  N    0.488169
    33  O   -0.460475
    34  O   -0.460613
 Sum of Mulliken charges =  -0.00000

 Dipole moment (field-independent basis, Debye):
    X=             -3.7995    Y=              3.4126    Z=              1.0225  Tot=              5.2084
 Quadrupole moment (field-independent basis, Debye-Ang):
   XX=           -123.9632   YY=            -94.7093   ZZ=            -89.7506
   XY=             12.6194   XZ=              3.7401   YZ=             -0.7327

 Normal termination of Gaussian 16 at Thu May  6 08:49:22 2021.
