 Gaussian 16, Revision A.03,
 Gaussian 16:  EM64L-G16RevA.03 25-Dec-2016

 -------------
 #p 6-31g* mp2
 -------------

 ------------------------------------------------------
 Input file generated by CHIRIPA (05-May-2021 14:53:15)
 ------------------------------------------------------
 Symbolic Z-matrix:
 Charge =  0 Multiplicity = 1

                         Standard orientation:
 ---------------------------------------------------------------------
 Center     Atomic      Atomic             Coordinates (Angstroms)
 Number     Number       Type             X           Y           Z
 ---------------------------------------------------------------------
      1          6           0       -3.035686   -0.294486   -0.609411
      2          6           0       -4.044468   -1.186146    0.115354
      3          6           0       -4.103137   -2.601409   -0.460306
      4          1           0       -3.296826   -0.247691   -1.675507
      5          1           0       -2.040400   -0.756475   -0.551383
      6          1           0       -5.037307   -0.721924    0.057168
      7          1           0       -3.781007   -1.230669    1.179883
      8          1           0       -3.124883   -3.087598   -0.387916
      9          1           0       -4.388321   -2.575962   -1.517010
     10          1           0       -4.830544   -3.221724    0.072562
     11          6           0       -2.965539    1.123491   -0.045364
     12          6           0       -1.956756    2.015152   -0.770129
     13          6           0       -1.898087    3.430414   -0.194469
     14          1           0       -3.960824    1.585481   -0.103392
     15          1           0       -2.704398    1.076696    1.020732
     16          1           0       -2.220217    2.059675   -1.834658
     17          1           0       -0.963918    1.550929   -0.711943
     18          1           0       -1.612904    3.404967    0.862235
     19          1           0       -2.876341    3.916603   -0.266859
     20          1           0       -1.170680    4.050729   -0.727337
     21          6           0        4.585589   -0.062628   -0.872945
     22          6           0        3.903677   -1.281810   -0.944448
     23          6           0        2.661178   -1.437902   -0.322854
     24          6           0        2.127542   -0.349082    0.364892
     25          6           0        2.782509    0.878254    0.454074
     26          6           0        4.023818    1.011620   -0.175142
     27          1           0        5.550330    0.049801   -1.358774
     28          1           0        4.337545   -2.117798   -1.485677
     29          1           0        2.111703   -2.370604   -0.362377
     30          1           0        2.324602    1.693558    1.000900
     31          1           0        4.551139    1.959621   -0.117952
     32          7           0        0.812793   -0.502300    1.026980
     33          8           0        0.364109    0.472190    1.626721
     34          8           0        0.255873   -1.593980    0.933646
 ---------------------------------------------------------------------

 SCF Done:  E(RHF) =  -669.536872551     A.U. after   15 cycles
 E2 =    -0.2093260820D+01 EUMP2 =    -0.67163013337097D+03

 The electronic state is 1-A.
 Alpha  occ. eigenvalues --  -20.61220 -20.61208 -15.86189 -11.31415 -11.27962
 Alpha  occ. eigenvalues --  -11.27958 -11.27683 -11.26945 -11.26935 -11.20519
 Alpha  occ. eigenvalues --  -11.20283 -11.20172 -11.19968 -11.19925 -11.19897
 Alpha  occ. eigenvalues --   -1.60245  -1.39806  -1.19571  -1.08997  -1.07106
 Alpha  occ. eigenvalues --   -1.04949  -1.02349  -0.95854  -0.94803  -0.86356
 Alpha  occ. eigenvalues --   -0.85835  -0.82693  -0.78436  -0.77760  -0.76933
 Alpha  occ. eigenvalues --   -0.72423  -0.71567  -0.70679  -0.65229  -0.64954
 Alpha  occ. eigenvalues --   -0.63664  -0.62297  -0.59725  -0.58202  -0.56439
 Alpha  occ. eigenvalues --   -0.55462  -0.54066  -0.53281  -0.53040  -0.51577
 Alpha  occ. eigenvalues --   -0.51263  -0.49221  -0.49171  -0.48739  -0.46808
 Alpha  occ. eigenvalues --   -0.45637  -0.44952  -0.44468  -0.44259  -0.42566
 Alpha  occ. eigenvalues --   -0.37541  -0.36542
 Alpha virt. eigenvalues --    0.04704   0.11095   0.16163   0.21194   0.24179
 Alpha virt. eigenvalues --    0.25331   0.27184   0.27519   0.28475   0.28591
 Alpha virt. eigenvalues --    0.29093   0.30966   0.31938   0.32660   0.32851

 Mulliken charges:
               1
     1  C   -0.303828
     2  C   -0.297701
     3  C   -0.476700
     4  H    0.140057
     5  H    0.163210
     6  H    0.145536
     7  H    0.159038
     8  H    0.160864
     9  H    0.149274
    10  H    0.155745
    11  C   -0.300053
    12  C   -0.294279
    13  C   -0.476694
    14  H    0.141796
    15  H    0.166059
    16  H    0.144529
    17  H    0.147539
    18  H    0.161779
    19  H    0.152120
    20  H    0.151361
    21  C   -0.170111
    22  C   -0.218581
    23  C   -0.170366
    24  C    0.157928
    25  C   -0.170806
    26  C   -0.218578
    27  H    0.226553
    28  H    0.224349
    29  H    0.276018
    30  H    0.276595
    31  H    0.224450
    32  N    0.487646
    33  O   -0.457140
    34  O   -0.457607
 Sum of Mulliken charges =  -0.00000

 Dipole moment (field-independent basis, Debye):
    X=              5.0078    Y=              0.4024    Z=             -2.0655  Tot=              5.4319
 Quadrupole moment (field-independent basis, Debye-Ang):
   XX=            -76.0257   YY=            -92.4008   ZZ=            -96.5386
   XY=             -0.4992   XZ=             -3.7060   YZ=              2.5147

 Normal termination of Gaussian 16 at Wed May  5 21:55:16 2021.
