 Gaussian 16, Revision A.03,
 Gaussian 16:  EM64L-G16RevA.03 25-Dec-2016

 -------------
 #p 6-31g* mp2
 -------------

 ------------------------------------------------------
 Input file generated by CHIRIPA (05-May-2021 14:57:22)
 ------------------------------------------------------
 Symbolic Z-matrix:
 Charge =  0 Multiplicity = 1

                         Standard orientation:
 ---------------------------------------------------------------------
 Center     Atomic      Atomic             Coordinates (Angstroms)
 Number     Number       Type             X           Y           Z
 ---------------------------------------------------------------------
      1          6           0        4.879835    1.929691    0.202172
      2          6           0        4.951254    1.061646   -0.892323
      3          6           0        4.133272   -0.070384   -0.955272
      4          6           0        3.251360   -0.304949    0.098531
      5          6           0        3.156907    0.541060    1.202450
      6          6           0        3.984469    1.667091    1.244228
      7          1           0        5.518984    2.806749    0.242849
      8          1           0        5.645667    1.263081   -1.703038
      9          1           0        4.168005   -0.759025   -1.790728
     10          1           0        2.454776    0.313878    1.995430
     11          1           0        3.926850    2.339483    2.095470
     12          7           0        2.380329   -1.500203    0.043096
     13          8           0        1.611726   -1.684581    0.984314
     14          8           0        2.482710   -2.230032   -0.940522
     15          6           0       -2.637743   -2.293428    0.053460
     16          6           0       -1.824595   -1.343639   -0.573606
     17          6           0       -2.233995   -0.010257   -0.668655
     18          6           0       -3.468117    0.340114   -0.123244
     19          6           0       -4.300707   -0.582982    0.507613
     20          6           0       -3.871029   -1.910743    0.591120
     21          1           0       -2.311835   -3.327048    0.122813
     22          1           0       -0.866312   -1.637978   -0.992060
     23          1           0       -1.624276    0.745513   -1.148730
     24          1           0       -5.250738   -0.259447    0.915269
     25          1           0       -4.504604   -2.646216    1.078672
     26          7           0       -3.912264    1.748730   -0.217759
     27          8           0       -5.003945    2.031976    0.270751
     28          8           0       -3.160296    2.542886   -0.778561
 ---------------------------------------------------------------------

 SCF Done:  E(RHF) =  -868.340248466     A.U. after   16 cycles
 E2 =    -0.2598662715D+01 EUMP2 =    -0.87093891118084D+03

 The electronic state is 1-A.
 Alpha  occ. eigenvalues --  -20.61678 -20.61662 -20.60237 -20.60230 -15.86678
 Alpha  occ. eigenvalues --  -15.85278 -11.31720 -11.30404 -11.28258 -11.28233
 Alpha  occ. eigenvalues --  -11.27920 -11.27187 -11.27161 -11.26949 -11.26886
 Alpha  occ. eigenvalues --  -11.26505 -11.25917 -11.25709  -1.60750  -1.59317
 Alpha  occ. eigenvalues --   -1.40300  -1.38877  -1.19862  -1.18519  -1.09319
 Alpha  occ. eigenvalues --   -1.07936  -1.05209  -1.03881  -0.96204  -0.94827
 Alpha  occ. eigenvalues --   -0.86622  -0.85270  -0.83041  -0.81672  -0.78130
 Alpha  occ. eigenvalues --   -0.76771  -0.72896  -0.72067  -0.71503  -0.70957
 Alpha  occ. eigenvalues --   -0.70637  -0.69593  -0.65511  -0.65203  -0.64157
 Alpha  occ. eigenvalues --   -0.63837  -0.62557  -0.61233  -0.55717  -0.54326
 Alpha  occ. eigenvalues --   -0.53561  -0.53291  -0.52225  -0.51950  -0.49679
 Alpha  occ. eigenvalues --   -0.49642  -0.48274  -0.48231  -0.45766  -0.44338
 Alpha  occ. eigenvalues --   -0.37822  -0.36795  -0.36443  -0.35470
 Alpha virt. eigenvalues --    0.04341   0.05741   0.10864   0.12193   0.15922
 Alpha virt. eigenvalues --    0.17333   0.21053   0.22402   0.26991   0.27845
 Alpha virt. eigenvalues --    0.28273   0.29247   0.30647   0.31976   0.32127

 Mulliken charges:
               1
     1  C   -0.169213
     2  C   -0.218394
     3  C   -0.171068
     4  C    0.156507
     5  C   -0.170321
     6  C   -0.218014
     7  H    0.228464
     8  H    0.225408
     9  H    0.275367
    10  H    0.276976
    11  H    0.226663
    12  N    0.485938
    13  O   -0.461156
    14  O   -0.464419
    15  C   -0.170098
    16  C   -0.214467
    17  C   -0.175131
    18  C    0.157829
    19  C   -0.173278
    20  C   -0.219136
    21  H    0.230212
    22  H    0.236919
    23  H    0.270383
    24  H    0.272115
    25  H    0.220745
    26  N    0.488172
    27  O   -0.462825
    28  O   -0.464179
 Sum of Mulliken charges =  -0.00000

 Dipole moment (field-independent basis, Debye):
    X=              5.0677    Y=             -0.8285    Z=              0.5864  Tot=              5.1683
 Quadrupole moment (field-independent basis, Debye-Ang):
   XX=            -92.3916   YY=           -111.1858   ZZ=           -100.6069
   XY=             32.3814   XZ=             -4.7161   YZ=              1.8407

 Normal termination of Gaussian 16 at Fri May  7 03:16:52 2021.
