 Gaussian 16, Revision A.03,
 Gaussian 16:  EM64L-G16RevA.03 25-Dec-2016

 -------------
 #p 6-31g* mp2
 -------------

 ------------------------------------------------------
 Input file generated by CHIRIPA (05-May-2021 14:53:18)
 ------------------------------------------------------
 Symbolic Z-matrix:
 Charge =  0 Multiplicity = 1

                         Standard orientation:
 ---------------------------------------------------------------------
 Center     Atomic      Atomic             Coordinates (Angstroms)
 Number     Number       Type             X           Y           Z
 ---------------------------------------------------------------------
      1          6           0        2.446995    1.148337   -0.368622
      2          6           0        1.164428    1.548181   -1.098781
      3          6           0        0.765891    3.001589   -0.840774
      4          1           0        2.311973    1.307060    0.710044
      5          1           0        3.262429    1.814434   -0.682912
      6          1           0        0.351973    0.880648   -0.784246
      7          1           0        1.302452    1.388307   -2.175817
      8          1           0        1.556902    3.682454   -1.171416
      9          1           0        0.601023    3.171910    0.228062
     10          1           0       -0.153556    3.266159   -1.372262
     11          6           0        2.858360   -0.301825   -0.616684
     12          6           0        4.140927   -0.701669    0.113475
     13          6           0        4.539463   -2.155077   -0.144532
     14          1           0        2.042926   -0.967922   -0.302394
     15          1           0        2.993381   -0.460548   -1.695350
     16          1           0        4.002902   -0.541795    1.190511
     17          1           0        4.953381   -0.034136   -0.201061
     18          1           0        4.704332   -2.325398   -1.213368
     19          1           0        3.748452   -2.835942    0.186110
     20          1           0        5.458911   -2.419647    0.386956
     21          6           0       -0.750958    0.581931    2.330873
     22          6           0       -1.502601    1.446444    1.528270
     23          6           0       -2.238610    0.951862    0.447424
     24          6           0       -2.200157   -0.418895    0.196755
     25          6           0       -1.460935   -1.305697    0.978051
     26          6           0       -0.732557   -0.788964    2.053690
     27          1           0       -0.182173    0.974738    3.168477
     28          1           0       -1.518754    2.511553    1.741175
     29          1           0       -2.829029    1.598669   -0.190122
     30          1           0       -1.464441   -2.362673    0.740970
     31          1           0       -0.149714   -1.462712    2.675304
     32          7           0       -2.975297   -0.954213   -0.944733
     33          8           0       -2.924866   -2.165884   -1.144596
     34          8           0       -3.618605   -0.151987   -1.617953
 ---------------------------------------------------------------------

 SCF Done:  E(RHF) =  -669.534252570     A.U. after   15 cycles
 E2 =    -0.2095852726D+01 EUMP2 =    -0.67163010529583D+03

 The electronic state is 1-A.
 Alpha  occ. eigenvalues --  -20.60865 -20.60860 -15.85921 -11.31337 -11.27924
 Alpha  occ. eigenvalues --  -11.27867 -11.27658 -11.26972 -11.26894 -11.21900
 Alpha  occ. eigenvalues --  -11.21654 -11.21605 -11.21556 -11.21416 -11.21343
 Alpha  occ. eigenvalues --   -1.59940  -1.39491  -1.19540  -1.08917  -1.08641
 Alpha  occ. eigenvalues --   -1.04944  -1.03763  -0.96251  -0.95731  -0.87273
 Alpha  occ. eigenvalues --   -0.86319  -0.82555  -0.79838  -0.78466  -0.77594
 Alpha  occ. eigenvalues --   -0.72137  -0.71269  -0.70614  -0.65345  -0.65169
 Alpha  occ. eigenvalues --   -0.64913  -0.62284  -0.61247  -0.59618  -0.57858
 Alpha  occ. eigenvalues --   -0.55631  -0.55398  -0.53232  -0.53028  -0.52918
 Alpha  occ. eigenvalues --   -0.52638  -0.50189  -0.48901  -0.48889  -0.48130
 Alpha  occ. eigenvalues --   -0.46850  -0.46002  -0.45865  -0.44883  -0.44023
 Alpha  occ. eigenvalues --   -0.37486  -0.36464
 Alpha virt. eigenvalues --    0.04906   0.11028   0.16323   0.20596   0.22840
 Alpha virt. eigenvalues --    0.23975   0.26206   0.26262   0.26900   0.28261
 Alpha virt. eigenvalues --    0.28799   0.29856   0.31171   0.31482   0.31829

 Mulliken charges:
               1
     1  C   -0.295787
     2  C   -0.304939
     3  C   -0.474887
     4  H    0.142592
     5  H    0.149069
     6  H    0.161977
     7  H    0.154427
     8  H    0.156234
     9  H    0.145420
    10  H    0.158792
    11  C   -0.299489
    12  C   -0.299204
    13  C   -0.475264
    14  H    0.148667
    15  H    0.152453
    16  H    0.147011
    17  H    0.152958
    18  H    0.157789
    19  H    0.153082
    20  H    0.160205
    21  C   -0.172311
    22  C   -0.212146
    23  C   -0.175145
    24  C    0.161068
    25  C   -0.173117
    26  C   -0.217083
    27  H    0.226504
    28  H    0.225411
    29  H    0.276365
    30  H    0.276522
    31  H    0.224560
    32  N    0.488092
    33  O   -0.459971
    34  O   -0.459856
 Sum of Mulliken charges =  -0.00000

 Dipole moment (field-independent basis, Debye):
    X=              2.6130    Y=              1.8248    Z=              3.9953  Tot=              5.1107
 Quadrupole moment (field-independent basis, Debye-Ang):
   XX=           -106.9423   YY=            -93.4222   ZZ=            -92.8242
   XY=             -6.5729   XZ=             -8.5887   YZ=             -2.7491

 Normal termination of Gaussian 16 at Wed May  5 22:04:35 2021.
