 Gaussian 16, Revision A.03,
 Gaussian 16:  EM64L-G16RevA.03 25-Dec-2016

 -------------
 #p 6-31g* mp2
 -------------

 ------------------------------------------------------
 Input file generated by CHIRIPA (05-May-2021 14:51:08)
 ------------------------------------------------------
 Symbolic Z-matrix:
 Charge =  0 Multiplicity = 1

                         Standard orientation:
 ---------------------------------------------------------------------
 Center     Atomic      Atomic             Coordinates (Angstroms)
 Number     Number       Type             X           Y           Z
 ---------------------------------------------------------------------
      1          6           0       -3.010406   -0.086212    0.807084
      2          6           0       -1.679951   -0.839759    0.813566
      3          6           0       -0.707486   -0.313227    1.869440
      4          1           0       -2.819060    0.981271    0.631553
      5          1           0       -3.471433   -0.161716    1.801643
      6          1           0       -1.222230   -0.764023   -0.181105
      7          1           0       -1.874502   -1.905602    0.988912
      8          1           0       -1.140179   -0.403895    2.871017
      9          1           0       -0.484201    0.744170    1.694352
     10          1           0        0.237009   -0.866061    1.856589
     11          6           0       -3.993131   -0.601061   -0.243111
     12          6           0       -5.323586    0.152486   -0.249593
     13          6           0       -6.296051   -0.374046   -1.305467
     14          1           0       -3.532104   -0.525557   -1.237670
     15          1           0       -4.184477   -1.668544   -0.067580
     16          1           0       -5.129035    1.218329   -0.424939
     17          1           0       -5.781307    0.076750    0.745078
     18          1           0       -6.519336   -1.431443   -1.130379
     19          1           0       -5.863358   -0.283379   -2.307044
     20          1           0       -7.240545    0.178788   -1.292615
     21          6           0        3.548089   -0.404316   -0.429817
     22          6           0        4.937921   -0.988087   -0.173763
     23          6           0        5.014727   -2.485324   -0.474055
     24          1           0        2.812856   -0.941250    0.185064
     25          1           0        3.269972   -0.583822   -1.477588
     26          1           0        5.213912   -0.806312    0.872852
     27          1           0        5.669958   -0.449573   -0.789182
     28          1           0        4.765029   -2.681393   -1.521819
     29          1           0        4.306392   -3.040159    0.149659
     30          1           0        6.016967   -2.881969   -0.284188
     31          6           0        3.455448    1.091589   -0.134156
     32          6           0        2.065615    1.675359   -0.390211
     33          6           0        1.988810    3.172597   -0.089918
     34          1           0        3.733565    1.271094    0.913615
     35          1           0        4.190680    1.628523   -0.749038
     36          1           0        1.333579    1.136845    0.225209
     37          1           0        1.789624    1.493585   -1.436826
     38          1           0        2.697144    3.727432   -0.713632
     39          1           0        2.238508    3.368666    0.957846
     40          1           0        0.986571    3.569242   -0.279786
 ---------------------------------------------------------------------

 SCF Done:  E(RHF) =  -470.733034116     A.U. after   11 cycles
 E2 =    -0.1583097035D+01 EUMP2 =    -0.47231613115162D+03

 The electronic state is 1-A.
 Alpha  occ. eigenvalues --  -11.21635 -11.21612 -11.21592 -11.21504 -11.21424
 Alpha  occ. eigenvalues --  -11.21385 -11.21364 -11.21321 -11.21137 -11.21079
 Alpha  occ. eigenvalues --  -11.21066 -11.21061  -1.08458  -1.08400  -1.03578
 Alpha  occ. eigenvalues --   -1.03492  -0.96022  -0.95959  -0.87047  -0.86968
 Alpha  occ. eigenvalues --   -0.79657  -0.79540  -0.78265  -0.78217  -0.65162
 Alpha  occ. eigenvalues --   -0.64978  -0.61139  -0.60756  -0.59394  -0.59316
 Alpha  occ. eigenvalues --   -0.57646  -0.57554  -0.55380  -0.55187  -0.52734
 Alpha  occ. eigenvalues --   -0.52641  -0.52441  -0.52382  -0.50074  -0.49824
 Alpha  occ. eigenvalues --   -0.47980  -0.47836  -0.46786  -0.46455  -0.45835
 Alpha  occ. eigenvalues --   -0.45744  -0.45723  -0.45588  -0.43807  -0.43759
 Alpha virt. eigenvalues --    0.20805   0.23054   0.23772   0.24380   0.26275
 Alpha virt. eigenvalues --    0.26572   0.26874   0.27501   0.27900   0.29285
 Alpha virt. eigenvalues --    0.30762   0.31530   0.31670   0.31927   0.31942

 Mulliken charges:
               1
     1  C   -0.298415
     2  C   -0.301076
     3  C   -0.480658
     4  H    0.149871
     5  H    0.149554
     6  H    0.153764
     7  H    0.152254
     8  H    0.156324
     9  H    0.157777
    10  H    0.160657
    11  C   -0.298365
    12  C   -0.299684
    13  C   -0.475724
    14  H    0.149728
    15  H    0.149690
    16  H    0.151977
    17  H    0.151934
    18  H    0.155198
    19  H    0.155226
    20  H    0.160293
    21  C   -0.299980
    22  C   -0.299642
    23  C   -0.475669
    24  H    0.150617
    25  H    0.149420
    26  H    0.151982
    27  H    0.152023
    28  H    0.155166
    29  H    0.155030
    30  H    0.160251
    31  C   -0.297351
    32  C   -0.310256
    33  C   -0.475555
    34  H    0.149438
    35  H    0.149374
    36  H    0.164432
    37  H    0.150790
    38  H    0.155275
    39  H    0.155184
    40  H    0.159150
 Sum of Mulliken charges =  -0.00000

 Dipole moment (field-independent basis, Debye):
    X=             -0.0290    Y=             -0.0140    Z=              0.0150  Tot=              0.0356
 Quadrupole moment (field-independent basis, Debye-Ang):
   XX=            -85.3248   YY=            -85.6187   ZZ=            -83.9264
   XY=              0.3067   XZ=             -1.0347   YZ=             -1.0133

 Normal termination of Gaussian 16 at Thu May  6 14:52:21 2021.
