 Gaussian 16, Revision A.03,
 Gaussian 16:  EM64L-G16RevA.03 25-Dec-2016

 -------------
 #p 6-31g* mp2
 -------------

 ------------------------------------------------------
 Input file generated by CHIRIPA (05-May-2021 14:51:08)
 ------------------------------------------------------
 Symbolic Z-matrix:
 Charge =  0 Multiplicity = 1

                         Standard orientation:
 ---------------------------------------------------------------------
 Center     Atomic      Atomic             Coordinates (Angstroms)
 Number     Number       Type             X           Y           Z
 ---------------------------------------------------------------------
      1          6           0        3.187077   -0.435160    0.117594
      2          6           0        3.411170    0.584390   -0.999673
      3          6           0        4.756191    1.302235   -0.883865
      4          1           0        3.249733    0.074803    1.088654
      5          1           0        4.000608   -1.173554    0.099254
      6          1           0        2.596714    1.319846   -0.980106
      7          1           0        3.347784    0.071976   -1.968192
      8          1           0        5.581186    0.583744   -0.925752
      9          1           0        4.825849    1.838704    0.067949
     10          1           0        4.895662    2.026471   -1.692499
     11          6           0        1.846766   -1.161016    0.015484
     12          6           0        1.622673   -2.180566    1.132751
     13          6           0        0.277652   -2.898410    1.016943
     14          1           0        1.033235   -0.422621    0.033824
     15          1           0        1.784111   -1.670978   -0.955576
     16          1           0        1.686060   -1.668151    2.101270
     17          1           0        2.437130   -2.916021    1.113184
     18          1           0        0.207995   -3.434879    0.065129
     19          1           0       -0.547343   -2.179919    1.058830
     20          1           0        0.138182   -3.622647    1.825577
     21          6           0       -2.540572    1.543907    0.096639
     22          6           0       -1.202631    2.100604    0.584478
     23          6           0       -1.265924    3.593869    0.906887
     24          1           0       -2.858320    2.100047   -0.795936
     25          1           0       -3.305855    1.722008    0.864764
     26          1           0       -0.439799    1.920270   -0.183754
     27          1           0       -0.887937    1.542947    1.475884
     28          1           0       -2.006416    3.787945    1.689579
     29          1           0       -1.555731    4.167412    0.020510
     30          1           0       -0.298826    3.971032    1.253773
     31          6           0       -2.493272    0.052269   -0.229717
     32          6           0       -3.831212   -0.504429   -0.717557
     33          6           0       -3.767919   -1.997694   -1.039964
     34          1           0       -1.727988   -0.125833   -0.997842
     35          1           0       -2.175524   -0.503871    0.662858
     36          1           0       -4.145906    0.053228   -1.608961
     37          1           0       -4.594045   -0.324095    0.050676
     38          1           0       -3.478113   -2.571238   -0.153589
     39          1           0       -3.027428   -2.191769   -1.822657
     40          1           0       -4.735017   -2.374858   -1.386851
 ---------------------------------------------------------------------

 SCF Done:  E(RHF) =  -470.733016067     A.U. after   11 cycles
 E2 =    -0.1584356269D+01 EUMP2 =    -0.47231737233627D+03

 The electronic state is 1-A.
 Alpha  occ. eigenvalues --  -11.21706 -11.21622 -11.21587 -11.21533 -11.21461
 Alpha  occ. eigenvalues --  -11.21396 -11.21340 -11.21259 -11.21147 -11.21058
 Alpha  occ. eigenvalues --  -11.21050 -11.20955  -1.08502  -1.08364  -1.03582
 Alpha  occ. eigenvalues --   -1.03477  -0.96024  -0.95924  -0.87043  -0.86940
 Alpha  occ. eigenvalues --   -0.79665  -0.79542  -0.78443  -0.78057  -0.65131
 Alpha  occ. eigenvalues --   -0.65005  -0.60983  -0.60878  -0.59411  -0.59288
 Alpha  occ. eigenvalues --   -0.57641  -0.57530  -0.55353  -0.55177  -0.52720
 Alpha  occ. eigenvalues --   -0.52625  -0.52471  -0.52336  -0.50016  -0.49836
 Alpha  occ. eigenvalues --   -0.48045  -0.47815  -0.46765  -0.46645  -0.46222
 Alpha  occ. eigenvalues --   -0.45698  -0.45687  -0.45097  -0.43832  -0.43727
 Alpha virt. eigenvalues --    0.20626   0.22421   0.23603   0.24418   0.24942
 Alpha virt. eigenvalues --    0.25766   0.27063   0.27578   0.28584   0.29803
 Alpha virt. eigenvalues --    0.30870   0.31506   0.31731   0.31922   0.32133

 Mulliken charges:
               1
     1  C   -0.297704
     2  C   -0.300941
     3  C   -0.475614
     4  H    0.149460
     5  H    0.149326
     6  H    0.152410
     7  H    0.151689
     8  H    0.155263
     9  H    0.155187
    10  H    0.160047
    11  C   -0.305561
    12  C   -0.298967
    13  C   -0.482486
    14  H    0.158121
    15  H    0.148603
    16  H    0.151051
    17  H    0.151520
    18  H    0.155164
    19  H    0.162121
    20  H    0.159154
    21  C   -0.297487
    22  C   -0.303693
    23  C   -0.475597
    24  H    0.149985
    25  H    0.149703
    26  H    0.154707
    27  H    0.151718
    28  H    0.155566
    29  H    0.155600
    30  H    0.160323
    31  C   -0.305252
    32  C   -0.299476
    33  C   -0.476508
    34  H    0.152170
    35  H    0.154241
    36  H    0.151974
    37  H    0.151766
    38  H    0.156799
    39  H    0.155509
    40  H    0.160110
 Sum of Mulliken charges =  -0.00000

 Dipole moment (field-independent basis, Debye):
    X=             -0.0612    Y=              0.0306    Z=             -0.0126  Tot=              0.0695
 Quadrupole moment (field-independent basis, Debye-Ang):
   XX=            -85.4399   YY=            -85.7872   ZZ=            -83.6070
   XY=             -0.9109   XZ=             -0.4911   YZ=             -0.0014

 Normal termination of Gaussian 16 at Wed May  5 22:54:49 2021.
