 Gaussian 16, Revision A.03,
 Gaussian 16:  EM64L-G16RevA.03 25-Dec-2016

 -------------
 #p 6-31g* mp2
 -------------

 ------------------------------------------------------
 Input file generated by CHIRIPA (05-May-2021 14:57:22)
 ------------------------------------------------------
 Symbolic Z-matrix:
 Charge =  0 Multiplicity = 1

                         Standard orientation:
 ---------------------------------------------------------------------
 Center     Atomic      Atomic             Coordinates (Angstroms)
 Number     Number       Type             X           Y           Z
 ---------------------------------------------------------------------
      1          6           0       -5.864003    1.851679   -0.191659
      2          6           0       -6.265472    0.537754    0.070911
      3          6           0       -5.321311   -0.489953    0.154141
      4          6           0       -3.978035   -0.166660   -0.031280
      5          6           0       -3.546730    1.132614   -0.294254
      6          6           0       -4.508303    2.144400   -0.373084
      7          1           0       -6.604213    2.643843   -0.254605
      8          1           0       -7.317638    0.307496    0.212239
      9          1           0       -5.604487   -1.515817    0.356207
     10          1           0       -2.490628    1.331302   -0.430592
     11          1           0       -4.193621    3.163903   -0.577126
     12          7           0       -2.969277   -1.246219    0.054502
     13          8           0       -1.791972   -0.935358   -0.112691
     14          8           0       -3.375020   -2.382798    0.287307
     15          6           0        2.423266   -1.855991    0.076762
     16          6           0        3.692770   -2.092095   -0.460950
     17          6           0        4.654212   -1.077371   -0.483559
     18          6           0        4.310672    0.167076    0.042388
     19          6           0        3.054465    0.433257    0.584957
     20          6           0        2.108720   -0.596289    0.597083
     21          1           0        1.682491   -2.650010    0.090254
     22          1           0        3.939839   -3.069414   -0.865735
     23          1           0        5.644636   -1.232850   -0.893809
     24          1           0        2.837558    1.417851    0.981120
     25          1           0        1.123604   -0.410065    1.015309
     26          7           0        5.320200    1.249165    0.024002
     27          8           0        4.992734    2.336783    0.493567
     28          8           0        6.419818    0.989199   -0.459624
 ---------------------------------------------------------------------

 SCF Done:  E(RHF) =  -868.340346219     A.U. after   16 cycles
 E2 =    -0.2598073054D+01 EUMP2 =    -0.87093841927327D+03

 The electronic state is 1-A.
 Alpha  occ. eigenvalues --  -20.61764 -20.61711 -20.60168 -20.60162 -15.86771
 Alpha  occ. eigenvalues --  -15.85212 -11.31852 -11.30358 -11.28394 -11.28375
 Alpha  occ. eigenvalues --  -11.28063 -11.27330 -11.27321 -11.26917 -11.26868
 Alpha  occ. eigenvalues --  -11.26434 -11.25856 -11.25676  -1.60804  -1.59248
 Alpha  occ. eigenvalues --   -1.40366  -1.38809  -1.19995  -1.18482  -1.09441
 Alpha  occ. eigenvalues --   -1.07882  -1.05355  -1.03851  -0.96325  -0.94767
 Alpha  occ. eigenvalues --   -0.86766  -0.85230  -0.83169  -0.81616  -0.78249
 Alpha  occ. eigenvalues --   -0.76720  -0.73012  -0.72102  -0.71435  -0.71097
 Alpha  occ. eigenvalues --   -0.70570  -0.69516  -0.65652  -0.65351  -0.64112
 Alpha  occ. eigenvalues --   -0.63798  -0.62706  -0.61200  -0.55859  -0.54243
 Alpha  occ. eigenvalues --   -0.53699  -0.53441  -0.52195  -0.51908  -0.49776
 Alpha  occ. eigenvalues --   -0.49731  -0.48205  -0.48167  -0.45830  -0.44265
 Alpha  occ. eigenvalues --   -0.37954  -0.36945  -0.36399  -0.35468
 Alpha virt. eigenvalues --    0.04251   0.05799   0.10714   0.12202   0.15794
 Alpha virt. eigenvalues --    0.17379   0.20852   0.22497   0.26790   0.27502
 Alpha virt. eigenvalues --    0.28471   0.29370   0.30484   0.31702   0.32461

 Mulliken charges:
               1
     1  C   -0.169767
     2  C   -0.218468
     3  C   -0.170468
     4  C    0.157688
     5  C   -0.170718
     6  C   -0.218386
     7  H    0.228229
     8  H    0.225533
     9  H    0.276247
    10  H    0.274127
    11  H    0.226179
    12  N    0.491266
    13  O   -0.472107
    14  O   -0.457548
    15  C   -0.171226
    16  C   -0.219625
    17  C   -0.172808
    18  C    0.157814
    19  C   -0.174254
    20  C   -0.220509
    21  H    0.235907
    22  H    0.221216
    23  H    0.272355
    24  H    0.270727
    25  H    0.236854
    26  N    0.488259
    27  O   -0.463766
    28  O   -0.462752
 Sum of Mulliken charges =  -0.00000

 Dipole moment (field-independent basis, Debye):
    X=             -7.6945    Y=             -0.0916    Z=             -0.2266  Tot=              7.6983
 Quadrupole moment (field-independent basis, Debye-Ang):
   XX=           -103.3759   YY=           -103.7040   ZZ=           -105.2901
   XY=            -31.9882   XZ=             -0.9141   YZ=              0.5116

 Normal termination of Gaussian 16 at Wed May  5 22:34:38 2021.
