 Gaussian 16, Revision A.03,
 Gaussian 16:  EM64L-G16RevA.03 25-Dec-2016

 -------------
 #p 6-31g* mp2
 -------------

 ------------------------------------------------------
 Input file generated by CHIRIPA (05-May-2021 14:57:20)
 ------------------------------------------------------
 Symbolic Z-matrix:
 Charge =  0 Multiplicity = 1

                         Standard orientation:
 ---------------------------------------------------------------------
 Center     Atomic      Atomic             Coordinates (Angstroms)
 Number     Number       Type             X           Y           Z
 ---------------------------------------------------------------------
      1          6           0       -3.606428   -1.924331   -0.958782
      2          6           0       -2.243281   -1.611444   -0.937471
      3          6           0       -1.804204   -0.384808   -0.430397
      4          6           0       -2.759916    0.509434    0.049432
      5          6           0       -4.124964    0.226813    0.041733
      6          6           0       -4.541270   -1.005824   -0.469973
      7          1           0       -3.938669   -2.879542   -1.354488
      8          1           0       -1.515022   -2.322837   -1.316422
      9          1           0       -0.755000   -0.116889   -0.401958
     10          1           0       -4.827242    0.956324    0.426490
     11          1           0       -5.600547   -1.246123   -0.485272
     12          7           0       -2.307138    1.811194    0.588701
     13          8           0       -3.169120    2.581834    1.005521
     14          8           0       -1.098842    2.036226    0.584348
     15          6           0        1.848599   -1.873359    1.743053
     16          6           0        2.855705   -0.978232    2.118563
     17          6           0        3.409269   -0.099095    1.183024
     18          6           0        2.929856   -0.142287   -0.125252
     19          6           0        1.927595   -1.022550   -0.530100
     20          6           0        1.388570   -1.892627    0.422249
     21          1           0        1.424224   -2.552774    2.476330
     22          1           0        3.214919   -0.961050    3.143607
     23          1           0        4.189945    0.604094    1.446629
     24          1           0        1.590051   -1.016293   -1.559391
     25          1           0        0.606544   -2.586723    0.127782
     26          7           0        3.508194    0.783620   -1.124563
     27          8           0        3.068492    0.725825   -2.270843
     28          8           0        4.390246    1.549611   -0.742619
 ---------------------------------------------------------------------

 SCF Done:  E(RHF) =  -868.335389563     A.U. after   16 cycles
 E2 =    -0.2602871925D+01 EUMP2 =    -0.87093826148763D+03

 The electronic state is 1-A.
 Alpha  occ. eigenvalues --  -20.60940 -20.60925 -20.60788 -20.60771 -15.85994
 Alpha  occ. eigenvalues --  -15.85847 -11.31474 -11.31422 -11.28101 -11.28099
 Alpha  occ. eigenvalues --  -11.28037 -11.27926 -11.27921 -11.27761 -11.27250
 Alpha  occ. eigenvalues --  -11.27191 -11.27111 -11.26978  -1.60008  -1.59847
 Alpha  occ. eigenvalues --   -1.39557  -1.39399  -1.19715  -1.19601  -1.09079
 Alpha  occ. eigenvalues --   -1.08949  -1.05257  -1.04989  -0.95885  -0.95756
 Alpha  occ. eigenvalues --   -0.86551  -0.86435  -0.82822  -0.82546  -0.77864
 Alpha  occ. eigenvalues --   -0.77523  -0.72215  -0.72069  -0.71336  -0.71161
 Alpha  occ. eigenvalues --   -0.70854  -0.70666  -0.65418  -0.65338  -0.65240
 Alpha  occ. eigenvalues --   -0.64966  -0.62808  -0.62116  -0.55665  -0.55514
 Alpha  occ. eigenvalues --   -0.53641  -0.53523  -0.53121  -0.52898  -0.48984
 Alpha  occ. eigenvalues --   -0.48954  -0.48840  -0.48807  -0.44935  -0.44764
 Alpha  occ. eigenvalues --   -0.37706  -0.37572  -0.36905  -0.36451
 Alpha virt. eigenvalues --    0.04771   0.04924   0.10646   0.11139   0.16072
 Alpha virt. eigenvalues --    0.16399   0.19170   0.22147   0.24989   0.27688
 Alpha virt. eigenvalues --    0.28110   0.29495   0.29823   0.31865   0.32336

 Mulliken charges:
               1
     1  C   -0.169811
     2  C   -0.227805
     3  C   -0.173515
     4  C    0.156384
     5  C   -0.168704
     6  C   -0.219630
     7  H    0.225989
     8  H    0.214379
     9  H    0.286764
    10  H    0.277114
    11  H    0.224697
    12  N    0.487254
    13  O   -0.459969
    14  O   -0.457582
    15  C   -0.168991
    16  C   -0.215572
    17  C   -0.166612
    18  C    0.167506
    19  C   -0.184747
    20  C   -0.220717
    21  H    0.226845
    22  H    0.226257
    23  H    0.278839
    24  H    0.272505
    25  H    0.218081
    26  N    0.489203
    27  O   -0.461204
    28  O   -0.456958
 Sum of Mulliken charges =  -0.00000

 Dipole moment (field-independent basis, Debye):
    X=             -3.4294    Y=             -7.5858    Z=              1.8323  Tot=              8.5242
 Quadrupole moment (field-independent basis, Debye-Ang):
   XX=           -100.8383   YY=           -109.0977   ZZ=           -104.1555
   XY=              2.7264   XZ=             17.6587   YZ=              0.2877

 Normal termination of Gaussian 16 at Thu May  6 03:16:31 2021.
