 Gaussian 16, Revision A.03,
 Gaussian 16:  EM64L-G16RevA.03 25-Dec-2016

 -------------
 #p 6-31g* mp2
 -------------

 ------------------------------------------------------
 Input file generated by CHIRIPA (05-May-2021 14:53:16)
 ------------------------------------------------------
 Symbolic Z-matrix:
 Charge =  0 Multiplicity = 1

                         Standard orientation:
 ---------------------------------------------------------------------
 Center     Atomic      Atomic             Coordinates (Angstroms)
 Number     Number       Type             X           Y           Z
 ---------------------------------------------------------------------
      1          6           0       -2.823670    0.914670   -0.215594
      2          6           0       -1.723711    1.932654   -0.518557
      3          6           0       -2.155240    3.371588   -0.233873
      4          1           0       -3.713397    1.157108   -0.812716
      5          1           0       -3.119716    1.007942    0.838470
      6          1           0       -1.428858    1.836547   -1.571383
      7          1           0       -0.836434    1.687652    0.079212
      8          1           0       -2.430242    3.490120    0.819182
      9          1           0       -3.026033    3.639862   -0.840791
     10          1           0       -1.353861    4.082720   -0.457351
     11          6           0       -2.407357   -0.528327   -0.495184
     12          6           0       -3.507315   -1.546311   -0.192220
     13          6           0       -3.075787   -2.985245   -0.476905
     14          1           0       -2.111310   -0.621599   -1.549248
     15          1           0       -1.517630   -0.770764    0.101938
     16          1           0       -4.394593   -1.301309   -0.789990
     17          1           0       -3.802168   -1.450204    0.860605
     18          1           0       -2.204994   -3.253518    0.130013
     19          1           0       -2.800784   -3.103777   -1.529960
     20          1           0       -3.877165   -3.696377   -0.253426
     21          6           0        0.973173   -0.092186    2.561756
     22          6           0        1.240441    1.101321    1.883058
     23          6           0        1.833126    1.080768    0.617021
     24          6           0        2.146833   -0.156593    0.056828
     25          6           0        1.893008   -1.362809    0.707909
     26          6           0        1.299735   -1.318280    1.973053
     27          1           0        0.512532   -0.066907    3.544898
     28          1           0        0.987906    2.054981    2.337817
     29          1           0        2.051031    1.989656    0.069428
     30          1           0        2.156105   -2.298093    0.228907
     31          1           0        1.093324   -2.246754    2.497816
     32          7           0        2.774594   -0.191043   -1.282996
     33          8           0        3.041379   -1.294137   -1.754850
     34          8           0        2.987961    0.885702   -1.835927
 ---------------------------------------------------------------------

 SCF Done:  E(RHF) =  -669.534538516     A.U. after   15 cycles
 E2 =    -0.2094553453D+01 EUMP2 =    -0.67162909196843D+03

 The electronic state is 1-A.
 Alpha  occ. eigenvalues --  -20.60836 -20.60831 -15.85892 -11.31301 -11.27903
 Alpha  occ. eigenvalues --  -11.27877 -11.27656 -11.26934 -11.26890 -11.21755
 Alpha  occ. eigenvalues --  -11.21577 -11.21500 -11.21405 -11.21311 -11.21253
 Alpha  occ. eigenvalues --   -1.59910  -1.39462  -1.19512  -1.08886  -1.08539
 Alpha  occ. eigenvalues --   -1.04936  -1.03675  -0.96142  -0.95709  -0.87156
 Alpha  occ. eigenvalues --   -0.86304  -0.82546  -0.79742  -0.78359  -0.77571
 Alpha  occ. eigenvalues --   -0.72111  -0.71232  -0.70602  -0.65230  -0.65132
 Alpha  occ. eigenvalues --   -0.64906  -0.62265  -0.61100  -0.59514  -0.57750
 Alpha  occ. eigenvalues --   -0.55447  -0.55403  -0.53377  -0.52997  -0.52806
 Alpha  occ. eigenvalues --   -0.52565  -0.50095  -0.48874  -0.48861  -0.48072
 Alpha  occ. eigenvalues --   -0.46799  -0.45865  -0.45733  -0.44854  -0.43914
 Alpha  occ. eigenvalues --   -0.37486  -0.36376
 Alpha virt. eigenvalues --    0.04949   0.11081   0.16354   0.21004   0.22864
 Alpha virt. eigenvalues --    0.23939   0.26563   0.27076   0.27336   0.27744
 Alpha virt. eigenvalues --    0.28502   0.30632   0.31305   0.31583   0.31965

 Mulliken charges:
               1
     1  C   -0.296094
     2  C   -0.311052
     3  C   -0.475740
     4  H    0.150282
     5  H    0.144513
     6  H    0.156154
     7  H    0.158823
     8  H    0.150135
     9  H    0.157792
    10  H    0.158272
    11  C   -0.303378
    12  C   -0.299269
    13  C   -0.474815
    14  H    0.152699
    15  H    0.152100
    16  H    0.153066
    17  H    0.148524
    18  H    0.150333
    19  H    0.158636
    20  H    0.160016
    21  C   -0.170519
    22  C   -0.219701
    23  C   -0.171299
    24  C    0.162209
    25  C   -0.170763
    26  C   -0.219250
    27  H    0.226502
    28  H    0.225554
    29  H    0.277237
    30  H    0.276628
    31  H    0.224389
    32  N    0.488155
    33  O   -0.460058
    34  O   -0.460081
 Sum of Mulliken charges =  -0.00000

 Dipole moment (field-independent basis, Debye):
    X=             -2.0633    Y=              0.0748    Z=              4.6819  Tot=              5.1169
 Quadrupole moment (field-independent basis, Debye-Ang):
   XX=           -105.1841   YY=            -91.2458   ZZ=            -93.8045
   XY=              0.7177   XZ=             10.6805   YZ=             -1.2220

 Normal termination of Gaussian 16 at Thu May  6 10:38:07 2021.
