 Gaussian 16, Revision A.03,
 Gaussian 16:  EM64L-G16RevA.03 25-Dec-2016

 -------------
 #p 6-31g* mp2
 -------------

 ------------------------------------------------------
 Input file generated by CHIRIPA (05-May-2021 14:51:13)
 ------------------------------------------------------
 Symbolic Z-matrix:
 Charge =  0 Multiplicity = 1

                         Standard orientation:
 ---------------------------------------------------------------------
 Center     Atomic      Atomic             Coordinates (Angstroms)
 Number     Number       Type             X           Y           Z
 ---------------------------------------------------------------------
      1          6           0       -2.432087    1.505021    0.155671
      2          6           0       -1.266809    2.347387   -0.364456
      3          6           0       -1.384642    3.822036    0.021963
      4          1           0       -3.374356    1.913591   -0.234387
      5          1           0       -2.481256    1.595561    1.249645
      6          1           0       -1.219001    2.254184   -1.456996
      7          1           0       -0.327191    1.936648    0.026731
      8          1           0       -1.409556    3.934175    1.110726
      9          1           0       -2.306434    4.253516   -0.381431
     10          1           0       -0.541308    4.405772   -0.360006
     11          6           0       -2.328525    0.028557   -0.222558
     12          6           0       -3.493803   -0.813809    0.297568
     13          6           0       -3.375970   -2.288458   -0.088850
     14          1           0       -2.279356   -0.061983   -1.316533
     15          1           0       -1.386256   -0.380013    0.167499
     16          1           0       -4.433421   -0.403070   -0.093618
     17          1           0       -3.541611   -0.720606    1.390108
     18          1           0       -2.454178   -2.719937    0.314544
     19          1           0       -3.351056   -2.400597   -1.177613
     20          1           0       -4.219304   -2.872194    0.293118
     21          6           0        2.836510   -0.243587   -0.285254
     22          6           0        2.970541    1.031910    0.547289
     23          6           0        3.886375    2.069050   -0.103390
     24          1           0        3.833208   -0.678697   -0.440883
     25          1           0        2.449671    0.015488   -1.280558
     26          1           0        3.355706    0.770338    1.541193
     27          1           0        1.973389    1.463929    0.701115
     28          1           0        3.502676    2.358706   -1.086993
     29          1           0        4.892847    1.661174   -0.242143
     30          1           0        3.967943    2.972789    0.508544
     31          6           0        1.924101   -1.289992    0.352142
     32          6           0        1.790071   -2.565488   -0.480402
     33          6           0        0.874237   -3.602627    0.170277
     34          1           0        2.310941   -1.549066    1.347445
     35          1           0        0.927404   -0.854882    0.507770
     36          1           0        2.787223   -2.997508   -0.634228
     37          1           0        1.404906   -2.303916   -1.474306
     38          1           0       -0.132235   -3.194752    0.309030
     39          1           0        1.257937   -3.892285    1.153881
     40          1           0        0.792669   -4.506366   -0.441657
 ---------------------------------------------------------------------

 SCF Done:  E(RHF) =  -470.732418501     A.U. after   11 cycles
 E2 =    -0.1585341087D+01 EUMP2 =    -0.47231775958814D+03

 The electronic state is 1-A.
 Alpha  occ. eigenvalues --  -11.21663 -11.21646 -11.21607 -11.21593 -11.21466
 Alpha  occ. eigenvalues --  -11.21406 -11.21404 -11.21344 -11.21116 -11.21095
 Alpha  occ. eigenvalues --  -11.21073 -11.21056  -1.08514  -1.08418  -1.03604
 Alpha  occ. eigenvalues --   -1.03514  -0.96053  -0.95961  -0.87086  -0.86963
 Alpha  occ. eigenvalues --   -0.79729  -0.79525  -0.78449  -0.78136  -0.65377
 Alpha  occ. eigenvalues --   -0.64836  -0.61227  -0.60732  -0.59421  -0.59310
 Alpha  occ. eigenvalues --   -0.57752  -0.57525  -0.55542  -0.55076  -0.52724
 Alpha  occ. eigenvalues --   -0.52671  -0.52584  -0.52289  -0.50200  -0.49646
 Alpha  occ. eigenvalues --   -0.48219  -0.47767  -0.46953  -0.46605  -0.46232
 Alpha  occ. eigenvalues --   -0.45809  -0.45742  -0.44961  -0.43834  -0.43781
 Alpha virt. eigenvalues --    0.19700   0.21803   0.23675   0.24949   0.25366
 Alpha virt. eigenvalues --    0.26154   0.26780   0.27423   0.28686   0.29399
 Alpha virt. eigenvalues --    0.31270   0.31401   0.31634   0.31899   0.32216

 Mulliken charges:
               1
     1  C   -0.297183
     2  C   -0.308787
     3  C   -0.475404
     4  H    0.150171
     5  H    0.149622
     6  H    0.151909
     7  H    0.159104
     8  H    0.155326
     9  H    0.155530
    10  H    0.160583
    11  C   -0.308203
    12  C   -0.298892
    13  C   -0.482594
    14  H    0.149468
    15  H    0.157773
    16  H    0.152276
    17  H    0.152040
    18  H    0.161678
    19  H    0.155342
    20  H    0.160898
    21  C   -0.297458
    22  C   -0.306784
    23  C   -0.475437
    24  H    0.149798
    25  H    0.150171
    26  H    0.151983
    27  H    0.157814
    28  H    0.155423
    29  H    0.155262
    30  H    0.160189
    31  C   -0.307459
    32  C   -0.298676
    33  C   -0.483525
    34  H    0.149450
    35  H    0.156729
    36  H    0.152021
    37  H    0.152527
    38  H    0.161533
    39  H    0.155010
    40  H    0.160773
 Sum of Mulliken charges =  -0.00000

 Dipole moment (field-independent basis, Debye):
    X=             -0.0189    Y=              0.0060    Z=             -0.0067  Tot=              0.0210
 Quadrupole moment (field-independent basis, Debye-Ang):
   XX=            -84.2500   YY=            -86.4687   ZZ=            -83.9465
   XY=             -1.0013   XZ=              1.0161   YZ=             -0.2706

 Normal termination of Gaussian 16 at Wed May  5 15:20:40 2021.
