 Gaussian 16, Revision A.03,
 Gaussian 16:  EM64L-G16RevA.03 25-Dec-2016

 -------------
 #p 6-31g* mp2
 -------------

 ------------------------------------------------------
 Input file generated by CHIRIPA (05-May-2021 14:57:25)
 ------------------------------------------------------
 Symbolic Z-matrix:
 Charge =  0 Multiplicity = 1

                         Standard orientation:
 ---------------------------------------------------------------------
 Center     Atomic      Atomic             Coordinates (Angstroms)
 Number     Number       Type             X           Y           Z
 ---------------------------------------------------------------------
      1          6           0        3.449287    2.610484    0.395656
      2          6           0        2.463124    1.768723    0.920482
      3          6           0        2.518502    0.388725    0.703483
      4          6           0        3.578877   -0.117912   -0.046326
      5          6           0        4.576588    0.694784   -0.582411
      6          6           0        4.501017    2.071778   -0.352795
      7          1           0        3.398425    3.681333    0.569127
      8          1           0        1.645180    2.184306    1.502119
      9          1           0        1.768436   -0.285856    1.098148
     10          1           0        5.379763    0.251186   -1.158213
     11          1           0        5.268287    2.723099   -0.761602
     12          7           0        3.648191   -1.577264   -0.282731
     13          8           0        4.592677   -1.998855   -0.946693
     14          8           0        2.756722   -2.271880    0.200413
     15          6           0       -2.375020   -2.279670    0.546902
     16          6           0       -1.722300   -1.055465    0.725222
     17          6           0       -2.373264    0.145933    0.429522
     18          6           0       -3.682733    0.085930   -0.044798
     19          6           0       -4.359850   -1.117974   -0.232997
     20          6           0       -3.689394   -2.306969    0.069204
     21          1           0       -1.861765   -3.208128    0.779135
     22          1           0       -0.701546   -1.031230    1.096059
     23          1           0       -1.891594    1.107616    0.558276
     24          1           0       -5.377460   -1.110163   -0.604248
     25          1           0       -4.198783   -3.256242   -0.070257
     26          7           0       -4.382196    1.351232   -0.361283
     27          8           0       -5.535780    1.271378   -0.777824
     28          8           0       -3.763608    2.398869   -0.186811
 ---------------------------------------------------------------------

 SCF Done:  E(RHF) =  -868.337986759     A.U. after   16 cycles
 E2 =    -0.2599302182D+01 EUMP2 =    -0.87093728894154D+03

 The electronic state is 1-A.
 Alpha  occ. eigenvalues --  -20.61441 -20.61401 -20.60897 -20.60880 -15.86475
 Alpha  occ. eigenvalues --  -15.85945 -11.31784 -11.31247 -11.28450 -11.28278
 Alpha  occ. eigenvalues --  -11.27994 -11.27878 -11.27785 -11.27456 -11.27355
 Alpha  occ. eigenvalues --  -11.27264 -11.26844 -11.26744  -1.60492  -1.59967
 Alpha  occ. eigenvalues --   -1.40053  -1.39524  -1.19932  -1.19407  -1.09319
 Alpha  occ. eigenvalues --   -1.08788  -1.05341  -1.04820  -0.96178  -0.95640
 Alpha  occ. eigenvalues --   -0.86733  -0.86202  -0.83024  -0.82495  -0.78105
 Alpha  occ. eigenvalues --   -0.77567  -0.72700  -0.72164  -0.71806  -0.71288
 Alpha  occ. eigenvalues --   -0.71038  -0.70467  -0.65587  -0.65367  -0.65057
 Alpha  occ. eigenvalues --   -0.64809  -0.62753  -0.62140  -0.55795  -0.55235
 Alpha  occ. eigenvalues --   -0.53644  -0.53473  -0.53122  -0.52873  -0.49468
 Alpha  occ. eigenvalues --   -0.49434  -0.48927  -0.48911  -0.45471  -0.44945
 Alpha  occ. eigenvalues --   -0.37865  -0.37332  -0.36936  -0.36422
 Alpha virt. eigenvalues --    0.04448   0.04993   0.10707   0.11250   0.15975
 Alpha virt. eigenvalues --    0.16510   0.18476   0.22186   0.24659   0.26643
 Alpha virt. eigenvalues --    0.28272   0.29319   0.30036   0.31162   0.32275

 Mulliken charges:
               1
     1  C   -0.169451
     2  C   -0.219988
     3  C   -0.175980
     4  C    0.159607
     5  C   -0.169511
     6  C   -0.217987
     7  H    0.229681
     8  H    0.223837
     9  H    0.272206
    10  H    0.277340
    11  H    0.226380
    12  N    0.488013
    13  O   -0.456489
    14  O   -0.467190
    15  C   -0.170848
    16  C   -0.219830
    17  C   -0.172428
    18  C    0.158592
    19  C   -0.170617
    20  C   -0.218722
    21  H    0.233594
    22  H    0.224682
    23  H    0.268749
    24  H    0.275832
    25  H    0.225052
    26  N    0.488458
    27  O   -0.459490
    28  O   -0.463492
 Sum of Mulliken charges =  -0.00000

 Dipole moment (field-independent basis, Debye):
    X=              2.3880    Y=              0.6552    Z=              1.8531  Tot=              3.0928
 Quadrupole moment (field-independent basis, Debye-Ang):
   XX=           -117.1624   YY=           -105.7499   ZZ=           -104.7263
   XY=             39.2973   XZ=             -2.7243   YZ=              0.4032

 Normal termination of Gaussian 16 at Thu May  6 08:17:56 2021.
