 Gaussian 16, Revision A.03,
 Gaussian 16:  EM64L-G16RevA.03 25-Dec-2016

 -------------
 #p 6-31g* mp2
 -------------

 ------------------------------------------------------
 Input file generated by CHIRIPA (05-May-2021 14:51:07)
 ------------------------------------------------------
 Symbolic Z-matrix:
 Charge =  0 Multiplicity = 1

                         Standard orientation:
 ---------------------------------------------------------------------
 Center     Atomic      Atomic             Coordinates (Angstroms)
 Number     Number       Type             X           Y           Z
 ---------------------------------------------------------------------
      1          6           0       -3.585221    0.803019   -0.162011
      2          6           0       -2.354053    1.036865   -1.038098
      3          6           0       -1.675653    2.378266   -0.758437
      4          1           0       -4.302715    1.619133   -0.323582
      5          1           0       -3.289085    0.851872    0.895019
      6          1           0       -2.652170    0.986211   -2.093170
      7          1           0       -1.639489    0.219998   -0.874565
      8          1           0       -1.350512    2.435311    0.285417
      9          1           0       -2.368946    3.205877   -0.940112
     10          1           0       -0.797965    2.524840   -1.395650
     11          6           0       -4.274323   -0.533806   -0.429902
     12          6           0       -5.505490   -0.767652    0.446185
     13          6           0       -6.183891   -2.109053    0.166524
     14          1           0       -4.570458   -0.582659   -1.486931
     15          1           0       -3.556829   -1.349920   -0.268331
     16          1           0       -6.220054    0.049215    0.282652
     17          1           0       -5.207374   -0.716998    1.501257
     18          1           0       -5.490597   -2.936664    0.348199
     19          1           0       -6.509031   -2.166098   -0.877329
     20          1           0       -7.061578   -2.255626    0.803737
     21          6           0        3.172561   -0.054470    0.235605
     22          6           0        2.535881    0.623264    1.449400
     23          6           0        1.020648    0.776444    1.313763
     24          1           0        2.940832    0.529255   -0.665789
     25          1           0        2.714353   -1.043118    0.094128
     26          1           0        2.996127    1.609770    1.589373
     27          1           0        2.769314    0.037961    2.348036
     28          1           0        0.543447   -0.201958    1.197111
     29          1           0        0.771549    1.378782    0.434138
     30          1           0        0.586098    1.263252    2.192424
     31          6           0        4.686982   -0.214743    0.356308
     32          6           0        5.323662   -0.892477   -0.857488
     33          6           0        6.838896   -1.045658   -0.721850
     34          1           0        5.145191    0.773905    0.497786
     35          1           0        4.918712   -0.798468    1.257702
     36          1           0        5.090230   -0.307174   -1.756124
     37          1           0        4.863416   -1.878984   -0.997461
     38          1           0        7.087995   -1.647995    0.157775
     39          1           0        7.316097   -0.067254   -0.605199
     40          1           0        7.273446   -1.532465   -1.600512
 ---------------------------------------------------------------------

 SCF Done:  E(RHF) =  -470.732451935     A.U. after   11 cycles
 E2 =    -0.1583110752D+01 EUMP2 =    -0.47231556268652D+03

 The electronic state is 1-A.
 Alpha  occ. eigenvalues --  -11.21606 -11.21591 -11.21572 -11.21521 -11.21411
 Alpha  occ. eigenvalues --  -11.21358 -11.21352 -11.21295 -11.21074 -11.21051
 Alpha  occ. eigenvalues --  -11.21017 -11.20972  -1.08437  -1.08376  -1.03565
 Alpha  occ. eigenvalues --   -1.03449  -0.96057  -0.95869  -0.87087  -0.86878
 Alpha  occ. eigenvalues --   -0.79633  -0.79515  -0.78247  -0.78193  -0.65087
 Alpha  occ. eigenvalues --   -0.64996  -0.61076  -0.60779  -0.59391  -0.59280
 Alpha  occ. eigenvalues --   -0.57642  -0.57492  -0.55547  -0.55004  -0.52695
 Alpha  occ. eigenvalues --   -0.52666  -0.52354  -0.52327  -0.50179  -0.49595
 Alpha  occ. eigenvalues --   -0.47936  -0.47810  -0.46743  -0.46424  -0.45816
 Alpha  occ. eigenvalues --   -0.45721  -0.45685  -0.45631  -0.43783  -0.43736
 Alpha virt. eigenvalues --    0.21724   0.22966   0.23649   0.24889   0.26072
 Alpha virt. eigenvalues --    0.26631   0.27112   0.27668   0.27739   0.29195
 Alpha virt. eigenvalues --    0.30054   0.31206   0.31578   0.32216   0.32285

 Mulliken charges:
               1
     1  C   -0.298545
     2  C   -0.300958
     3  C   -0.479913
     4  H    0.149362
     5  H    0.150077
     6  H    0.151352
     7  H    0.154478
     8  H    0.161006
     9  H    0.155047
    10  H    0.157910
    11  C   -0.298197
    12  C   -0.299629
    13  C   -0.475662
    14  H    0.149388
    15  H    0.149394
    16  H    0.151883
    17  H    0.151915
    18  H    0.155061
    19  H    0.155130
    20  H    0.160147
    21  C   -0.298335
    22  C   -0.299853
    23  C   -0.481819
    24  H    0.149542
    25  H    0.149263
    26  H    0.151929
    27  H    0.151473
    28  H    0.154325
    29  H    0.165371
    30  H    0.158735
    31  C   -0.298270
    32  C   -0.299649
    33  C   -0.475710
    34  H    0.149584
    35  H    0.149673
    36  H    0.151944
    37  H    0.151897
    38  H    0.155175
    39  H    0.155207
    40  H    0.160269
 Sum of Mulliken charges =  -0.00000

 Dipole moment (field-independent basis, Debye):
    X=              0.0125    Y=              0.0138    Z=              0.0054  Tot=              0.0194
 Quadrupole moment (field-independent basis, Debye-Ang):
   XX=            -86.1334   YY=            -84.6704   ZZ=            -84.1844
   XY=             -0.4738   XZ=              0.2972   YZ=             -0.7752

 Normal termination of Gaussian 16 at Thu May  6 05:14:48 2021.
