 Gaussian 16, Revision A.03,
 Gaussian 16:  EM64L-G16RevA.03 25-Dec-2016

 -------------
 #p 6-31g* mp2
 -------------

 ------------------------------------------------------
 Input file generated by CHIRIPA (05-May-2021 14:55:24)
 ------------------------------------------------------
 Symbolic Z-matrix:
 Charge =  0 Multiplicity = 1

                         Standard orientation:
 ---------------------------------------------------------------------
 Center     Atomic      Atomic             Coordinates (Angstroms)
 Number     Number       Type             X           Y           Z
 ---------------------------------------------------------------------
      1          6           0       -1.350845    2.273353    0.199582
      2          6           0       -1.299187    1.250934    1.152741
      3          6           0       -2.218892    0.198640    1.115765
      4          6           0       -3.181272    0.200360    0.107246
      5          6           0       -3.258538    1.204489   -0.856624
      6          6           0       -2.328632    2.246914   -0.800295
      7          1           0       -0.632434    3.086967    0.235822
      8          1           0       -0.540917    1.268872    1.930398
      9          1           0       -2.201663   -0.605706    1.841127
     10          1           0       -4.025932    1.159260   -1.619827
     11          1           0       -2.371137    3.039594   -1.541846
     12          7           0       -4.160323   -0.908432    0.057858
     13          8           0       -4.998461   -0.883827   -0.840783
     14          8           0       -4.071025   -1.781114    0.918723
     15          6           0        4.592228   -0.467897   -0.381738
     16          6           0        5.479243    0.431337    0.479986
     17          6           0        6.930257    0.465959   -0.000801
     18          1           0        5.004186   -1.486344   -0.382376
     19          1           0        4.626429   -0.116239   -1.422200
     20          1           0        5.442289    0.078925    1.518762
     21          1           0        5.065019    1.447719    0.478727
     22          1           0        6.986696    0.838383   -1.028768
     23          1           0        7.366109   -0.538188    0.017176
     24          1           0        7.546625    1.114667    0.629380
     25          6           0        3.138749   -0.512846    0.086350
     26          6           0        2.251734   -1.412080   -0.775373
     27          6           0        0.800721   -1.446702   -0.294587
     28          1           0        3.104549   -0.864503    1.126813
     29          1           0        2.726792    0.505601    0.086989
     30          1           0        2.665959   -2.428462   -0.774115
     31          1           0        2.288688   -1.059669   -1.814150
     32          1           0        0.364868   -0.442555   -0.312563
     33          1           0        0.744281   -1.819126    0.733380
     34          1           0        0.184353   -2.095410   -0.924768
 ---------------------------------------------------------------------

 SCF Done:  E(RHF) =  -669.534397353     A.U. after   15 cycles
 E2 =    -0.2092806494D+01 EUMP2 =    -0.67162720384721D+03

 The electronic state is 1-A.
 Alpha  occ. eigenvalues --  -20.60768 -20.60763 -15.85821 -11.31205 -11.27768
 Alpha  occ. eigenvalues --  -11.27744 -11.27525 -11.26810 -11.26759 -11.21995
 Alpha  occ. eigenvalues --  -11.21855 -11.21799 -11.21728 -11.21399 -11.21133
 Alpha  occ. eigenvalues --   -1.59842  -1.39395  -1.19389  -1.08797  -1.08768
 Alpha  occ. eigenvalues --   -1.04798  -1.03823  -0.96276  -0.95607  -0.87297
 Alpha  occ. eigenvalues --   -0.86185  -0.82438  -0.79903  -0.78620  -0.77475
 Alpha  occ. eigenvalues --   -0.72040  -0.71164  -0.70489  -0.65420  -0.65035
 Alpha  occ. eigenvalues --   -0.64788  -0.62130  -0.61236  -0.59643  -0.57916
 Alpha  occ. eigenvalues --   -0.55632  -0.55291  -0.53442  -0.52932  -0.52860
 Alpha  occ. eigenvalues --   -0.52443  -0.50176  -0.48801  -0.48793  -0.48198
 Alpha  occ. eigenvalues --   -0.46927  -0.46150  -0.46085  -0.44795  -0.44096
 Alpha  occ. eigenvalues --   -0.37369  -0.36276
 Alpha virt. eigenvalues --    0.05048   0.11173   0.16522   0.21060   0.22612
 Alpha virt. eigenvalues --    0.24070   0.26149   0.26620   0.27292   0.28144
 Alpha virt. eigenvalues --    0.28511   0.30842   0.31110   0.31681   0.31811

 Mulliken charges:
               1
     1  C   -0.171921
     2  C   -0.221039
     3  C   -0.165384
     4  C    0.159162
     5  C   -0.171319
     6  C   -0.218036
     7  H    0.225683
     8  H    0.225079
     9  H    0.276069
    10  H    0.275671
    11  H    0.223543
    12  N    0.488058
    13  O   -0.460505
    14  O   -0.460083
    15  C   -0.298210
    16  C   -0.299439
    17  C   -0.475815
    18  H    0.151758
    19  H    0.149925
    20  H    0.151897
    21  H    0.149152
    22  H    0.155473
    23  H    0.156527
    24  H    0.160517
    25  C   -0.297168
    26  C   -0.299644
    27  C   -0.482937
    28  H    0.148226
    29  H    0.142778
    30  H    0.153535
    31  H    0.151872
    32  H    0.162726
    33  H    0.149626
    34  H    0.164225
 Sum of Mulliken charges =  -0.00000

 Dipole moment (field-independent basis, Debye):
    X=              3.4130    Y=              3.8899    Z=              0.1586  Tot=              5.1773
 Quadrupole moment (field-independent basis, Debye-Ang):
   XX=           -117.4989   YY=            -92.3111   ZZ=            -91.4330
   XY=            -13.1906   XZ=              2.0912   YZ=             -1.9016

 Normal termination of Gaussian 16 at Wed May  5 17:35:52 2021.
