 Gaussian 16, Revision A.03,
 Gaussian 16:  EM64L-G16RevA.03 25-Dec-2016

 -------------
 #p 6-31g* mp2
 -------------

 ------------------------------------------------------
 Input file generated by CHIRIPA (05-May-2021 14:53:13)
 ------------------------------------------------------
 Symbolic Z-matrix:
 Charge =  0 Multiplicity = 1

                         Standard orientation:
 ---------------------------------------------------------------------
 Center     Atomic      Atomic             Coordinates (Angstroms)
 Number     Number       Type             X           Y           Z
 ---------------------------------------------------------------------
      1          6           0        3.436908    0.959866   -0.422357
      2          6           0        3.367457    2.078759    0.617470
      3          6           0        3.324525    3.470657   -0.013854
      4          1           0        4.326035    1.106617   -1.050738
      5          1           0        2.566948    1.034246   -1.089464
      6          1           0        4.236566    2.001451    1.283270
      7          1           0        2.478497    1.929219    1.243572
      8          1           0        2.449044    3.572249   -0.663326
      9          1           0        4.217102    3.644892   -0.623402
     10          1           0        3.275091    4.255431    0.747425
     11          6           0        3.480419   -0.437532    0.193365
     12          6           0        3.549870   -1.556425   -0.846462
     13          6           0        3.592802   -2.948324   -0.215137
     14          1           0        4.350379   -0.511913    0.860473
     15          1           0        2.591292   -0.584284    0.821747
     16          1           0        4.438830   -1.406886   -1.472563
     17          1           0        2.680761   -1.479118   -1.512262
     18          1           0        2.700225   -3.122559    0.394410
     19          1           0        4.468283   -3.049916    0.434334
     20          1           0        3.642236   -3.733098   -0.976417
     21          6           0       -0.507184   -1.146378    0.902065
     22          6           0       -0.726514   -0.963856   -0.467278
     23          6           0       -1.938812   -0.442500   -0.928871
     24          6           0       -2.914275   -0.112934    0.010889
     25          6           0       -2.725774   -0.283097    1.381584
     26          6           0       -1.505754   -0.806016    1.820506
     27          1           0        0.437558   -1.551987    1.251838
     28          1           0        0.047191   -1.227302   -1.182835
     29          1           0       -2.135101   -0.290883   -1.983338
     30          1           0       -3.515985   -0.011177    2.070820
     31          1           0       -1.338196   -0.946685    2.884547
     32          7           0       -4.201769    0.439829   -0.465779
     33          8           0       -5.045161    0.722323    0.382469
     34          8           0       -4.343137    0.580125   -1.678615
 ---------------------------------------------------------------------

 SCF Done:  E(RHF) =  -669.535184476     A.U. after   15 cycles
 E2 =    -0.2092636977D+01 EUMP2 =    -0.67162782145286D+03

 The electronic state is 1-A.
 Alpha  occ. eigenvalues --  -20.60783 -20.60778 -15.85837 -11.31216 -11.27783
 Alpha  occ. eigenvalues --  -11.27779 -11.27509 -11.26800 -11.26790 -11.22768
 Alpha  occ. eigenvalues --  -11.22462 -11.22237 -11.22221 -11.22166 -11.21527
 Alpha  occ. eigenvalues --   -1.59858  -1.39411  -1.19388  -1.09370  -1.08777
 Alpha  occ. eigenvalues --   -1.04792  -1.04398  -0.96837  -0.95615  -0.87850
 Alpha  occ. eigenvalues --   -0.86188  -0.82452  -0.80486  -0.79149  -0.77491
 Alpha  occ. eigenvalues --   -0.72055  -0.71181  -0.70538  -0.66075  -0.65032
 Alpha  occ. eigenvalues --   -0.64741  -0.62173  -0.61747  -0.60225  -0.58438
 Alpha  occ. eigenvalues --   -0.56157  -0.55316  -0.53509  -0.53261  -0.53102
 Alpha  occ. eigenvalues --   -0.52885  -0.50791  -0.48822  -0.48811  -0.48778
 Alpha  occ. eigenvalues --   -0.47531  -0.46672  -0.46574  -0.44814  -0.44652
 Alpha  occ. eigenvalues --   -0.37356  -0.36393
 Alpha virt. eigenvalues --    0.05014   0.11197   0.16413   0.17878   0.22822
 Alpha virt. eigenvalues --    0.23846   0.23996   0.25342   0.27176   0.28335
 Alpha virt. eigenvalues --    0.29249   0.29786   0.30917   0.31615   0.31746

 Mulliken charges:
               1
     1  C   -0.298086
     2  C   -0.300444
     3  C   -0.476435
     4  H    0.152713
     5  H    0.148965
     6  H    0.152631
     7  H    0.152279
     8  H    0.157405
     9  H    0.156082
    10  H    0.162482
    11  C   -0.301985
    12  C   -0.303647
    13  C   -0.476517
    14  H    0.153966
    15  H    0.142301
    16  H    0.158857
    17  H    0.146329
    18  H    0.147317
    19  H    0.160246
    20  H    0.165152
    21  C   -0.175901
    22  C   -0.223564
    23  C   -0.171697
    24  C    0.158868
    25  C   -0.170764
    26  C   -0.219488
    27  H    0.231371
    28  H    0.228550
    29  H    0.275987
    30  H    0.275704
    31  H    0.223955
    32  N    0.487993
    33  O   -0.460302
    34  O   -0.460321
 Sum of Mulliken charges =  -0.00000

 Dipole moment (field-independent basis, Debye):
    X=              4.7191    Y=             -1.8746    Z=              1.6570  Tot=              5.3413
 Quadrupole moment (field-independent basis, Debye-Ang):
   XX=           -119.3440   YY=            -95.9350   ZZ=            -90.3807
   XY=              5.1238   XZ=             -6.7691   YZ=              0.5113

 Normal termination of Gaussian 16 at Thu May  6 13:42:47 2021.
