 Gaussian 16, Revision A.03,
 Gaussian 16:  EM64L-G16RevA.03 25-Dec-2016

 -------------
 #p 6-31g* mp2
 -------------

 ------------------------------------------------------
 Input file generated by CHIRIPA (05-May-2021 14:51:14)
 ------------------------------------------------------
 Symbolic Z-matrix:
 Charge =  0 Multiplicity = 1

                         Standard orientation:
 ---------------------------------------------------------------------
 Center     Atomic      Atomic             Coordinates (Angstroms)
 Number     Number       Type             X           Y           Z
 ---------------------------------------------------------------------
      1          6           0        3.843577    0.056791   -0.162910
      2          6           0        5.292805   -0.417823   -0.274548
      3          6           0        6.212071    0.631758   -0.899948
      4          1           0        3.473150    0.321722   -1.162680
      5          1           0        3.811658    0.977286    0.436310
      6          1           0        5.321820   -1.337912   -0.872220
      7          1           0        5.659763   -0.681837    0.725579
      8          1           0        6.212837    1.548706   -0.301778
      9          1           0        5.872974    0.888904   -1.908655
     10          1           0        7.243208    0.271641   -0.970171
     11          6           0        2.912372   -0.981519    0.460387
     12          6           0        1.463144   -0.506906    0.572025
     13          6           0        0.543878   -1.556487    1.197425
     14          1           0        2.944291   -1.902014   -0.138834
     15          1           0        3.282799   -1.246451    1.460157
     16          1           0        1.096186   -0.242892   -0.428102
     17          1           0        1.434129    0.413183    1.169697
     18          1           0        0.882975   -1.813633    2.206132
     19          1           0        0.543112   -2.473435    0.599255
     20          1           0       -0.487259   -1.196370    1.267648
     21          6           0       -3.504974   -0.259364    0.066692
     22          6           0       -4.400074   -1.032778   -0.902128
     23          6           0       -4.644939   -2.475051   -0.457514
     24          1           0       -2.543897   -0.782442    0.165012
     25          1           0       -3.966430   -0.263296    1.063907
     26          1           0       -3.937748   -1.026208   -1.897531
     27          1           0       -5.359060   -0.507694   -0.998302
     28          1           0       -5.128043   -2.498651    0.524654
     29          1           0       -3.698656   -3.020112   -0.379685
     30          1           0       -5.287171   -3.009538   -1.164423
     31          6           0       -3.250975    1.184094   -0.364168
     32          6           0       -2.355875    1.957506    0.604651
     33          6           0       -2.111010    3.399780    0.160036
     34          1           0       -2.789520    1.188025   -1.361385
     35          1           0       -4.212051    1.707171   -0.462490
     36          1           0       -1.396888    1.432423    0.700825
     37          1           0       -2.818201    1.950938    1.600055
     38          1           0       -3.057293    3.944841    0.082208
     39          1           0       -1.627905    3.423381   -0.822131
     40          1           0       -1.468778    3.934267    0.866947
 ---------------------------------------------------------------------

 SCF Done:  E(RHF) =  -470.733200210     A.U. after   11 cycles
 E2 =    -0.1583247714D+01 EUMP2 =    -0.47231644792410D+03

 The electronic state is 1-A.
 Alpha  occ. eigenvalues --  -11.21663 -11.21623 -11.21592 -11.21577 -11.21441
 Alpha  occ. eigenvalues --  -11.21390 -11.21380 -11.21330 -11.21090 -11.21088
 Alpha  occ. eigenvalues --  -11.21056 -11.21053  -1.08473  -1.08416  -1.03570
 Alpha  occ. eigenvalues --   -1.03512  -0.96022  -0.95959  -0.87038  -0.86975
 Alpha  occ. eigenvalues --   -0.79657  -0.79554  -0.78290  -0.78235  -0.65106
 Alpha  occ. eigenvalues --   -0.65064  -0.60972  -0.60903  -0.59412  -0.59321
 Alpha  occ. eigenvalues --   -0.57675  -0.57540  -0.55314  -0.55239  -0.52781
 Alpha  occ. eigenvalues --   -0.52636  -0.52458  -0.52348  -0.49958  -0.49902
 Alpha  occ. eigenvalues --   -0.48002  -0.47854  -0.46668  -0.46612  -0.45824
 Alpha  occ. eigenvalues --   -0.45762  -0.45743  -0.45657  -0.43798  -0.43742
 Alpha virt. eigenvalues --    0.20705   0.23121   0.23841   0.24251   0.26117
 Alpha virt. eigenvalues --    0.26555   0.27010   0.27462   0.27912   0.29383
 Alpha virt. eigenvalues --    0.30384   0.31340   0.31666   0.31859   0.32100

 Mulliken charges:
               1
     1  C   -0.298335
     2  C   -0.299687
     3  C   -0.475726
     4  H    0.149573
     5  H    0.149693
     6  H    0.151951
     7  H    0.152029
     8  H    0.155264
     9  H    0.155186
    10  H    0.160337
    11  C   -0.298545
    12  C   -0.300155
    13  C   -0.484806
    14  H    0.149638
    15  H    0.149997
    16  H    0.151440
    17  H    0.152701
    18  H    0.155852
    19  H    0.154722
    20  H    0.168610
    21  C   -0.306622
    22  C   -0.298952
    23  C   -0.475878
    24  H    0.157545
    25  H    0.149222
    26  H    0.151698
    27  H    0.151948
    28  H    0.155193
    29  H    0.155545
    30  H    0.160137
    31  C   -0.297517
    32  C   -0.305646
    33  C   -0.475352
    34  H    0.149144
    35  H    0.149678
    36  H    0.158130
    37  H    0.151583
    38  H    0.155110
    39  H    0.155223
    40  H    0.160072
 Sum of Mulliken charges =  -0.00000

 Dipole moment (field-independent basis, Debye):
    X=              0.0177    Y=             -0.0054    Z=              0.0092  Tot=              0.0206
 Quadrupole moment (field-independent basis, Debye-Ang):
   XX=            -84.7846   YY=            -86.1451   ZZ=            -83.8490
   XY=             -0.9491   XZ=              0.1467   YZ=              1.0001

 Normal termination of Gaussian 16 at Wed May  5 16:54:04 2021.
