 Gaussian 16, Revision A.03,
 Gaussian 16:  EM64L-G16RevA.03 25-Dec-2016

 -------------
 #p 6-31g* mp2
 -------------

 ------------------------------------------------------
 Input file generated by CHIRIPA (05-May-2021 14:51:12)
 ------------------------------------------------------
 Symbolic Z-matrix:
 Charge =  0 Multiplicity = 1

                         Standard orientation:
 ---------------------------------------------------------------------
 Center     Atomic      Atomic             Coordinates (Angstroms)
 Number     Number       Type             X           Y           Z
 ---------------------------------------------------------------------
      1          6           0        3.010953   -0.572934   -0.682530
      2          6           0        3.600878   -1.702333    0.162712
      3          6           0        3.508699   -3.065089   -0.524450
      4          1           0        1.960094   -0.801790   -0.906728
      5          1           0        3.535169   -0.534260   -1.647463
      6          1           0        3.076634   -1.737973    1.126306
      7          1           0        4.650400   -1.470669    0.385085
      8          1           0        4.047614   -3.053272   -1.477357
      9          1           0        2.464906   -3.322095   -0.731925
     10          1           0        3.936178   -3.857933    0.097257
     11          6           0        3.095730    0.795604   -0.008998
     12          6           0        2.505806    1.925002   -0.854239
     13          6           0        2.597985    3.287759   -0.167078
     14          1           0        2.571515    0.756929    0.955936
     15          1           0        4.146590    1.024460    0.215200
     16          1           0        1.456283    1.693339   -1.076613
     17          1           0        3.030049    1.960643   -1.817834
     18          1           0        3.641778    3.544764    0.040397
     19          1           0        2.059070    3.275941    0.785830
     20          1           0        2.170505    4.080602   -0.788785
     21          6           0       -2.290220   -0.081205    0.332747
     22          6           0       -1.660579   -0.054660    1.725885
     23          6           0       -0.133376    0.005617    1.683325
     24          1           0       -1.902958   -0.947261   -0.221258
     25          1           0       -1.972941    0.812348   -0.222493
     26          1           0       -1.980062   -0.947302    2.278819
     27          1           0       -2.049531    0.811324    2.276705
     28          1           0        0.202132    0.903926    1.155050
     29          1           0        0.271997   -0.864693    1.157174
     30          1           0        0.295892    0.023783    2.689933
     31          6           0       -3.816463   -0.141464    0.358781
     32          6           0       -4.446104   -0.168010   -1.034357
     33          6           0       -5.973307   -0.228286   -0.991797
     34          1           0       -4.133742   -1.035018    0.914020
     35          1           0       -4.203726    0.724591    0.912786
     36          1           0       -4.057153   -1.033994   -1.585178
     37          1           0       -4.126623    0.724633   -1.587291
     38          1           0       -6.378681    0.642023   -0.465647
     39          1           0       -6.308817   -1.126596   -0.463522
     40          1           0       -6.402575   -0.246453   -1.998406
 ---------------------------------------------------------------------

 SCF Done:  E(RHF) =  -470.732282798     A.U. after   11 cycles
 E2 =    -0.1584457853D+01 EUMP2 =    -0.47231674065057D+03

 The electronic state is 1-A.
 Alpha  occ. eigenvalues --  -11.21678 -11.21641 -11.21541 -11.21532 -11.21477
 Alpha  occ. eigenvalues --  -11.21411 -11.21279 -11.21183 -11.21173 -11.21100
 Alpha  occ. eigenvalues --  -11.21057 -11.21042  -1.08509  -1.08337  -1.03606
 Alpha  occ. eigenvalues --   -1.03477  -0.96087  -0.95898  -0.87102  -0.86931
 Alpha  occ. eigenvalues --   -0.79694  -0.79529  -0.78316  -0.78146  -0.65143
 Alpha  occ. eigenvalues --   -0.65013  -0.61206  -0.60717  -0.59426  -0.59289
 Alpha  occ. eigenvalues --   -0.57655  -0.57532  -0.55352  -0.55226  -0.52770
 Alpha  occ. eigenvalues --   -0.52623  -0.52480  -0.52312  -0.50170  -0.49708
 Alpha  occ. eigenvalues --   -0.48007  -0.47844  -0.46678  -0.46572  -0.45967
 Alpha  occ. eigenvalues --   -0.45780  -0.45616  -0.45485  -0.43832  -0.43707
 Alpha virt. eigenvalues --    0.20374   0.22857   0.23140   0.24669   0.26115
 Alpha virt. eigenvalues --    0.26558   0.26778   0.27774   0.28099   0.29731
 Alpha virt. eigenvalues --    0.30288   0.31263   0.31708   0.31807   0.32337

 Mulliken charges:
               1
     1  C   -0.299151
     2  C   -0.301693
     3  C   -0.475414
     4  H    0.150556
     5  H    0.149167
     6  H    0.153412
     7  H    0.151896
     8  H    0.155233
     9  H    0.154097
    10  H    0.160046
    11  C   -0.303643
    12  C   -0.301998
    13  C   -0.476786
    14  H    0.158950
    15  H    0.148942
    16  H    0.151957
    17  H    0.152342
    18  H    0.155611
    19  H    0.155056
    20  H    0.159904
    21  C   -0.298759
    22  C   -0.300634
    23  C   -0.483541
    24  H    0.149286
    25  H    0.149507
    26  H    0.152162
    27  H    0.152291
    28  H    0.160890
    29  H    0.159109
    30  H    0.160277
    31  C   -0.298296
    32  C   -0.299729
    33  C   -0.475764
    34  H    0.149759
    35  H    0.149903
    36  H    0.152029
    37  H    0.152075
    38  H    0.155264
    39  H    0.155248
    40  H    0.160439
 Sum of Mulliken charges =  -0.00000

 Dipole moment (field-independent basis, Debye):
    X=             -0.0382    Y=              0.0020    Z=              0.0328  Tot=              0.0504
 Quadrupole moment (field-independent basis, Debye-Ang):
   XX=            -85.2345   YY=            -84.9183   ZZ=            -84.7677
   XY=              0.0704   XZ=             -0.4644   YZ=             -0.4451

 Normal termination of Gaussian 16 at Thu May  6 03:55:31 2021.
