 Gaussian 16, Revision A.03,
 Gaussian 16:  EM64L-G16RevA.03 25-Dec-2016

 -------------
 #p 6-31g* mp2
 -------------

 ------------------------------------------------------
 Input file generated by CHIRIPA (05-May-2021 14:57:25)
 ------------------------------------------------------
 Symbolic Z-matrix:
 Charge =  0 Multiplicity = 1

                         Standard orientation:
 ---------------------------------------------------------------------
 Center     Atomic      Atomic             Coordinates (Angstroms)
 Number     Number       Type             X           Y           Z
 ---------------------------------------------------------------------
      1          6           0        3.937840    0.638500   -2.040772
      2          6           0        3.644237    1.604143   -1.072344
      3          6           0        3.029457    1.240429    0.129449
      4          6           0        2.720752   -0.104007    0.330657
      5          6           0        3.000578   -1.089399   -0.614854
      6          6           0        3.615641   -0.702824   -1.809344
      7          1           0        4.415526    0.929920   -2.971516
      8          1           0        3.893322    2.646576   -1.249358
      9          1           0        2.790955    1.967440    0.896253
     10          1           0        2.740280   -2.120712   -0.409776
     11          1           0        3.842482   -1.454910   -2.559647
     12          7           0        2.069762   -0.501155    1.599075
     13          8           0        1.807921   -1.692220    1.752175
     14          8           0        1.833684    0.386146    2.416144
     15          6           0       -2.923095    2.531673    0.254206
     16          6           0       -1.976063    1.757157    0.932274
     17          6           0       -1.914273    0.374934    0.731795
     18          6           0       -2.818854   -0.202474   -0.157938
     19          6           0       -3.773841    0.542231   -0.848375
     20          6           0       -3.817385    1.922812   -0.632392
     21          1           0       -2.964008    3.604778    0.415965
     22          1           0       -1.280290    2.227304    1.621408
     23          1           0       -1.191204   -0.248462    1.243618
     24          1           0       -4.454190    0.045093   -1.529108
     25          1           0       -4.553920    2.521818   -1.160362
     26          7           0       -2.763098   -1.664901   -0.378384
     27          8           0       -3.571206   -2.149561   -1.167500
     28          8           0       -1.912344   -2.298802    0.242121
 ---------------------------------------------------------------------

 SCF Done:  E(RHF) =  -868.338647915     A.U. after   16 cycles
 E2 =    -0.2599828786D+01 EUMP2 =    -0.87093847670153D+03

 The electronic state is 1-A.
 Alpha  occ. eigenvalues --  -20.61174 -20.61048 -20.60273 -20.60233 -15.86131
 Alpha  occ. eigenvalues --  -15.85303 -11.31362 -11.30684 -11.27982 -11.27849
 Alpha  occ. eigenvalues --  -11.27646 -11.27309 -11.27141 -11.27041 -11.26943
 Alpha  occ. eigenvalues --  -11.26854 -11.26347 -11.26198  -1.60192  -1.59340
 Alpha  occ. eigenvalues --   -1.39737  -1.38886  -1.19528  -1.18866  -1.08953
 Alpha  occ. eigenvalues --   -1.08273  -1.04906  -1.04252  -0.95805  -0.95096
 Alpha  occ. eigenvalues --   -0.86312  -0.85658  -0.82634  -0.81906  -0.77701
 Alpha  occ. eigenvalues --   -0.76943  -0.72337  -0.71596  -0.71456  -0.70672
 Alpha  occ. eigenvalues --   -0.70634  -0.69966  -0.65180  -0.64908  -0.64509
 Alpha  occ. eigenvalues --   -0.64243  -0.62251  -0.61566  -0.55419  -0.54790
 Alpha  occ. eigenvalues --   -0.53247  -0.52995  -0.52615  -0.52325  -0.49127
 Alpha  occ. eigenvalues --   -0.49088  -0.48298  -0.48265  -0.45156  -0.44288
 Alpha  occ. eigenvalues --   -0.37509  -0.36886  -0.36500  -0.35866
 Alpha virt. eigenvalues --    0.04785   0.05555   0.11151   0.11771   0.16299
 Alpha virt. eigenvalues --    0.17036   0.21221   0.21958   0.27098   0.27571
 Alpha virt. eigenvalues --    0.28415   0.28724   0.30926   0.31391   0.32418

 Mulliken charges:
               1
     1  C   -0.170152
     2  C   -0.218579
     3  C   -0.171975
     4  C    0.156655
     5  C   -0.168496
     6  C   -0.218655
     7  H    0.226334
     8  H    0.222416
     9  H    0.271257
    10  H    0.281873
    11  H    0.226156
    12  N    0.484865
    13  O   -0.448069
    14  O   -0.471071
    15  C   -0.171847
    16  C   -0.221988
    17  C   -0.178947
    18  C    0.157874
    19  C   -0.172046
    20  C   -0.219148
    21  H    0.222974
    22  H    0.230265
    23  H    0.288651
    24  H    0.273502
    25  H    0.220780
    26  N    0.486557
    27  O   -0.464751
    28  O   -0.454434
 Sum of Mulliken charges =  -0.00000

 Dipole moment (field-independent basis, Debye):
    X=              2.3472    Y=              6.2941    Z=             -3.6753  Tot=              7.6572
 Quadrupole moment (field-independent basis, Debye-Ang):
   XX=            -89.8823   YY=           -103.2157   ZZ=           -106.5914
   XY=            -11.5757   XZ=            -11.5315   YZ=              1.2178

 Normal termination of Gaussian 16 at Thu May  6 21:19:53 2021.
