 Gaussian 16, Revision A.03,
 Gaussian 16:  EM64L-G16RevA.03 25-Dec-2016

 -------------
 #p 6-31g* mp2
 -------------

 ------------------------------------------------------
 Input file generated by CHIRIPA (05-May-2021 14:55:23)
 ------------------------------------------------------
 Symbolic Z-matrix:
 Charge =  0 Multiplicity = 1

                         Standard orientation:
 ---------------------------------------------------------------------
 Center     Atomic      Atomic             Coordinates (Angstroms)
 Number     Number       Type             X           Y           Z
 ---------------------------------------------------------------------
      1          6           0       -3.707446    0.750035   -1.848180
      2          6           0       -2.309048    0.778829   -1.835018
      3          6           0       -1.597717    0.233161   -0.762264
      4          6           0       -2.320083   -0.335934    0.285404
      5          6           0       -3.713317   -0.379902    0.301364
      6          6           0       -4.403890    0.171781   -0.781827
      7          1           0       -4.251963    1.176260   -2.685575
      8          1           0       -1.765546    1.227259   -2.661797
      9          1           0       -0.515101    0.241970   -0.726421
     10          1           0       -4.227349   -0.833774    1.139928
     11          1           0       -5.489903    0.148006   -0.789360
     12          7           0       -1.578016   -0.916792    1.426605
     13          8           0       -2.237856   -1.412379    2.337452
     14          8           0       -0.350595   -0.865484    1.388623
     15          6           0        2.825261    0.999727   -0.241188
     16          6           0        2.829948    1.881270    1.008150
     17          6           0        2.224613    3.263029    0.758943
     18          1           0        3.381501    1.506336   -1.041744
     19          1           0        1.792457    0.889363   -0.599699
     20          1           0        3.862282    1.988803    1.364997
     21          1           0        2.273795    1.372417    1.805884
     22          1           0        1.185862    3.173977    0.424774
     23          1           0        2.783375    3.793864   -0.018617
     24          1           0        2.238049    3.876595    1.665153
     25          6           0        3.427243   -0.384811   -0.007951
     26          6           0        3.422555   -1.266354   -1.257290
     27          6           0        4.027891   -2.648113   -1.008083
     28          1           0        4.460047   -0.274447    0.350559
     29          1           0        2.871003   -0.891419    0.792604
     30          1           0        3.978708   -0.757502   -2.055023
     31          1           0        2.390222   -1.373887   -1.614137
     32          1           0        3.469128   -3.178947   -0.230522
     33          1           0        5.066640   -2.559060   -0.673913
     34          1           0        4.014455   -3.261679   -1.914293
 ---------------------------------------------------------------------

 SCF Done:  E(RHF) =  -669.536014526     A.U. after   15 cycles
 E2 =    -0.2092250570D+01 EUMP2 =    -0.67162826509593D+03

 The electronic state is 1-A.
 Alpha  occ. eigenvalues --  -20.60931 -20.60918 -15.85970 -11.31274 -11.27835
 Alpha  occ. eigenvalues --  -11.27824 -11.27569 -11.26843 -11.26829 -11.21236
 Alpha  occ. eigenvalues --  -11.21155 -11.21089 -11.20837 -11.20767 -11.20641
 Alpha  occ. eigenvalues --   -1.59992  -1.39548  -1.19441  -1.08848  -1.08002
 Alpha  occ. eigenvalues --   -1.04837  -1.03133  -0.95699  -0.95594  -0.86618
 Alpha  occ. eigenvalues --   -0.86239  -0.82527  -0.79199  -0.77847  -0.77575
 Alpha  occ. eigenvalues --   -0.72197  -0.71307  -0.70557  -0.65106  -0.64910
 Alpha  occ. eigenvalues --   -0.64541  -0.62183  -0.60512  -0.58972  -0.57217
 Alpha  occ. eigenvalues --   -0.55351  -0.54877  -0.53168  -0.52938  -0.52303
 Alpha  occ. eigenvalues --   -0.52031  -0.49530  -0.48948  -0.48941  -0.47529
 Alpha  occ. eigenvalues --   -0.46210  -0.45406  -0.45221  -0.44957  -0.43386
 Alpha  occ. eigenvalues --   -0.37419  -0.36436
 Alpha virt. eigenvalues --    0.04930   0.11196   0.16439   0.19731   0.22982
 Alpha virt. eigenvalues --    0.24631   0.25364   0.27468   0.27881   0.28267
 Alpha virt. eigenvalues --    0.29638   0.31353   0.31643   0.32139   0.32380

 Mulliken charges:
               1
     1  C   -0.170260
     2  C   -0.223178
     3  C   -0.180495
     4  C    0.155887
     5  C   -0.169514
     6  C   -0.219078
     7  H    0.226098
     8  H    0.224676
     9  H    0.292785
    10  H    0.275810
    11  H    0.223806
    12  N    0.488615
    13  O   -0.458917
    14  O   -0.465115
    15  C   -0.297708
    16  C   -0.303232
    17  C   -0.474940
    18  H    0.145618
    19  H    0.140697
    20  H    0.150885
    21  H    0.167435
    22  H    0.149828
    23  H    0.151998
    24  H    0.161152
    25  C   -0.303199
    26  C   -0.298027
    27  C   -0.476418
    28  H    0.147416
    29  H    0.169968
    30  H    0.147799
    31  H    0.146931
    32  H    0.161052
    33  H    0.154360
    34  H    0.157262
 Sum of Mulliken charges =  -0.00000

 Dipole moment (field-independent basis, Debye):
    X=             -2.6885    Y=              1.9325    Z=             -3.8128  Tot=              5.0498
 Quadrupole moment (field-independent basis, Debye-Ang):
   XX=            -78.3027   YY=            -97.8429   ZZ=            -96.5878
   XY=             -2.1894   XZ=              6.9893   YZ=              1.1095

 Normal termination of Gaussian 16 at Thu May  6 20:51:28 2021.
