 Gaussian 16, Revision A.03,
 Gaussian 16:  EM64L-G16RevA.03 25-Dec-2016

 -------------
 #p 6-31g* mp2
 -------------

 ------------------------------------------------------
 Input file generated by CHIRIPA (05-May-2021 14:51:12)
 ------------------------------------------------------
 Symbolic Z-matrix:
 Charge =  0 Multiplicity = 1

                         Standard orientation:
 ---------------------------------------------------------------------
 Center     Atomic      Atomic             Coordinates (Angstroms)
 Number     Number       Type             X           Y           Z
 ---------------------------------------------------------------------
      1          6           0        3.765144    1.019306    0.051430
      2          6           0        2.246939    0.838261    0.067601
      3          6           0        1.496362    2.156732    0.257501
      4          1           0        4.081812    1.491007    0.991730
      5          1           0        4.035807    1.715715   -0.754269
      6          1           0        1.979340    0.141326    0.872144
      7          1           0        1.933870    0.366761   -0.872766
      8          1           0        1.734337    2.855412   -0.551087
      9          1           0        1.780065    2.628697    1.203737
     10          1           0        0.412620    2.004118    0.266024
     11          6           0        4.529387   -0.289862   -0.137624
     12          6           0        6.047592   -0.108817   -0.153796
     13          6           0        6.798169   -1.427288   -0.343695
     14          1           0        4.258724   -0.986271    0.668075
     15          1           0        4.212718   -0.761563   -1.077924
     16          1           0        6.360660    0.362683    0.786572
     17          1           0        6.315191    0.588118   -0.958338
     18          1           0        6.514466   -1.899252   -1.289932
     19          1           0        6.560194   -2.125968    0.464893
     20          1           0        7.881911   -1.274674   -0.352219
     21          6           0       -3.414075   -0.151213    0.026440
     22          6           0       -2.453867   -1.242242    0.501457
     23          6           0       -0.990742   -0.800054    0.462374
     24          1           0       -3.145989    0.144027   -0.997233
     25          1           0       -3.282954    0.741413    0.653673
     26          1           0       -2.587736   -2.133021   -0.125607
     27          1           0       -2.724389   -1.535056    1.524049
     28          1           0       -0.835362    0.074450    1.102454
     29          1           0       -0.697932   -0.526914   -0.556575
     30          1           0       -0.321727   -1.595163    0.806004
     31          6           0       -4.880456   -0.578231    0.059755
     32          6           0       -5.840663    0.512798   -0.415262
     33          6           0       -7.303789    0.070609   -0.376180
     34          1           0       -5.011576   -1.470857   -0.567478
     35          1           0       -5.148542   -0.873472    1.083428
     36          1           0       -5.570142    0.805611   -1.437854
     37          1           0       -5.706795    1.403577    0.211801
     38          1           0       -7.596599   -0.202531    0.642769
     39          1           0       -7.459169   -0.803895   -1.016260
     40          1           0       -7.972804    0.865718   -0.719810
 ---------------------------------------------------------------------

 SCF Done:  E(RHF) =  -470.732463025     A.U. after   11 cycles
 E2 =    -0.1583311881D+01 EUMP2 =    -0.47231577490551D+03

 The electronic state is 1-A.
 Alpha  occ. eigenvalues --  -11.21602 -11.21577 -11.21560 -11.21451 -11.21409
 Alpha  occ. eigenvalues --  -11.21350 -11.21336 -11.21267 -11.21072 -11.21042
 Alpha  occ. eigenvalues --  -11.21027 -11.20927  -1.08436  -1.08350  -1.03566
 Alpha  occ. eigenvalues --   -1.03414  -0.96043  -0.95844  -0.87012  -0.86912
 Alpha  occ. eigenvalues --   -0.79677  -0.79444  -0.78274  -0.78124  -0.65074
 Alpha  occ. eigenvalues --   -0.64978  -0.60990  -0.60795  -0.59363  -0.59320
 Alpha  occ. eigenvalues --   -0.57812  -0.57308  -0.55326  -0.55140  -0.52752
 Alpha  occ. eigenvalues --   -0.52674  -0.52443  -0.52093  -0.49934  -0.49838
 Alpha  occ. eigenvalues --   -0.47888  -0.47809  -0.46689  -0.46478  -0.45821
 Alpha  occ. eigenvalues --   -0.45729  -0.45652  -0.45604  -0.43795  -0.43660
 Alpha virt. eigenvalues --    0.21909   0.23046   0.23486   0.25018   0.26170
 Alpha virt. eigenvalues --    0.26645   0.26686   0.27348   0.27958   0.29321
 Alpha virt. eigenvalues --    0.29986   0.30893   0.31386   0.31894   0.32507

 Mulliken charges:
               1
     1  C   -0.298361
     2  C   -0.299110
     3  C   -0.480109
     4  H    0.149123
     5  H    0.148968
     6  H    0.154969
     7  H    0.151610
     8  H    0.154291
     9  H    0.153939
    10  H    0.164357
    11  C   -0.298070
    12  C   -0.299537
    13  C   -0.475642
    14  H    0.149205
    15  H    0.149391
    16  H    0.151834
    17  H    0.151833
    18  H    0.155063
    19  H    0.155061
    20  H    0.160101
    21  C   -0.298534
    22  C   -0.301266
    23  C   -0.476493
    24  H    0.149485
    25  H    0.149135
    26  H    0.151691
    27  H    0.151604
    28  H    0.157973
    29  H    0.156952
    30  H    0.160272
    31  C   -0.298151
    32  C   -0.299645
    33  C   -0.475711
    34  H    0.149570
    35  H    0.149676
    36  H    0.151932
    37  H    0.151968
    38  H    0.155180
    39  H    0.155171
    40  H    0.160274
 Sum of Mulliken charges =  -0.00000

 Dipole moment (field-independent basis, Debye):
    X=             -0.0297    Y=             -0.0223    Z=              0.0049  Tot=              0.0375
 Quadrupole moment (field-independent basis, Debye-Ang):
   XX=            -86.7457   YY=            -85.5577   ZZ=            -82.8158
   XY=              0.2947   XZ=              0.0234   YZ=              0.0874

 Normal termination of Gaussian 16 at Wed May  5 15:17:00 2021.
