 Gaussian 16, Revision A.03,
 Gaussian 16:  EM64L-G16RevA.03 25-Dec-2016

 -------------
 #p 6-31g* mp2
 -------------

 ------------------------------------------------------
 Input file generated by CHIRIPA (05-May-2021 14:57:23)
 ------------------------------------------------------
 Symbolic Z-matrix:
 Charge =  0 Multiplicity = 1

                         Standard orientation:
 ---------------------------------------------------------------------
 Center     Atomic      Atomic             Coordinates (Angstroms)
 Number     Number       Type             X           Y           Z
 ---------------------------------------------------------------------
      1          6           0        2.635655   -2.225259    0.887976
      2          6           0        3.081004   -1.851381   -0.384188
      3          6           0        3.077227   -0.508018   -0.771371
      4          6           0        2.619363    0.439488    0.142895
      5          6           0        2.169378    0.098440    1.417450
      6          6           0        2.182063   -1.250874    1.783156
      7          1           0        2.642050   -3.271127    1.180407
      8          1           0        3.433819   -2.605947   -1.081466
      9          1           0        3.416465   -0.190819   -1.750002
     10          1           0        1.823462    0.873334    2.090725
     11          1           0        1.835619   -1.538323    2.771789
     12          7           0        2.610649    1.864796   -0.255630
     13          8           0        2.202385    2.680381    0.568250
     14          8           0        3.012248    2.139379   -1.384328
     15          6           0       -4.366409    1.475906    0.494798
     16          6           0       -3.077642    1.903950    0.159569
     17          6           0       -2.102454    0.981679   -0.231549
     18          6           0       -2.452041   -0.367043   -0.276577
     19          6           0       -3.727332   -0.824597    0.051399
     20          6           0       -4.686577    0.115397    0.439740
     21          1           0       -5.117766    2.199232    0.797549
     22          1           0       -2.826167    2.959911    0.201418
     23          1           0       -1.097022    1.285630   -0.496385
     24          1           0       -3.948197   -1.883843    0.000103
     25          1           0       -5.686642   -0.219901    0.699526
     26          7           0       -1.428091   -1.352791   -0.689166
     27          8           0       -1.761251   -2.535434   -0.720749
     28          8           0       -0.311749   -0.924113   -0.973157
 ---------------------------------------------------------------------

 SCF Done:  E(RHF) =  -868.338934400     A.U. after   16 cycles
 E2 =    -0.2601319499D+01 EUMP2 =    -0.87094025389988D+03

 The electronic state is 1-A.
 Alpha  occ. eigenvalues --  -20.60978 -20.60942 -20.60255 -20.60218 -15.85986
 Alpha  occ. eigenvalues --  -15.85267 -11.31193 -11.30135 -11.27774 -11.27681
 Alpha  occ. eigenvalues --  -11.27453 -11.26779 -11.26756 -11.26653 -11.26646
 Alpha  occ. eigenvalues --  -11.26384 -11.25712 -11.25571  -1.60033  -1.59324
 Alpha  occ. eigenvalues --   -1.39593  -1.38890  -1.19351  -1.18274  -1.08780
 Alpha  occ. eigenvalues --   -1.07784  -1.04715  -1.03659  -0.95644  -0.94704
 Alpha  occ. eigenvalues --   -0.86126  -0.85110  -0.82477  -0.81585  -0.77545
 Alpha  occ. eigenvalues --   -0.76675  -0.72260  -0.71512  -0.71354  -0.70617
 Alpha  occ. eigenvalues --   -0.70453  -0.69478  -0.65002  -0.64708  -0.63991
 Alpha  occ. eigenvalues --   -0.63736  -0.62055  -0.61074  -0.55234  -0.54223
 Alpha  occ. eigenvalues --   -0.53079  -0.52796  -0.51928  -0.51820  -0.49005
 Alpha  occ. eigenvalues --   -0.48936  -0.48285  -0.48218  -0.44984  -0.44403
 Alpha  occ. eigenvalues --   -0.37335  -0.36320  -0.36169  -0.35168
 Alpha virt. eigenvalues --    0.04959   0.05851   0.11321   0.12437   0.16487
 Alpha virt. eigenvalues --    0.17475   0.21478   0.22369   0.27356   0.28153
 Alpha virt. eigenvalues --    0.28267   0.29244   0.30919   0.31742   0.32470

 Mulliken charges:
               1
     1  C   -0.162909
     2  C   -0.206670
     3  C   -0.160219
     4  C    0.165646
     5  C   -0.173488
     6  C   -0.218247
     7  H    0.223518
     8  H    0.221378
     9  H    0.271981
    10  H    0.267379
    11  H    0.217552
    12  N    0.485674
    13  O   -0.470901
    14  O   -0.461179
    15  C   -0.170829
    16  C   -0.219518
    17  C   -0.171277
    18  C    0.156907
    19  C   -0.171967
    20  C   -0.218928
    21  H    0.226307
    22  H    0.229568
    23  H    0.278961
    24  H    0.273768
    25  H    0.222808
    26  N    0.491354
    27  O   -0.464337
    28  O   -0.462333
 Sum of Mulliken charges =  -0.00000

 Dipole moment (field-independent basis, Debye):
    X=             -3.6322    Y=             -1.7048    Z=              2.6643  Tot=              4.8164
 Quadrupole moment (field-independent basis, Debye-Ang):
   XX=            -85.3286   YY=           -109.7344   ZZ=           -102.4571
   XY=            -19.2988   XZ=             -1.7994   YZ=             -0.8083

 Normal termination of Gaussian 16 at Fri May  7 03:21:45 2021.
