 Gaussian 16, Revision A.03,
 Gaussian 16:  EM64L-G16RevA.03 25-Dec-2016

 -------------
 #p 6-31g* mp2
 -------------

 ------------------------------------------------------
 Input file generated by CHIRIPA (05-May-2021 14:51:13)
 ------------------------------------------------------
 Symbolic Z-matrix:
 Charge =  0 Multiplicity = 1

                         Standard orientation:
 ---------------------------------------------------------------------
 Center     Atomic      Atomic             Coordinates (Angstroms)
 Number     Number       Type             X           Y           Z
 ---------------------------------------------------------------------
      1          6           0       -1.879367    0.786312   -0.925503
      2          6           0       -1.912805    2.063712   -0.085791
      3          6           0       -1.407426    3.287362   -0.850687
      4          1           0       -0.851084    0.607268   -1.268317
      5          1           0       -2.488658    0.933083   -1.828064
      6          1           0       -1.304755    1.914096    0.815600
      7          1           0       -2.941094    2.239631    0.255224
      8          1           0       -2.019062    3.464663   -1.741230
      9          1           0       -0.373425    3.137278   -1.177670
     10          1           0       -1.439961    4.189378   -0.231681
     11          6           0       -2.381600   -0.445609   -0.174596
     12          6           0       -2.348162   -1.723009   -1.014308
     13          6           0       -2.853541   -2.946659   -0.249412
     14          1           0       -1.772309   -0.592380    0.727966
     15          1           0       -3.409883   -0.266565    0.168219
     16          1           0       -1.319873   -1.898928   -1.355323
     17          1           0       -2.956212   -1.573393   -1.915699
     18          1           0       -3.887542   -2.796575    0.077571
     19          1           0       -2.241905   -3.123960    0.641132
     20          1           0       -2.821005   -3.848675   -0.868418
     21          6           0        2.586620   -0.574181    0.089297
     22          6           0        2.977095    0.174435   -1.185493
     23          6           0        3.889776   -0.646453   -2.097055
     24          1           0        3.497447   -0.854228    0.636028
     25          1           0        2.085101   -1.512867   -0.184091
     26          1           0        3.476495    1.112088   -0.909771
     27          1           0        2.065226    0.452900   -1.729155
     28          1           0        3.396315   -1.575345   -2.400794
     29          1           0        4.815603   -0.912411   -1.576754
     30          1           0        4.156560   -0.092292   -3.002369
     31          6           0        1.674346    0.233478    1.010801
     32          6           0        1.283873   -0.515139    2.285591
     33          6           0        0.371191    0.305751    3.197154
     34          1           0        2.175866    1.172165    1.284190
     35          1           0        0.763520    0.513525    0.464071
     36          1           0        2.195741   -0.793603    2.829254
     37          1           0        0.784472   -1.452791    2.009869
     38          1           0       -0.554636    0.571709    2.676854
     39          1           0        0.864652    1.234642    3.500893
     40          1           0        0.104408   -0.248410    4.102467
 ---------------------------------------------------------------------

 SCF Done:  E(RHF) =  -470.731937093     A.U. after   11 cycles
 E2 =    -0.1586374757D+01 EUMP2 =    -0.47231831185003D+03

 The electronic state is 1-A.
 Alpha  occ. eigenvalues --  -11.21676 -11.21675 -11.21670 -11.21603 -11.21469
 Alpha  occ. eigenvalues --  -11.21453 -11.21410 -11.21378 -11.21129 -11.21118
 Alpha  occ. eigenvalues --  -11.21111 -11.21071  -1.08598  -1.08411  -1.03611
 Alpha  occ. eigenvalues --   -1.03565  -0.96046  -0.96023  -0.87065  -0.87038
 Alpha  occ. eigenvalues --   -0.79714  -0.79597  -0.78338  -0.78317  -0.65774
 Alpha  occ. eigenvalues --   -0.64584  -0.61056  -0.60929  -0.59453  -0.59342
 Alpha  occ. eigenvalues --   -0.57664  -0.57629  -0.55401  -0.55271  -0.52732
 Alpha  occ. eigenvalues --   -0.52715  -0.52482  -0.52441  -0.50068  -0.49943
 Alpha  occ. eigenvalues --   -0.48099  -0.47919  -0.46867  -0.46550  -0.46260
 Alpha  occ. eigenvalues --   -0.45835  -0.45628  -0.45229  -0.43843  -0.43828
 Alpha virt. eigenvalues --    0.19022   0.22042   0.22904   0.24252   0.25557
 Alpha virt. eigenvalues --    0.26497   0.27390   0.27632   0.29045   0.30070
 Alpha virt. eigenvalues --    0.30746   0.31401   0.31659   0.32138   0.32282

 Mulliken charges:
               1
     1  C   -0.304482
     2  C   -0.308177
     3  C   -0.475752
     4  H    0.151755
     5  H    0.151517
     6  H    0.159712
     7  H    0.152473
     8  H    0.155115
     9  H    0.155866
    10  H    0.160505
    11  C   -0.305213
    12  C   -0.299483
    13  C   -0.475884
    14  H    0.155619
    15  H    0.150444
    16  H    0.151286
    17  H    0.152483
    18  H    0.155584
    19  H    0.155051
    20  H    0.160520
    21  C   -0.297817
    22  C   -0.302333
    23  C   -0.475648
    24  H    0.150166
    25  H    0.149141
    26  H    0.152385
    27  H    0.152881
    28  H    0.155307
    29  H    0.155503
    30  H    0.160587
    31  C   -0.309797
    32  C   -0.299923
    33  C   -0.483873
    34  H    0.149555
    35  H    0.162350
    36  H    0.152701
    37  H    0.151170
    38  H    0.162357
    39  H    0.155466
    40  H    0.160882
 Sum of Mulliken charges =  -0.00000

 Dipole moment (field-independent basis, Debye):
    X=             -0.0079    Y=              0.0122    Z=              0.0073  Tot=              0.0163
 Quadrupole moment (field-independent basis, Debye-Ang):
   XX=            -83.6555   YY=            -85.7603   ZZ=            -85.2180
   XY=              0.1413   XZ=              1.3175   YZ=              0.2053

 Normal termination of Gaussian 16 at Thu May  6 02:22:14 2021.
