 Gaussian 16, Revision A.03,
 Gaussian 16:  EM64L-G16RevA.03 25-Dec-2016

 -------------
 #p 6-31g* mp2
 -------------

 ------------------------------------------------------
 Input file generated by CHIRIPA (05-May-2021 14:57:22)
 ------------------------------------------------------
 Symbolic Z-matrix:
 Charge =  0 Multiplicity = 1

                         Standard orientation:
 ---------------------------------------------------------------------
 Center     Atomic      Atomic             Coordinates (Angstroms)
 Number     Number       Type             X           Y           Z
 ---------------------------------------------------------------------
      1          6           0       -2.566590    2.186081    0.765983
      2          6           0       -1.762462    1.043921    0.839253
      3          6           0       -2.258835   -0.200661    0.440283
      4          6           0       -3.569788   -0.267036   -0.029063
      5          6           0       -4.395639    0.852809   -0.113959
      6          6           0       -3.878299    2.087054    0.290449
      7          1           0       -2.172852    3.148888    1.078024
      8          1           0       -0.743395    1.117840    1.208149
      9          1           0       -1.658081   -1.100870    0.486511
     10          1           0       -5.407534    0.747656   -0.486020
     11          1           0       -4.505078    2.972396    0.232446
     12          7           0       -4.106374   -1.579148   -0.454313
     13          8           0       -5.264670   -1.611059   -0.864153
     14          8           0       -3.358494   -2.550826   -0.369731
     15          6           0        4.297898   -2.256052    0.573537
     16          6           0        3.368546   -1.602113    1.389129
     17          6           0        2.909145   -0.323792    1.058382
     18          6           0        3.402412    0.273801   -0.100437
     19          6           0        4.328695   -0.351932   -0.933352
     20          6           0        4.774166   -1.629977   -0.583062
     21          1           0        4.649360   -3.248975    0.838061
     22          1           0        2.996934   -2.085910    2.287957
     23          1           0        2.189979    0.205231    1.671857
     24          1           0        4.680866    0.155854   -1.823042
     25          1           0        5.495946   -2.135448   -1.218341
     26          7           0        2.923439    1.626956   -0.460929
     27          8           0        3.373432    2.131896   -1.487175
     28          8           0        2.107095    2.156999    0.289588
 ---------------------------------------------------------------------

 SCF Done:  E(RHF) =  -868.339321855     A.U. after   16 cycles
 E2 =    -0.2598878783D+01 EUMP2 =    -0.87093820063745D+03

 The electronic state is 1-A.
 Alpha  occ. eigenvalues --  -20.61585 -20.61523 -20.60517 -20.60506 -15.86589
 Alpha  occ. eigenvalues --  -15.85562 -11.31787 -11.30782 -11.28394 -11.28277
 Alpha  occ. eigenvalues --  -11.27982 -11.27331 -11.27325 -11.27306 -11.27251
 Alpha  occ. eigenvalues --  -11.26944 -11.26295 -11.26208  -1.60611  -1.59592
 Alpha  occ. eigenvalues --   -1.40177  -1.39151  -1.19926  -1.18919  -1.09341
 Alpha  occ. eigenvalues --   -1.08319  -1.05309  -1.04305  -0.96213  -0.95190
 Alpha  occ. eigenvalues --   -0.86712  -0.85689  -0.83058  -0.82036  -0.78143
 Alpha  occ. eigenvalues --   -0.77118  -0.72820  -0.71916  -0.71784  -0.71027
 Alpha  occ. eigenvalues --   -0.70912  -0.69992  -0.65583  -0.65304  -0.64562
 Alpha  occ. eigenvalues --   -0.64273  -0.62674  -0.61655  -0.55784  -0.54742
 Alpha  occ. eigenvalues --   -0.53634  -0.53398  -0.52634  -0.52379  -0.49584
 Alpha  occ. eigenvalues --   -0.49540  -0.48550  -0.48523  -0.45610  -0.44590
 Alpha  occ. eigenvalues --   -0.37869  -0.36903  -0.36852  -0.35909
 Alpha virt. eigenvalues --    0.04366   0.05410   0.10730   0.11760   0.15914
 Alpha virt. eigenvalues --    0.16965   0.20030   0.22025   0.25266   0.27250
 Alpha virt. eigenvalues --    0.28734   0.28890   0.30041   0.31208   0.32530

 Mulliken charges:
               1
     1  C   -0.170509
     2  C   -0.220494
     3  C   -0.173448
     4  C    0.158502
     5  C   -0.171955
     6  C   -0.218687
     7  H    0.231114
     8  H    0.232697
     9  H    0.270125
    10  H    0.273992
    11  H    0.222771
    12  N    0.488323
    13  O   -0.461186
    14  O   -0.463669
    15  C   -0.169469
    16  C   -0.217766
    17  C   -0.174110
    18  C    0.159579
    19  C   -0.169988
    20  C   -0.217689
    21  H    0.228945
    22  H    0.225523
    23  H    0.269327
    24  H    0.277220
    25  H    0.226364
    26  N    0.490163
    27  O   -0.454783
    28  O   -0.470891
 Sum of Mulliken charges =  -0.00000

 Dipole moment (field-independent basis, Debye):
    X=              3.9287    Y=             -0.1034    Z=              2.6951  Tot=              4.7654
 Quadrupole moment (field-independent basis, Debye-Ang):
   XX=           -101.4064   YY=           -109.7448   ZZ=           -102.5839
   XY=            -36.1318   XZ=             -3.1845   YZ=             -0.3241

 Normal termination of Gaussian 16 at Thu May  6 16:12:35 2021.
