 Gaussian 16, Revision A.03,
 Gaussian 16:  EM64L-G16RevA.03 25-Dec-2016

 -------------
 #p 6-31g* mp2
 -------------

 ------------------------------------------------------
 Input file generated by CHIRIPA (05-May-2021 14:53:16)
 ------------------------------------------------------
 Symbolic Z-matrix:
 Charge =  0 Multiplicity = 1

                         Standard orientation:
 ---------------------------------------------------------------------
 Center     Atomic      Atomic             Coordinates (Angstroms)
 Number     Number       Type             X           Y           Z
 ---------------------------------------------------------------------
      1          6           0        3.172731   -0.479308    0.904198
      2          6           0        1.707002   -0.298494    0.508053
      3          6           0        0.742268   -0.615534    1.651106
      4          1           0        3.329727   -1.512692    1.242449
      5          1           0        3.395598    0.168143    1.763576
      6          1           0        1.487330   -0.945064   -0.351195
      7          1           0        1.553520    0.734527    0.170524
      8          1           0        0.932865    0.037986    2.508535
      9          1           0        0.866299   -1.651148    1.983851
     10          1           0       -0.300028   -0.479715    1.346094
     11          6           0        4.149349   -0.166111   -0.227992
     12          6           0        5.615078   -0.346925    0.168152
     13          6           0        6.579811   -0.029886   -0.974900
     14          1           0        3.926481   -0.813563   -1.087371
     15          1           0        3.992353    0.867273   -0.566243
     16          1           0        5.768560   -1.379947    0.505681
     17          1           0        5.834750    0.299645    1.027400
     18          1           0        6.455781    1.005729   -1.307646
     19          1           0        6.389214   -0.683406   -1.832330
     20          1           0        7.622107   -0.165705   -0.669889
     21          6           0       -4.456593   -1.700374   -0.192080
     22          6           0       -3.460066   -1.646768   -1.172173
     23          6           0       -2.570036   -0.569758   -1.221615
     24          6           0       -2.705853    0.440877   -0.271109
     25          6           0       -3.688251    0.416096    0.717612
     26          6           0       -4.567310   -0.670587    0.748027
     27          1           0       -5.143728   -2.540778   -0.161062
     28          1           0       -3.371723   -2.445093   -1.903553
     29          1           0       -1.789324   -0.502997   -1.969579
     30          1           0       -3.751457    1.226884    1.433186
     31          1           0       -5.340257   -0.709570    1.510312
     32          7           0       -1.769425    1.586178   -0.313381
     33          8           0       -1.910067    2.463904    0.535415
     34          8           0       -0.912543    1.584455   -1.194509
 ---------------------------------------------------------------------

 SCF Done:  E(RHF) =  -669.535670064     A.U. after   15 cycles
 E2 =    -0.2092944145D+01 EUMP2 =    -0.67162861420867D+03

 The electronic state is 1-A.
 Alpha  occ. eigenvalues --  -20.60905 -20.60883 -15.85916 -11.31255 -11.27821
 Alpha  occ. eigenvalues --  -11.27817 -11.27558 -11.26830 -11.26820 -11.21134
 Alpha  occ. eigenvalues --  -11.20810 -11.20765 -11.20715 -11.20660 -11.20563
 Alpha  occ. eigenvalues --   -1.59954  -1.39508  -1.19434  -1.08835  -1.07829
 Alpha  occ. eigenvalues --   -1.04823  -1.02963  -0.95671  -0.95458  -0.86475
 Alpha  occ. eigenvalues --   -0.86224  -0.82501  -0.79011  -0.77641  -0.77528
 Alpha  occ. eigenvalues --   -0.72142  -0.71302  -0.70531  -0.65082  -0.64826
 Alpha  occ. eigenvalues --   -0.64455  -0.62169  -0.60349  -0.58828  -0.57063
 Alpha  occ. eigenvalues --   -0.55325  -0.54742  -0.53221  -0.52914  -0.52123
 Alpha  occ. eigenvalues --   -0.51866  -0.49391  -0.48912  -0.48901  -0.47356
 Alpha  occ. eigenvalues --   -0.46048  -0.45297  -0.45123  -0.44664  -0.43227
 Alpha  occ. eigenvalues --   -0.37378  -0.36422
 Alpha virt. eigenvalues --    0.04951   0.11211   0.16417   0.21332   0.23398
 Alpha virt. eigenvalues --    0.24588   0.27023   0.27423   0.27811   0.28266
 Alpha virt. eigenvalues --    0.28527   0.30818   0.31711   0.31863   0.32193

 Mulliken charges:
               1
     1  C   -0.298602
     2  C   -0.303968
     3  C   -0.476420
     4  H    0.144947
     5  H    0.149446
     6  H    0.145101
     7  H    0.174103
     8  H    0.157930
     9  H    0.150393
    10  H    0.152046
    11  C   -0.298102
    12  C   -0.299225
    13  C   -0.475405
    14  H    0.147283
    15  H    0.154390
    16  H    0.149709
    17  H    0.151813
    18  H    0.156343
    19  H    0.153924
    20  H    0.158540
    21  C   -0.170546
    22  C   -0.217933
    23  C   -0.171353
    24  C    0.155615
    25  C   -0.171804
    26  C   -0.218029
    27  H    0.225936
    28  H    0.223764
    29  H    0.276308
    30  H    0.276137
    31  H    0.223847
    32  N    0.491986
    33  O   -0.459401
    34  O   -0.458775
 Sum of Mulliken charges =  -0.00000

 Dipole moment (field-independent basis, Debye):
    X=             -3.4361    Y=             -3.8738    Z=              0.0810  Tot=              5.1788
 Quadrupole moment (field-independent basis, Debye-Ang):
   XX=            -77.3959   YY=            -97.2171   ZZ=            -92.5634
   XY=              8.9248   XZ=             -1.0995   YZ=              3.6236

 Normal termination of Gaussian 16 at Thu May  6 10:36:44 2021.
