 Gaussian 16, Revision A.03,
 Gaussian 16:  EM64L-G16RevA.03 25-Dec-2016

 -------------
 #p 6-31g* mp2
 -------------

 ------------------------------------------------------
 Input file generated by CHIRIPA (05-May-2021 14:51:10)
 ------------------------------------------------------
 Symbolic Z-matrix:
 Charge =  0 Multiplicity = 1

                         Standard orientation:
 ---------------------------------------------------------------------
 Center     Atomic      Atomic             Coordinates (Angstroms)
 Number     Number       Type             X           Y           Z
 ---------------------------------------------------------------------
      1          6           0       -3.252049    0.526665   -0.777263
      2          6           0       -2.499055    1.674597   -0.104034
      3          6           0       -1.819639    2.605581   -1.108751
      4          1           0       -2.551441   -0.049234   -1.397290
      5          1           0       -4.005284    0.942449   -1.460751
      6          1           0       -1.748401    1.256776    0.579018
      7          1           0       -3.201498    2.247716    0.514613
      8          1           0       -2.558784    3.049712   -1.783298
      9          1           0       -1.097430    2.053142   -1.718527
     10          1           0       -1.287228    3.418976   -0.605970
     11          6           0       -3.936569   -0.412671    0.214104
     12          6           0       -4.689562   -1.560603   -0.459125
     13          6           0       -5.368979   -2.491588    0.545591
     14          1           0       -3.183334   -0.828455    0.897592
     15          1           0       -4.637177    0.163228    0.834131
     16          1           0       -3.987120   -2.133722   -1.077773
     17          1           0       -5.440216   -1.142782   -1.142177
     18          1           0       -6.091187   -1.939148    1.155368
     19          1           0       -4.629834   -2.935718    1.220138
     20          1           0       -5.901389   -3.304982    0.042811
     21          6           0        4.014460   -0.689899    0.201955
     22          6           0        5.279519   -0.477207   -0.630135
     23          6           0        6.109549   -1.752449   -0.780474
     24          1           0        4.295512   -1.065416    1.195403
     25          1           0        3.403029   -1.473331   -0.266855
     26          1           0        5.887719    0.306562   -0.160652
     27          1           0        4.995434   -0.101972   -1.621654
     28          1           0        5.524062   -2.537778   -1.269417
     29          1           0        6.421417   -2.126924    0.199887
     30          1           0        7.009190   -1.577703   -1.378780
     31          6           0        3.174158    0.575905    0.361205
     32          6           0        1.909099    0.363213    1.193295
     33          6           0        1.079069    1.638455    1.343634
     34          1           0        3.785588    1.359337    0.830015
     35          1           0        2.893105    0.951422   -0.632244
     36          1           0        2.193184   -0.012022    2.184814
     37          1           0        1.300899   -0.420555    0.723812
     38          1           0        0.767201    2.012931    0.363272
     39          1           0        1.664555    2.423785    1.832575
     40          1           0        0.179428    1.463710    1.941939
 ---------------------------------------------------------------------

 SCF Done:  E(RHF) =  -470.732288776     A.U. after   11 cycles
 E2 =    -0.1583461429D+01 EUMP2 =    -0.47231575020482D+03

 The electronic state is 1-A.
 Alpha  occ. eigenvalues --  -11.21633 -11.21618 -11.21591 -11.21476 -11.21429
 Alpha  occ. eigenvalues --  -11.21377 -11.21369 -11.21312 -11.21086 -11.21064
 Alpha  occ. eigenvalues --  -11.21047 -11.21027  -1.08460  -1.08391  -1.03595
 Alpha  occ. eigenvalues --   -1.03458  -0.96063  -0.95899  -0.87034  -0.86964
 Alpha  occ. eigenvalues --   -0.79649  -0.79536  -0.78270  -0.78207  -0.65170
 Alpha  occ. eigenvalues --   -0.64971  -0.61209  -0.60702  -0.59456  -0.59242
 Alpha  occ. eigenvalues --   -0.57622  -0.57576  -0.55498  -0.55014  -0.52740
 Alpha  occ. eigenvalues --   -0.52650  -0.52467  -0.52311  -0.49964  -0.49843
 Alpha  occ. eigenvalues --   -0.48004  -0.47801  -0.46661  -0.46546  -0.45803
 Alpha  occ. eigenvalues --   -0.45755  -0.45730  -0.45654  -0.43792  -0.43715
 Alpha virt. eigenvalues --    0.21309   0.23206   0.23608   0.24919   0.26419
 Alpha virt. eigenvalues --    0.26538   0.26999   0.27207   0.27985   0.29218
 Alpha virt. eigenvalues --    0.30754   0.31297   0.31630   0.32014   0.32222

 Mulliken charges:
               1
     1  C   -0.297478
     2  C   -0.306515
     3  C   -0.477400
     4  H    0.148749
     5  H    0.149127
     6  H    0.161287
     7  H    0.151226
     8  H    0.155617
     9  H    0.153363
    10  H    0.161544
    11  C   -0.298228
    12  C   -0.299556
    13  C   -0.475704
    14  H    0.149051
    15  H    0.149653
    16  H    0.151739
    17  H    0.151962
    18  H    0.155176
    19  H    0.155134
    20  H    0.160194
    21  C   -0.298278
    22  C   -0.299686
    23  C   -0.475715
    24  H    0.149730
    25  H    0.149325
    26  H    0.152019
    27  H    0.151975
    28  H    0.155145
    29  H    0.155206
    30  H    0.160335
    31  C   -0.298461
    32  C   -0.300513
    33  C   -0.483384
    34  H    0.149838
    35  H    0.149725
    36  H    0.152052
    37  H    0.151222
    38  H    0.163436
    39  H    0.155316
    40  H    0.161774
 Sum of Mulliken charges =  -0.00000

 Dipole moment (field-independent basis, Debye):
    X=              0.0246    Y=              0.0234    Z=              0.0156  Tot=              0.0374
 Quadrupole moment (field-independent basis, Debye-Ang):
   XX=            -84.7090   YY=            -85.6663   ZZ=            -84.5073
   XY=             -0.1849   XZ=              0.8901   YZ=              0.5036

 Normal termination of Gaussian 16 at Wed May  5 19:49:29 2021.
