 Gaussian 16, Revision A.03,
 Gaussian 16:  EM64L-G16RevA.03 25-Dec-2016

 -------------
 #p 6-31g* mp2
 -------------

 ------------------------------------------------------
 Input file generated by CHIRIPA (05-May-2021 14:55:21)
 ------------------------------------------------------
 Symbolic Z-matrix:
 Charge =  0 Multiplicity = 1

                         Standard orientation:
 ---------------------------------------------------------------------
 Center     Atomic      Atomic             Coordinates (Angstroms)
 Number     Number       Type             X           Y           Z
 ---------------------------------------------------------------------
      1          6           0        1.984213    1.981942    0.428590
      2          6           0        3.187610    2.331945   -0.192582
      3          6           0        4.180454    1.371747   -0.408980
      4          6           0        3.935384    0.065087    0.010391
      5          6           0        2.746814   -0.314665    0.631985
      6          6           0        1.768037    0.662080    0.838169
      7          1           0        1.218412    2.734274    0.592726
      8          1           0        3.358241    3.356195   -0.511711
      9          1           0        5.121263    1.615323   -0.887484
     10          1           0        2.605653   -1.343827    0.939098
     11          1           0        0.834426    0.387392    1.320829
     12          7           0        4.979017   -0.960191   -0.213293
     13          8           0        4.738684   -2.104488    0.165469
     14          8           0        6.017589   -0.600093   -0.763144
     15          6           0       -4.158443   -0.501192   -0.390534
     16          6           0       -3.003752   -0.648933    0.600850
     17          6           0       -1.692743   -1.052582   -0.074517
     18          1           0       -4.297260   -1.450350   -0.926047
     19          1           0       -3.888952    0.248281   -1.147541
     20          1           0       -3.275898   -1.396900    1.356560
     21          1           0       -2.867792    0.300628    1.134201
     22          1           0       -1.394574   -0.303747   -0.815423
     23          1           0       -1.805000   -2.010922   -0.591801
     24          1           0       -0.880777   -1.152555    0.652517
     25          6           0       -5.475811   -0.098016    0.269557
     26          6           0       -6.630503    0.049726   -0.721828
     27          6           0       -7.941511    0.453374   -0.046462
     28          1           0       -5.745303   -0.847488    1.026564
     29          1           0       -5.336994    0.851142    0.805070
     30          1           0       -6.766463   -0.899836   -1.255179
     31          1           0       -6.358356    0.797692   -1.477537
     32          1           0       -7.829255    1.411715    0.470824
     33          1           0       -8.239681   -0.295460    0.694446
     34          1           0       -8.753478    0.553347   -0.773494
 ---------------------------------------------------------------------

 SCF Done:  E(RHF) =  -669.535221378     A.U. after   15 cycles
 E2 =    -0.2090987625D+01 EUMP2 =    -0.67162620900365D+03

 The electronic state is 1-A.
 Alpha  occ. eigenvalues --  -20.60725 -20.60720 -15.85778 -11.31142 -11.27708
 Alpha  occ. eigenvalues --  -11.27697 -11.27448 -11.26732 -11.26685 -11.22360
 Alpha  occ. eigenvalues --  -11.22012 -11.21977 -11.21935 -11.21862 -11.21422
 Alpha  occ. eigenvalues --   -1.59801  -1.39354  -1.19311  -1.09001  -1.08708
 Alpha  occ. eigenvalues --   -1.04716  -1.04121  -0.96574  -0.95544  -0.87595
 Alpha  occ. eigenvalues --   -0.86109  -0.82378  -0.80185  -0.78788  -0.77425
 Alpha  occ. eigenvalues --   -0.71997  -0.71123  -0.70423  -0.65632  -0.64965
 Alpha  occ. eigenvalues --   -0.64748  -0.62122  -0.61501  -0.59946  -0.58177
 Alpha  occ. eigenvalues --   -0.55846  -0.55220  -0.53417  -0.53043  -0.53004
 Alpha  occ. eigenvalues --   -0.52639  -0.50490  -0.48756  -0.48752  -0.48495
 Alpha  occ. eigenvalues --   -0.47210  -0.46334  -0.46244  -0.44760  -0.44371
 Alpha  occ. eigenvalues --   -0.37292  -0.36301
 Alpha virt. eigenvalues --    0.05104   0.11313   0.16560   0.20149   0.22527
 Alpha virt. eigenvalues --    0.23766   0.26025   0.26112   0.26984   0.28042
 Alpha virt. eigenvalues --    0.28674   0.30255   0.30882   0.31459   0.32308

 Mulliken charges:
               1
     1  C   -0.172479
     2  C   -0.218451
     3  C   -0.171219
     4  C    0.158503
     5  C   -0.172004
     6  C   -0.218423
     7  H    0.225267
     8  H    0.223100
     9  H    0.275407
    10  H    0.275231
    11  H    0.227855
    12  N    0.488112
    13  O   -0.460412
    14  O   -0.460646
    15  C   -0.298719
    16  C   -0.300523
    17  C   -0.477510
    18  H    0.152405
    19  H    0.149595
    20  H    0.154742
    21  H    0.147434
    22  H    0.157276
    23  H    0.161972
    24  H    0.150859
    25  C   -0.298560
    26  C   -0.300070
    27  C   -0.475964
    28  H    0.150754
    29  H    0.148757
    30  H    0.153248
    31  H    0.152021
    32  H    0.154966
    33  H    0.155935
    34  H    0.161542
 Sum of Mulliken charges =  -0.00000

 Dipole moment (field-independent basis, Debye):
    X=             -3.8542    Y=              3.5742    Z=              0.7280  Tot=              5.3065
 Quadrupole moment (field-independent basis, Debye-Ang):
   XX=           -122.8969   YY=            -91.2652   ZZ=            -94.7056
   XY=             17.0899   XZ=              2.0548   YZ=             -1.8059

 Normal termination of Gaussian 16 at Thu May  6 15:48:37 2021.
