 Gaussian 16, Revision A.03,
 Gaussian 16:  EM64L-G16RevA.03 25-Dec-2016

 -------------
 #p 6-31g* mp2
 -------------

 ------------------------------------------------------
 Input file generated by CHIRIPA (05-May-2021 14:55:23)
 ------------------------------------------------------
 Symbolic Z-matrix:
 Charge =  0 Multiplicity = 1

                         Standard orientation:
 ---------------------------------------------------------------------
 Center     Atomic      Atomic             Coordinates (Angstroms)
 Number     Number       Type             X           Y           Z
 ---------------------------------------------------------------------
      1          6           0        0.174193   -1.869618    0.115313
      2          6           0        0.579630   -1.126597    1.228893
      3          6           0        1.782860   -0.415019    1.207861
      4          6           0        2.559577   -0.468846    0.051529
      5          6           0        2.182826   -1.200025   -1.073960
      6          6           0        0.975672   -1.903900   -1.030540
      7          1           0       -0.762029   -2.419397    0.140346
      8          1           0       -0.040791   -1.098153    2.120135
      9          1           0        2.120734    0.168244    2.055838
     10          1           0        2.822555   -1.209208   -1.948077
     11          1           0        0.663319   -2.480098   -1.896841
     12          7           0        3.835460    0.280393    0.017413
     13          8           0        4.501798    0.216787   -1.013405
     14          8           0        4.145000    0.917066    1.022136
     15          6           0       -3.131796    0.050918    0.186964
     16          6           0       -4.454616   -0.547231   -0.292983
     17          6           0       -4.689822   -1.962475    0.235747
     18          1           0       -2.305980   -0.601636   -0.127910
     19          1           0       -3.119745    0.062250    1.285655
     20          1           0       -4.464742   -0.556156   -1.390450
     21          1           0       -5.277365    0.106923    0.022905
     22          1           0       -4.706330   -1.966962    1.330421
     23          1           0       -3.889090   -2.633808   -0.090964
     24          1           0       -5.641047   -2.370863   -0.119572
     25          6           0       -2.882402    1.465445   -0.333273
     26          6           0       -1.559581    2.063594    0.146675
     27          6           0       -1.324376    3.478837   -0.382057
     28          1           0       -2.894453    1.454113   -1.431963
     29          1           0       -3.708218    2.117998   -0.018399
     30          1           0       -0.736833    1.409441   -0.169213
     31          1           0       -1.549456    2.072518    1.244142
     32          1           0       -2.125108    4.150170   -0.055345
     33          1           0       -1.307867    3.483324   -1.476729
     34          1           0       -0.373152    3.887226   -0.026736
 ---------------------------------------------------------------------

 SCF Done:  E(RHF) =  -669.534397030     A.U. after   15 cycles
 E2 =    -0.2094169662D+01 EUMP2 =    -0.67162856669208D+03

 The electronic state is 1-A.
 Alpha  occ. eigenvalues --  -20.60803 -20.60798 -15.85858 -11.31244 -11.27814
 Alpha  occ. eigenvalues --  -11.27793 -11.27525 -11.26836 -11.26797 -11.22333
 Alpha  occ. eigenvalues --  -11.22093 -11.21987 -11.21882 -11.21823 -11.21227
 Alpha  occ. eigenvalues --   -1.59878  -1.39431  -1.19424  -1.09039  -1.08793
 Alpha  occ. eigenvalues --   -1.04819  -1.04064  -0.96537  -0.95645  -0.87547
 Alpha  occ. eigenvalues --   -0.86214  -0.82476  -0.80151  -0.78840  -0.77507
 Alpha  occ. eigenvalues --   -0.72074  -0.71202  -0.70551  -0.65661  -0.65065
 Alpha  occ. eigenvalues --   -0.64809  -0.62159  -0.61464  -0.59921  -0.58137
 Alpha  occ. eigenvalues --   -0.55878  -0.55315  -0.53346  -0.53066  -0.52959
 Alpha  occ. eigenvalues --   -0.52902  -0.50489  -0.48837  -0.48828  -0.48458
 Alpha  occ. eigenvalues --   -0.47192  -0.46344  -0.46230  -0.44832  -0.44317
 Alpha  occ. eigenvalues --   -0.37310  -0.36387
 Alpha virt. eigenvalues --    0.04971   0.11192   0.16332   0.19814   0.22838
 Alpha virt. eigenvalues --    0.23353   0.25174   0.26179   0.27305   0.28086
 Alpha virt. eigenvalues --    0.28933   0.30370   0.31144   0.31600   0.32287

 Mulliken charges:
               1
     1  C   -0.172642
     2  C   -0.214485
     3  C   -0.171295
     4  C    0.158626
     5  C   -0.171164
     6  C   -0.220835
     7  H    0.228615
     8  H    0.225212
     9  H    0.275902
    10  H    0.275811
    11  H    0.223732
    12  N    0.488076
    13  O   -0.460303
    14  O   -0.460206
    15  C   -0.303992
    16  C   -0.299600
    17  C   -0.475977
    18  H    0.148502
    19  H    0.145430
    20  H    0.153247
    21  H    0.155408
    22  H    0.155697
    23  H    0.146322
    24  H    0.164714
    25  C   -0.297263
    26  C   -0.304286
    27  C   -0.476408
    28  H    0.150312
    29  H    0.150908
    30  H    0.159966
    31  H    0.147270
    32  H    0.154814
    33  H    0.155834
    34  H    0.164056
 Sum of Mulliken charges =  -0.00000

 Dipole moment (field-independent basis, Debye):
    X=             -4.4874    Y=             -2.5807    Z=              0.1029  Tot=              5.1775
 Quadrupole moment (field-independent basis, Debye-Ang):
   XX=           -118.0859   YY=            -93.3313   ZZ=            -89.8934
   XY=             -5.5250   XZ=             -0.9819   YZ=              2.1118

 Normal termination of Gaussian 16 at Wed May  5 19:05:14 2021.
