 Gaussian 16, Revision A.03,
 Gaussian 16:  EM64L-G16RevA.03 25-Dec-2016

 -------------
 #p 6-31g* mp2
 -------------

 ------------------------------------------------------
 Input file generated by CHIRIPA (05-May-2021 14:55:23)
 ------------------------------------------------------
 Symbolic Z-matrix:
 Charge =  0 Multiplicity = 1

                         Standard orientation:
 ---------------------------------------------------------------------
 Center     Atomic      Atomic             Coordinates (Angstroms)
 Number     Number       Type             X           Y           Z
 ---------------------------------------------------------------------
      1          6           0       -3.206622    2.339197    0.292684
      2          6           0       -1.843393    2.058878    0.152874
      3          6           0       -1.415127    0.776848   -0.204247
      4          6           0       -2.381618   -0.205396   -0.414918
      5          6           0       -3.747045    0.042814   -0.283424
      6          6           0       -4.152430    1.332047    0.074474
      7          1           0       -3.530422    3.337907    0.570406
      8          1           0       -1.106632    2.839083    0.321716
      9          1           0       -0.366120    0.532410   -0.319368
     10          1           0       -4.457941   -0.755599   -0.458300
     11          1           0       -5.211799    1.546872    0.182331
     12          7           0       -1.940344   -1.566436   -0.793398
     13          8           0       -2.811702   -2.414346   -0.973456
     14          8           0       -0.731471   -1.759538   -0.902825
     15          6           0        2.423393   -0.142187    0.683090
     16          6           0        2.324669   -0.618344    2.132749
     17          6           0        0.881621   -0.849976    2.581917
     18          1           0        1.848742    0.787189    0.569157
     19          1           0        1.949067   -0.885355    0.027262
     20          1           0        2.800264    0.124842    2.785512
     21          1           0        2.899781   -1.546592    2.243287
     22          1           0        0.399812   -1.607148    1.954899
     23          1           0        0.299731    0.073782    2.500203
     24          1           0        0.834298   -1.189935    3.621170
     25          6           0        3.859731    0.093752    0.219415
     26          6           0        3.958456    0.569910   -1.230245
     27          6           0        5.401505    0.801541   -1.679414
     28          1           0        4.334057    0.836921    0.875242
     29          1           0        4.434383   -0.835624    0.333346
     30          1           0        3.383345    1.498157   -1.340783
     31          1           0        3.482860   -0.173277   -1.883008
     32          1           0        5.983394   -0.122216   -1.597700
     33          1           0        5.883312    1.558713   -1.052394
     34          1           0        5.448826    1.141499   -2.718667
 ---------------------------------------------------------------------

 SCF Done:  E(RHF) =  -669.535870706     A.U. after   15 cycles
 E2 =    -0.2093620766D+01 EUMP2 =    -0.67162949147251D+03

 The electronic state is 1-A.
 Alpha  occ. eigenvalues --  -20.60898 -20.60891 -15.85920 -11.31160 -11.27759
 Alpha  occ. eigenvalues --  -11.27664 -11.27496 -11.26747 -11.26732 -11.21508
 Alpha  occ. eigenvalues --  -11.21421 -11.21289 -11.21228 -11.20983 -11.20764
 Alpha  occ. eigenvalues --   -1.59951  -1.39510  -1.19347  -1.08767  -1.08311
 Alpha  occ. eigenvalues --   -1.04740  -1.03378  -0.95830  -0.95618  -0.86850
 Alpha  occ. eigenvalues --   -0.86144  -0.82460  -0.79463  -0.78261  -0.77418
 Alpha  occ. eigenvalues --   -0.72149  -0.71257  -0.70467  -0.65064  -0.64886
 Alpha  occ. eigenvalues --   -0.64737  -0.62104  -0.60760  -0.59191  -0.57458
 Alpha  occ. eigenvalues --   -0.55265  -0.55107  -0.53086  -0.52869  -0.52506
 Alpha  occ. eigenvalues --   -0.52235  -0.49763  -0.48943  -0.48895  -0.47755
 Alpha  occ. eigenvalues --   -0.46476  -0.45709  -0.45549  -0.44819  -0.43645
 Alpha  occ. eigenvalues --   -0.37330  -0.36314
 Alpha virt. eigenvalues --    0.04979   0.11293   0.16429   0.20713   0.23165
 Alpha virt. eigenvalues --    0.24393   0.25683   0.26932   0.27920   0.28065
 Alpha virt. eigenvalues --    0.29710   0.30554   0.31707   0.31758   0.32076

 Mulliken charges:
               1
     1  C   -0.169792
     2  C   -0.224242
     3  C   -0.174185
     4  C    0.155501
     5  C   -0.169784
     6  C   -0.219378
     7  H    0.225569
     8  H    0.223186
     9  H    0.291067
    10  H    0.275347
    11  H    0.223338
    12  N    0.490474
    13  O   -0.459010
    14  O   -0.464391
    15  C   -0.312882
    16  C   -0.297199
    17  C   -0.484068
    18  H    0.131987
    19  H    0.177160
    20  H    0.148112
    21  H    0.155177
    22  H    0.170398
    23  H    0.146875
    24  H    0.159142
    25  C   -0.296280
    26  C   -0.300585
    27  C   -0.475581
    28  H    0.146901
    29  H    0.152712
    30  H    0.145698
    31  H    0.158231
    32  H    0.156732
    33  H    0.153680
    34  H    0.160093
 Sum of Mulliken charges =  -0.00000

 Dipole moment (field-independent basis, Debye):
    X=             -1.5762    Y=              4.5557    Z=              1.2315  Tot=              4.9754
 Quadrupole moment (field-independent basis, Debye-Ang):
   XX=            -83.6943   YY=            -95.8605   ZZ=            -97.1199
   XY=            -10.3869   XZ=             -2.0994   YZ=             -1.8709

 Normal termination of Gaussian 16 at Wed May  5 17:32:38 2021.
