 Gaussian 16, Revision A.03,
 Gaussian 16:  EM64L-G16RevA.03 25-Dec-2016

 -------------
 #p 6-31g* mp2
 -------------

 ------------------------------------------------------
 Input file generated by CHIRIPA (05-May-2021 14:51:08)
 ------------------------------------------------------
 Symbolic Z-matrix:
 Charge =  0 Multiplicity = 1

                         Standard orientation:
 ---------------------------------------------------------------------
 Center     Atomic      Atomic             Coordinates (Angstroms)
 Number     Number       Type             X           Y           Z
 ---------------------------------------------------------------------
      1          6           0        2.418094    0.271320    0.091779
      2          6           0        2.996660   -0.259789   -1.220154
      3          6           0        3.682799   -1.616438   -1.057336
      4          1           0        3.223924    0.353107    0.834002
      5          1           0        1.699569   -0.458615    0.489662
      6          1           0        3.712852    0.471560   -1.616150
      7          1           0        2.189394   -0.340140   -1.959398
      8          1           0        2.974833   -2.364003   -0.685138
      9          1           0        4.506947   -1.547691   -0.339940
     10          1           0        4.089154   -1.977395   -2.007307
     11          6           0        1.728927    1.626787   -0.054808
     12          6           0        1.150362    2.157896    1.257125
     13          6           0        0.464222    3.514545    1.094307
     14          1           0        2.447453    2.356722   -0.452690
     15          1           0        0.923098    1.545000   -0.797031
     16          1           0        1.957628    2.238247    1.996369
     17          1           0        0.434170    1.426547    1.653122
     18          1           0       -0.359925    3.445798    0.376911
     19          1           0        1.172189    4.262110    0.722110
     20          1           0        0.057868    3.875502    2.044279
     21          6           0       -2.244239   -0.495829   -0.609140
     22          6           0       -3.260743    0.593006   -0.263973
     23          6           0       -3.592116    1.491618   -1.455813
     24          1           0       -1.324393   -0.024890   -0.982028
     25          1           0       -2.638089   -1.107661   -1.432510
     26          1           0       -2.865693    1.201746    0.559428
     27          1           0       -4.178205    0.119428    0.108319
     28          1           0       -4.010080    0.902140   -2.278263
     29          1           0       -2.690110    1.990607   -1.824590
     30          1           0       -4.320570    2.262881   -1.186800
     31          6           0       -1.902783   -1.402278    0.572169
     32          6           0       -0.886279   -2.491113    0.227002
     33          6           0       -0.554906   -3.389725    1.418842
     34          1           0       -1.508932   -0.790446    1.395539
     35          1           0       -2.822628   -1.873216    0.945058
     36          1           0        0.031184   -2.017535   -0.145289
     37          1           0       -1.281329   -3.099853   -0.596399
     38          1           0       -1.456911   -3.888714    1.787619
     39          1           0       -0.136941   -2.800247    2.241292
     40          1           0        0.173549   -4.160987    1.149829
 ---------------------------------------------------------------------

 SCF Done:  E(RHF) =  -470.733207286     A.U. after   11 cycles
 E2 =    -0.1585072659D+01 EUMP2 =    -0.47231827994422D+03

 The electronic state is 1-A.
 Alpha  occ. eigenvalues --  -11.21680 -11.21660 -11.21658 -11.21645 -11.21482
 Alpha  occ. eigenvalues --  -11.21467 -11.21423 -11.21398 -11.21135 -11.21131
 Alpha  occ. eigenvalues --  -11.21127 -11.21097  -1.08556  -1.08446  -1.03621
 Alpha  occ. eigenvalues --   -1.03562  -0.96050  -0.96026  -0.87073  -0.87035
 Alpha  occ. eigenvalues --   -0.79685  -0.79627  -0.78321  -0.78311  -0.65595
 Alpha  occ. eigenvalues --   -0.64700  -0.61225  -0.60776  -0.59423  -0.59385
 Alpha  occ. eigenvalues --   -0.57655  -0.57642  -0.55400  -0.55256  -0.52733
 Alpha  occ. eigenvalues --   -0.52723  -0.52475  -0.52453  -0.50085  -0.49894
 Alpha  occ. eigenvalues --   -0.48065  -0.47907  -0.46861  -0.46642  -0.46123
 Alpha  occ. eigenvalues --   -0.45823  -0.45615  -0.45468  -0.43851  -0.43839
 Alpha virt. eigenvalues --    0.17810   0.21205   0.23118   0.24808   0.25528
 Alpha virt. eigenvalues --    0.26116   0.26676   0.28302   0.28548   0.30130
 Alpha virt. eigenvalues --    0.31041   0.31568   0.31759   0.31946   0.32217

 Mulliken charges:
               1
     1  C   -0.304868
     2  C   -0.300040
     3  C   -0.477229
     4  H    0.150281
     5  H    0.155256
     6  H    0.152375
     7  H    0.152121
     8  H    0.156395
     9  H    0.155369
    10  H    0.160562
    11  C   -0.300765
    12  C   -0.302187
    13  C   -0.476729
    14  H    0.150234
    15  H    0.151351
    16  H    0.152500
    17  H    0.153287
    18  H    0.155875
    19  H    0.155639
    20  H    0.160541
    21  C   -0.302189
    22  C   -0.300776
    23  C   -0.476081
    24  H    0.152587
    25  H    0.150013
    26  H    0.153046
    27  H    0.152360
    28  H    0.155491
    29  H    0.154764
    30  H    0.160814
    31  C   -0.300493
    32  C   -0.306955
    33  C   -0.476278
    34  H    0.151025
    35  H    0.150451
    36  H    0.157670
    37  H    0.152706
    38  H    0.155760
    39  H    0.155615
    40  H    0.160500
 Sum of Mulliken charges =  -0.00000

 Dipole moment (field-independent basis, Debye):
    X=             -0.0021    Y=             -0.0054    Z=              0.0049  Tot=              0.0076
 Quadrupole moment (field-independent basis, Debye-Ang):
   XX=            -83.6678   YY=            -85.5900   ZZ=            -85.2539
   XY=              1.7052   XZ=              0.1429   YZ=              0.7804

 Normal termination of Gaussian 16 at Thu May  6 00:32:19 2021.
