 Gaussian 16, Revision A.03,
 Gaussian 16:  EM64L-G16RevA.03 25-Dec-2016

 -------------
 #p 6-31g* mp2
 -------------

 ------------------------------------------------------
 Input file generated by CHIRIPA (05-May-2021 14:51:12)
 ------------------------------------------------------
 Symbolic Z-matrix:
 Charge =  0 Multiplicity = 1

                         Standard orientation:
 ---------------------------------------------------------------------
 Center     Atomic      Atomic             Coordinates (Angstroms)
 Number     Number       Type             X           Y           Z
 ---------------------------------------------------------------------
      1          6           0        3.600819    0.232349   -0.228917
      2          6           0        3.368881    1.721698   -0.485878
      3          6           0        1.887343    2.074499   -0.621421
      4          1           0        3.157788   -0.348186   -1.049677
      5          1           0        3.067645   -0.062209    0.685607
      6          1           0        3.903468    2.013665   -1.398888
      7          1           0        3.812683    2.298764    0.335493
      8          1           0        1.343505    1.811017    0.291496
      9          1           0        1.434805    1.524298   -1.452739
     10          1           0        1.744474    3.144011   -0.804707
     11          6           0        5.076995   -0.135948   -0.091107
     12          6           0        5.308933   -1.625297    0.165853
     13          6           0        6.790471   -1.978098    0.301397
     14          1           0        5.610169    0.158610   -1.005632
     15          1           0        5.520026    0.444587    0.729653
     16          1           0        4.865131   -2.202363   -0.655517
     17          1           0        4.774346   -1.917265    1.078863
     18          1           0        7.243008   -1.427898    1.132715
     19          1           0        7.334309   -1.714616   -0.611521
     20          1           0        6.933340   -3.047610    0.484682
     21          6           0       -5.102499   -0.067116    0.158786
     22          6           0       -5.676116   -1.358799   -0.424739
     23          6           0       -7.204924   -1.381648   -0.420343
     24          1           0       -5.469547    0.058075    1.186671
     25          1           0       -5.484564    0.787983   -0.415868
     26          1           0       -5.291989   -2.211302    0.149980
     27          1           0       -5.307508   -1.481029   -1.451288
     28          1           0       -7.604328   -0.550145   -1.009986
     29          1           0       -7.588721   -1.284567    0.600380
     30          1           0       -7.593714   -2.313917   -0.841744
     31          6           0       -3.575315   -0.029285    0.161239
     32          6           0       -3.001698    1.262399    0.744763
     33          6           0       -1.472890    1.285248    0.740367
     34          1           0       -3.193250   -0.884383    0.735892
     35          1           0       -3.208268   -0.154477   -0.866647
     36          1           0       -3.370307    1.384628    1.771313
     37          1           0       -3.385825    2.114901    0.170044
     38          1           0       -1.089094    1.188166   -0.280356
     39          1           0       -1.073487    0.453744    1.330010
     40          1           0       -1.084100    2.217516    1.161769
 ---------------------------------------------------------------------

 SCF Done:  E(RHF) =  -470.732603717     A.U. after   11 cycles
 E2 =    -0.1582638973D+01 EUMP2 =    -0.47231524268939D+03

 The electronic state is 1-A.
 Alpha  occ. eigenvalues --  -11.21584 -11.21573 -11.21538 -11.21514 -11.21376
 Alpha  occ. eigenvalues --  -11.21358 -11.21316 -11.21296 -11.21058 -11.21050
 Alpha  occ. eigenvalues --  -11.20975 -11.20910  -1.08401  -1.08374  -1.03522
 Alpha  occ. eigenvalues --   -1.03443  -0.96023  -0.95847  -0.87105  -0.86808
 Alpha  occ. eigenvalues --   -0.79695  -0.79410  -0.78234  -0.78163  -0.65028
 Alpha  occ. eigenvalues --   -0.65009  -0.60894  -0.60876  -0.59324  -0.59287
 Alpha  occ. eigenvalues --   -0.57622  -0.57478  -0.55246  -0.55216  -0.52859
 Alpha  occ. eigenvalues --   -0.52587  -0.52455  -0.52093  -0.49881  -0.49835
 Alpha  occ. eigenvalues --   -0.48022  -0.47687  -0.46578  -0.46570  -0.45819
 Alpha  occ. eigenvalues --   -0.45698  -0.45658  -0.45606  -0.43758  -0.43683
 Alpha virt. eigenvalues --    0.22650   0.22964   0.23723   0.24702   0.26257
 Alpha virt. eigenvalues --    0.26460   0.26927   0.27565   0.27679   0.29233
 Alpha virt. eigenvalues --    0.29815   0.31227   0.31687   0.32002   0.32325

 Mulliken charges:
               1
     1  C   -0.298060
     2  C   -0.300063
     3  C   -0.479941
     4  H    0.149364
     5  H    0.149460
     6  H    0.151121
     7  H    0.151378
     8  H    0.165672
     9  H    0.153292
    10  H    0.158949
    11  C   -0.298188
    12  C   -0.299582
    13  C   -0.475668
    14  H    0.149417
    15  H    0.149520
    16  H    0.151859
    17  H    0.151819
    18  H    0.155124
    19  H    0.155134
    20  H    0.160126
    21  C   -0.298244
    22  C   -0.299583
    23  C   -0.475680
    24  H    0.149576
    25  H    0.149483
    26  H    0.151864
    27  H    0.151871
    28  H    0.155159
    29  H    0.155143
    30  H    0.160178
    31  C   -0.298361
    32  C   -0.300780
    33  C   -0.477813
    34  H    0.149336
    35  H    0.149517
    36  H    0.151296
    37  H    0.151846
    38  H    0.160739
    39  H    0.153726
    40  H    0.159995
 Sum of Mulliken charges =  -0.00000

 Dipole moment (field-independent basis, Debye):
    X=             -0.0124    Y=              0.0084    Z=              0.0052  Tot=              0.0158
 Quadrupole moment (field-independent basis, Debye-Ang):
   XX=            -87.3729   YY=            -84.8284   ZZ=            -82.9258
   XY=              0.1948   XZ=             -0.1635   YZ=             -0.1660

 Normal termination of Gaussian 16 at Wed May  5 23:07:52 2021.
