 Gaussian 16, Revision A.03,
 Gaussian 16:  EM64L-G16RevA.03 25-Dec-2016

 -------------
 #p 6-31g* mp2
 -------------

 ------------------------------------------------------
 Input file generated by CHIRIPA (05-May-2021 14:55:25)
 ------------------------------------------------------
 Symbolic Z-matrix:
 Charge =  0 Multiplicity = 1

                         Standard orientation:
 ---------------------------------------------------------------------
 Center     Atomic      Atomic             Coordinates (Angstroms)
 Number     Number       Type             X           Y           Z
 ---------------------------------------------------------------------
      1          6           0        3.894066    2.098234    0.589957
      2          6           0        2.553590    1.915826    0.945445
      3          6           0        1.882147    0.738329    0.603084
      4          6           0        2.584904   -0.240362   -0.098050
      5          6           0        3.920714   -0.088210   -0.466493
      6          6           0        4.572155    1.097398   -0.113637
      7          1           0        4.407890    3.016092    0.859988
      8          1           0        2.024465    2.691381    1.491877
      9          1           0        0.844625    0.571010    0.865706
     10          1           0        4.421702   -0.879318   -1.011081
     11          1           0        5.613210    1.236322   -0.391032
     12          7           0        1.884665   -1.491219   -0.466048
     13          8           0        2.526142   -2.338252   -1.083850
     14          8           0        0.707600   -1.600923   -0.129714
     15          6           0       -3.767182    0.557388   -0.424416
     16          6           0       -3.607553    1.999488    0.058132
     17          6           0       -4.234403    3.015369   -0.897293
     18          1           0       -3.311032    0.457598   -1.418859
     19          1           0       -4.836311    0.335420   -0.547242
     20          1           0       -2.539102    2.218232    0.181336
     21          1           0       -4.063967    2.095810    1.051623
     22          1           0       -5.306402    2.825288   -1.012570
     23          1           0       -3.772872    2.948406   -1.887802
     24          1           0       -4.108736    4.039754   -0.533010
     25          6           0       -3.145616   -0.469822    0.520159
     26          6           0       -3.305245   -1.911921    0.037609
     27          6           0       -2.678395   -2.927803    0.993035
     28          1           0       -2.076486   -0.247854    0.642983
     29          1           0       -3.601766   -0.370031    1.514600
     30          1           0       -2.848830   -2.008244   -0.955881
     31          1           0       -4.373695   -2.130665   -0.085594
     32          1           0       -3.139925   -2.860839    1.983544
     33          1           0       -1.606397   -2.737722    1.108312
     34          1           0       -2.804061   -3.952188    0.628751
 ---------------------------------------------------------------------

 SCF Done:  E(RHF) =  -669.536313219     A.U. after   15 cycles
 E2 =    -0.2091739058D+01 EUMP2 =    -0.67162805227682D+03

 The electronic state is 1-A.
 Alpha  occ. eigenvalues --  -20.61011 -20.60997 -15.86044 -11.31330 -11.27892
 Alpha  occ. eigenvalues --  -11.27886 -11.27620 -11.26890 -11.26880 -11.21449
 Alpha  occ. eigenvalues --  -11.20961 -11.20919 -11.20671 -11.20546 -11.19713
 Alpha  occ. eigenvalues --   -1.60066  -1.39625  -1.19495  -1.08905  -1.07840
 Alpha  occ. eigenvalues --   -1.04887  -1.02862  -0.95754  -0.95307  -0.86336
 Alpha  occ. eigenvalues --   -0.86287  -0.82591  -0.79009  -0.77705  -0.77537
 Alpha  occ. eigenvalues --   -0.72278  -0.71378  -0.70605  -0.65160  -0.64891
 Alpha  occ. eigenvalues --   -0.64451  -0.62236  -0.60224  -0.58767  -0.56913
 Alpha  occ. eigenvalues --   -0.55392  -0.54570  -0.53220  -0.52979  -0.52026
 Alpha  occ. eigenvalues --   -0.51740  -0.49332  -0.49020  -0.48928  -0.47296
 Alpha  occ. eigenvalues --   -0.46054  -0.45138  -0.45058  -0.44952  -0.43138
 Alpha  occ. eigenvalues --   -0.37472  -0.36487
 Alpha virt. eigenvalues --    0.04869   0.11166   0.16367   0.20251   0.22992
 Alpha virt. eigenvalues --    0.24654   0.25398   0.27479   0.27733   0.28739
 Alpha virt. eigenvalues --    0.29348   0.31035   0.31792   0.32175   0.32558

 Mulliken charges:
               1
     1  C   -0.170261
     2  C   -0.219621
     3  C   -0.172537
     4  C    0.156781
     5  C   -0.170162
     6  C   -0.218752
     7  H    0.226217
     8  H    0.224531
     9  H    0.279142
    10  H    0.275905
    11  H    0.223958
    12  N    0.494554
    13  O   -0.458146
    14  O   -0.468135
    15  C   -0.298185
    16  C   -0.297352
    17  C   -0.475232
    18  H    0.151418
    19  H    0.148823
    20  H    0.143725
    21  H    0.150849
    22  H    0.156137
    23  H    0.155405
    24  H    0.157196
    25  C   -0.302225
    26  C   -0.296096
    27  C   -0.484054
    28  H    0.154667
    29  H    0.144876
    30  H    0.158590
    31  H    0.145669
    32  H    0.145466
    33  H    0.179194
    34  H    0.157654
 Sum of Mulliken charges =  -0.00000

 Dipole moment (field-independent basis, Debye):
    X=              2.7477    Y=              4.3071    Z=              1.2148  Tot=              5.2514
 Quadrupole moment (field-independent basis, Debye-Ang):
   XX=            -78.7004   YY=            -97.7972   ZZ=            -94.9919
   XY=              9.8003   XZ=              0.6602   YZ=              0.8260

 Normal termination of Gaussian 16 at Wed May  5 16:10:06 2021.
