 Gaussian 16, Revision A.03,
 Gaussian 16:  EM64L-G16RevA.03 25-Dec-2016

 -------------
 #p 6-31g* mp2
 -------------

 ------------------------------------------------------
 Input file generated by CHIRIPA (05-May-2021 14:51:12)
 ------------------------------------------------------
 Symbolic Z-matrix:
 Charge =  0 Multiplicity = 1

                         Standard orientation:
 ---------------------------------------------------------------------
 Center     Atomic      Atomic             Coordinates (Angstroms)
 Number     Number       Type             X           Y           Z
 ---------------------------------------------------------------------
      1          6           0       -3.545136    0.005709    0.695574
      2          6           0       -2.096666   -0.238036    0.270713
      3          6           0       -1.086152    0.241913    1.312972
      4          1           0       -3.690232    1.078588    0.882185
      5          1           0       -3.730859   -0.505536    1.650315
      6          1           0       -1.914127    0.272370   -0.683636
      7          1           0       -1.955051   -1.310434    0.084906
      8          1           0       -1.239700   -0.275754    2.265361
      9          1           0       -1.198543    1.316044    1.492452
     10          1           0       -0.057077    0.057950    0.988899
     11          6           0       -4.567083   -0.468773   -0.336036
     12          6           0       -6.015553   -0.225028    0.088825
     13          6           0       -7.026067   -0.704977   -0.953434
     14          1           0       -4.381360    0.042472   -1.290777
     15          1           0       -4.421987   -1.541652   -0.522647
     16          1           0       -6.157168    0.847370    0.274631
     17          1           0       -6.198092   -0.735434    1.043173
     18          1           0       -6.913676   -1.779108   -1.132915
     19          1           0       -6.872519   -0.187311   -1.905824
     20          1           0       -8.055142   -0.521015   -0.629362
     21          6           0        4.233955   -0.500544   -0.053804
     22          6           0        5.716818   -0.809038   -0.263409
     23          6           0        6.057020   -2.277587   -0.007634
     24          1           0        3.951399   -0.770406    0.972978
     25          1           0        3.636261   -1.137787   -0.720197
     26          1           0        6.311599   -0.170420    0.402188
     27          1           0        5.995922   -0.538232   -1.289753
     28          1           0        5.488860   -2.927563   -0.680930
     29          1           0        5.806332   -2.557660    1.020624
     30          1           0        7.122057   -2.475947   -0.163224
     31          6           0        3.878264    0.963608   -0.305734
     32          6           0        2.395401    1.272102   -0.096128
     33          6           0        2.055198    2.740651   -0.351903
     34          1           0        4.475958    1.600852    0.360659
     35          1           0        4.160820    1.233470   -1.332516
     36          1           0        2.116297    1.001296    0.930215
     37          1           0        1.800620    0.633484   -0.761725
     38          1           0        2.305888    3.020724   -1.380162
     39          1           0        2.623359    3.390627    0.321392
     40          1           0        0.990161    2.939011   -0.196313
 ---------------------------------------------------------------------

 SCF Done:  E(RHF) =  -470.732765503     A.U. after   11 cycles
 E2 =    -0.1582927199D+01 EUMP2 =    -0.47231569270244D+03

 The electronic state is 1-A.
 Alpha  occ. eigenvalues --  -11.21608 -11.21597 -11.21584 -11.21556 -11.21411
 Alpha  occ. eigenvalues --  -11.21376 -11.21350 -11.21315 -11.21075 -11.21071
 Alpha  occ. eigenvalues --  -11.21058 -11.20924  -1.08446  -1.08393  -1.03566
 Alpha  occ. eigenvalues --   -1.03464  -0.96012  -0.95910  -0.87012  -0.86948
 Alpha  occ. eigenvalues --   -0.79686  -0.79495  -0.78267  -0.78208  -0.65070
 Alpha  occ. eigenvalues --   -0.65029  -0.60938  -0.60895  -0.59600  -0.59124
 Alpha  occ. eigenvalues --   -0.57723  -0.57402  -0.55271  -0.55215  -0.52742
 Alpha  occ. eigenvalues --   -0.52586  -0.52435  -0.52332  -0.49926  -0.49875
 Alpha  occ. eigenvalues --   -0.48068  -0.47709  -0.46652  -0.46580  -0.45798
 Alpha  occ. eigenvalues --   -0.45743  -0.45726  -0.45677  -0.43831  -0.43627
 Alpha virt. eigenvalues --    0.21753   0.23035   0.23489   0.25104   0.26450
 Alpha virt. eigenvalues --    0.26588   0.26732   0.27362   0.27757   0.29052
 Alpha virt. eigenvalues --    0.30740   0.30965   0.31228   0.31910   0.32563

 Mulliken charges:
               1
     1  C   -0.298273
     2  C   -0.299475
     3  C   -0.484134
     4  H    0.149436
     5  H    0.149473
     6  H    0.151412
     7  H    0.151557
     8  H    0.153962
     9  H    0.154016
    10  H    0.171429
    11  C   -0.298207
    12  C   -0.299600
    13  C   -0.475678
    14  H    0.149375
    15  H    0.149533
    16  H    0.151898
    17  H    0.151892
    18  H    0.155131
    19  H    0.155132
    20  H    0.160192
    21  C   -0.298633
    22  C   -0.299586
    23  C   -0.475726
    24  H    0.149593
    25  H    0.149356
    26  H    0.152002
    27  H    0.151984
    28  H    0.155171
    29  H    0.155221
    30  H    0.160286
    31  C   -0.297205
    32  C   -0.303756
    33  C   -0.476600
    34  H    0.149552
    35  H    0.149511
    36  H    0.155587
    37  H    0.152356
    38  H    0.154985
    39  H    0.155213
    40  H    0.161617
 Sum of Mulliken charges =  -0.00000

 Dipole moment (field-independent basis, Debye):
    X=              0.0450    Y=              0.0058    Z=              0.0001  Tot=              0.0454
 Quadrupole moment (field-independent basis, Debye-Ang):
   XX=            -85.7681   YY=            -85.0270   ZZ=            -84.0899
   XY=              0.2401   XZ=             -0.3900   YZ=             -0.2458

 Normal termination of Gaussian 16 at Thu May  6 00:43:00 2021.
