 Gaussian 16, Revision A.03,
 Gaussian 16:  EM64L-G16RevA.03 25-Dec-2016

 -------------
 #p 6-31g* mp2
 -------------

 ------------------------------------------------------
 Input file generated by CHIRIPA (05-May-2021 14:57:26)
 ------------------------------------------------------
 Symbolic Z-matrix:
 Charge =  0 Multiplicity = 1

                         Standard orientation:
 ---------------------------------------------------------------------
 Center     Atomic      Atomic             Coordinates (Angstroms)
 Number     Number       Type             X           Y           Z
 ---------------------------------------------------------------------
      1          6           0        0.826566    1.320503   -1.742765
      2          6           0        0.617217   -0.022121   -1.411021
      3          6           0        1.591307   -0.740910   -0.711708
      4          6           0        2.768279   -0.082795   -0.358283
      5          6           0        3.006325    1.253894   -0.674333
      6          6           0        2.018350    1.953110   -1.374012
      7          1           0        0.064476    1.871274   -2.286150
      8          1           0       -0.307374   -0.515986   -1.696106
      9          1           0        1.455235   -1.781208   -0.442110
     10          1           0        3.938169    1.719077   -0.376528
     11          1           0        2.183659    2.995717   -1.630310
     12          7           0        3.806854   -0.833385    0.382243
     13          8           0        4.835185   -0.230684    0.682114
     14          8           0        3.572892   -2.010186    0.648773
     15          6           0       -4.269249   -1.125299   -1.066917
     16          6           0       -4.458449    0.195299   -0.646505
     17          6           0       -3.538413    0.806246    0.210715
     18          6           0       -2.435454    0.063924    0.629913
     19          6           0       -2.219237   -1.253455    0.228597
     20          6           0       -3.152216   -1.844193   -0.628797
     21          1           0       -4.988983   -1.592048   -1.732894
     22          1           0       -5.325029    0.756012   -0.985153
     23          1           0       -3.660433    1.827166    0.551673
     24          1           0       -1.345672   -1.786996    0.583051
     25          1           0       -3.002719   -2.869938   -0.953673
     26          7           0       -1.454602    0.700009    1.537505
     27          8           0       -0.491094    0.024571    1.892573
     28          8           0       -1.667889    1.861967    1.876622
 ---------------------------------------------------------------------

 SCF Done:  E(RHF) =  -868.335611865     A.U. after   16 cycles
 E2 =    -0.2604753025D+01 EUMP2 =    -0.87094036489046D+03

 The electronic state is 1-A.
 Alpha  occ. eigenvalues --  -20.61314 -20.61253 -20.60172 -20.60165 -15.86321
 Alpha  occ. eigenvalues --  -15.85226 -11.31936 -11.30574 -11.28546 -11.28523
 Alpha  occ. eigenvalues --  -11.28282 -11.27599 -11.27551 -11.27247 -11.27148
 Alpha  occ. eigenvalues --  -11.26973 -11.26188 -11.26176  -1.60341  -1.59237
 Alpha  occ. eigenvalues --   -1.39895  -1.38796  -1.20158  -1.18762  -1.09473
 Alpha  occ. eigenvalues --   -1.08178  -1.05599  -1.04204  -0.96275  -0.95017
 Alpha  occ. eigenvalues --   -0.86959  -0.85615  -0.83102  -0.81880  -0.78128
 Alpha  occ. eigenvalues --   -0.76909  -0.72558  -0.71689  -0.71463  -0.71219
 Alpha  occ. eigenvalues --   -0.70533  -0.69947  -0.65778  -0.65554  -0.64456
 Alpha  occ. eigenvalues --   -0.64290  -0.62929  -0.61590  -0.56024  -0.54780
 Alpha  occ. eigenvalues --   -0.53964  -0.53641  -0.52482  -0.52245  -0.49333
 Alpha  occ. eigenvalues --   -0.49298  -0.48213  -0.48207  -0.45249  -0.44207
 Alpha  occ. eigenvalues --   -0.38187  -0.37255  -0.36682  -0.35617
 Alpha virt. eigenvalues --    0.04290   0.05724   0.10316   0.11961   0.15804
 Alpha virt. eigenvalues --    0.17170   0.20318   0.21979   0.25660   0.27123
 Alpha virt. eigenvalues --    0.28229   0.29003   0.30308   0.31214   0.31938

 Mulliken charges:
               1
     1  C   -0.172850
     2  C   -0.227749
     3  C   -0.155890
     4  C    0.162578
     5  C   -0.168255
     6  C   -0.215117
     7  H    0.222075
     8  H    0.220482
     9  H    0.267487
    10  H    0.275094
    11  H    0.222176
    12  N    0.489052
    13  O   -0.461062
    14  O   -0.462624
    15  C   -0.171389
    16  C   -0.219120
    17  C   -0.173149
    18  C    0.162449
    19  C   -0.184178
    20  C   -0.221558
    21  H    0.228476
    22  H    0.225848
    23  H    0.277358
    24  H    0.278047
    25  H    0.226495
    26  N    0.490082
    27  O   -0.454364
    28  O   -0.460394
 Sum of Mulliken charges =  -0.00000

 Dipole moment (field-independent basis, Debye):
    X=             -7.1685    Y=              0.4809    Z=             -5.5850  Tot=              9.1000
 Quadrupole moment (field-independent basis, Debye-Ang):
   XX=           -105.4872   YY=            -99.1115   ZZ=           -108.7407
   XY=             13.2499   XZ=              0.0485   YZ=             -2.3170

 Normal termination of Gaussian 16 at Thu May  6 03:36:59 2021.
