 Gaussian 16, Revision A.03,
 Gaussian 16:  EM64L-G16RevA.03 25-Dec-2016

 -------------
 #p 6-31g* mp2
 -------------

 ------------------------------------------------------
 Input file generated by CHIRIPA (05-May-2021 14:57:24)
 ------------------------------------------------------
 Symbolic Z-matrix:
 Charge =  0 Multiplicity = 1

                         Standard orientation:
 ---------------------------------------------------------------------
 Center     Atomic      Atomic             Coordinates (Angstroms)
 Number     Number       Type             X           Y           Z
 ---------------------------------------------------------------------
      1          6           0        6.159236   -1.071888   -0.772097
      2          6           0        6.255248   -0.012182    0.135827
      3          6           0        5.102575    0.598068    0.639301
      4          6           0        3.864531    0.121088    0.211482
      5          6           0        3.736107   -0.932763   -0.691953
      6          6           0        4.902188   -1.527993   -1.182366
      7          1           0        7.059868   -1.540111   -1.158135
      8          1           0        7.230157    0.344120    0.456209
      9          1           0        5.147993    1.420187    1.343201
     10          1           0        2.750250   -1.265964   -0.992753
     11          1           0        4.824593   -2.350793   -1.887364
     12          7           0        2.637151    0.759182    0.737574
     13          8           0        1.558269    0.320407    0.344984
     14          8           0        2.777252    1.686013    1.532554
     15          6           0       -3.138086    2.191346   -0.919347
     16          6           0       -2.282265    1.103284   -0.718814
     17          6           0       -2.785829   -0.124444   -0.278751
     18          6           0       -4.156605   -0.229314   -0.047960
     19          6           0       -5.034870    0.836342   -0.238533
     20          6           0       -4.509239    2.054644   -0.678991
     21          1           0       -2.738335    3.141413   -1.261353
     22          1           0       -1.216979    1.206552   -0.904676
     23          1           0       -2.145861   -0.983028   -0.115367
     24          1           0       -6.092257    0.702866   -0.044796
     25          1           0       -5.176248    2.897944   -0.833874
     26          7           0       -4.701385   -1.524064    0.418125
     27          8           0       -5.912877   -1.590675    0.614309
     28          8           0       -3.906578   -2.447763    0.578432
 ---------------------------------------------------------------------

 SCF Done:  E(RHF) =  -868.339969780     A.U. after   16 cycles
 E2 =    -0.2598232515D+01 EUMP2 =    -0.87093820229561D+03

 The electronic state is 1-A.
 Alpha  occ. eigenvalues --  -20.61584 -20.61530 -20.60034 -20.60027 -15.86596
 Alpha  occ. eigenvalues --  -15.85076 -11.31719 -11.30257 -11.28266 -11.28248
 Alpha  occ. eigenvalues --  -11.27949 -11.27216 -11.27206 -11.26842 -11.26694
 Alpha  occ. eigenvalues --  -11.26488 -11.25857 -11.25583  -1.60618  -1.59111
 Alpha  occ. eigenvalues --   -1.40182  -1.38669  -1.19866  -1.18396  -1.09304
 Alpha  occ. eigenvalues --   -1.07833  -1.05233  -1.03745  -0.96180  -0.94702
 Alpha  occ. eigenvalues --   -0.86643  -0.85161  -0.83026  -0.81520  -0.78099
 Alpha  occ. eigenvalues --   -0.76589  -0.72830  -0.71921  -0.71302  -0.70971
 Alpha  occ. eigenvalues --   -0.70429  -0.69521  -0.65525  -0.65231  -0.64039
 Alpha  occ. eigenvalues --   -0.63719  -0.62584  -0.61077  -0.55738  -0.54285
 Alpha  occ. eigenvalues --   -0.53574  -0.53321  -0.52118  -0.51812  -0.49585
 Alpha  occ. eigenvalues --   -0.49544  -0.48065  -0.48040  -0.45636  -0.44115
 Alpha  occ. eigenvalues --   -0.37830  -0.36825  -0.36391  -0.35340
 Alpha virt. eigenvalues --    0.04406   0.05901   0.10833   0.12302   0.15938
 Alpha virt. eigenvalues --    0.17446   0.20978   0.22472   0.26924   0.27678
 Alpha virt. eigenvalues --    0.28563   0.29236   0.30613   0.31894   0.32262

 Mulliken charges:
               1
     1  C   -0.169922
     2  C   -0.218497
     3  C   -0.170451
     4  C    0.157769
     5  C   -0.170446
     6  C   -0.218381
     7  H    0.227691
     8  H    0.225174
     9  H    0.276289
    10  H    0.274162
    11  H    0.225611
    12  N    0.490847
    13  O   -0.471173
    14  O   -0.456332
    15  C   -0.172011
    16  C   -0.220735
    17  C   -0.171944
    18  C    0.157828
    19  C   -0.173119
    20  C   -0.218642
    21  H    0.223814
    22  H    0.240796
    23  H    0.277098
    24  H    0.272150
    25  H    0.219722
    26  N    0.488193
    27  O   -0.463553
    28  O   -0.461938
 Sum of Mulliken charges =  -0.00000

 Dipole moment (field-independent basis, Debye):
    X=              6.8000    Y=              2.3300    Z=             -3.4874  Tot=              7.9895
 Quadrupole moment (field-independent basis, Debye-Ang):
   XX=            -82.3769   YY=           -105.8310   ZZ=           -105.3630
   XY=            -27.9754   XZ=              1.9914   YZ=              1.6724

 Normal termination of Gaussian 16 at Wed May  5 16:24:00 2021.
