 Gaussian 16, Revision A.03,
 Gaussian 16:  EM64L-G16RevA.03 25-Dec-2016

 -------------
 #p 6-31g* mp2
 -------------

 ------------------------------------------------------
 Input file generated by CHIRIPA (05-May-2021 14:51:10)
 ------------------------------------------------------
 Symbolic Z-matrix:
 Charge =  0 Multiplicity = 1

                         Standard orientation:
 ---------------------------------------------------------------------
 Center     Atomic      Atomic             Coordinates (Angstroms)
 Number     Number       Type             X           Y           Z
 ---------------------------------------------------------------------
      1          6           0        1.747452   -0.259915    0.750599
      2          6           0        1.485214   -1.311993    1.828722
      3          6           0        0.088605   -1.196409    2.440209
      4          1           0        1.617311    0.740924    1.184569
      5          1           0        0.990712   -0.358623   -0.039967
      6          1           0        2.243052   -1.212228    2.616342
      7          1           0        1.616182   -2.310440    1.392184
      8          1           0       -0.680267   -1.317646    1.670314
      9          1           0       -0.049835   -0.213194    2.901428
     10          1           0       -0.077552   -1.957971    3.208504
     11          6           0        3.139517   -0.362564    0.129836
     12          6           0        3.401754    0.689514   -0.948287
     13          6           0        4.798364    0.573930   -1.559774
     14          1           0        3.896257   -0.263855    0.920403
     15          1           0        3.269657   -1.363403   -0.304134
     16          1           0        3.270787    1.687961   -0.511748
     17          1           0        2.643917    0.589750   -1.735907
     18          1           0        4.936804   -0.409285   -2.020993
     19          1           0        5.567236    0.695167   -0.789879
     20          1           0        4.964520    1.335492   -2.328068
     21          6           0       -2.029454    0.950815   -0.385873
     22          6           0       -2.774895    2.099776    0.293974
     23          6           0       -1.933531    3.372427    0.395264
     24          1           0       -1.107417    0.739023    0.172641
     25          1           0       -1.719964    1.267867   -1.391403
     26          1           0       -3.084093    1.780175    1.297402
     27          1           0       -3.695360    2.308730   -0.266114
     28          1           0       -1.636580    3.718164   -0.600170
     29          1           0       -1.021839    3.186606    0.972230
     30          1           0       -2.485738    4.180891    0.884458
     31          6           0       -2.857515   -0.328337   -0.494562
     32          6           0       -2.112074   -1.477297   -1.174410
     33          6           0       -2.953438   -2.749948   -1.275699
     34          1           0       -3.167004   -0.645388    0.510967
     35          1           0       -3.779551   -0.116545   -1.053076
     36          1           0       -1.191608   -1.686251   -0.614322
     37          1           0       -1.802876   -1.157697   -2.177837
     38          1           0       -3.865129   -2.564127   -1.852665
     39          1           0       -3.250390   -3.095685   -0.280266
     40          1           0       -2.401230   -3.558412   -1.764894
 ---------------------------------------------------------------------

 SCF Done:  E(RHF) =  -470.731719395     A.U. after   11 cycles
 E2 =    -0.1585665873D+01 EUMP2 =    -0.47231738526847D+03

 The electronic state is 1-A.
 Alpha  occ. eigenvalues --  -11.21669 -11.21648 -11.21600 -11.21538 -11.21423
 Alpha  occ. eigenvalues --  -11.21371 -11.21364 -11.21228 -11.21138 -11.21108
 Alpha  occ. eigenvalues --  -11.21071 -11.21034  -1.08520  -1.08370  -1.03583
 Alpha  occ. eigenvalues --   -1.03518  -0.96028  -0.95963  -0.87056  -0.86974
 Alpha  occ. eigenvalues --   -0.79658  -0.79596  -0.78532  -0.77995  -0.65372
 Alpha  occ. eigenvalues --   -0.64856  -0.61158  -0.60747  -0.59400  -0.59327
 Alpha  occ. eigenvalues --   -0.57640  -0.57575  -0.55328  -0.55247  -0.52722
 Alpha  occ. eigenvalues --   -0.52667  -0.52478  -0.52376  -0.50079  -0.49805
 Alpha  occ. eigenvalues --   -0.48043  -0.47920  -0.46881  -0.46605  -0.46378
 Alpha  occ. eigenvalues --   -0.45760  -0.45698  -0.44768  -0.43819  -0.43754
 Alpha virt. eigenvalues --    0.20438   0.22908   0.23235   0.24255   0.25845
 Alpha virt. eigenvalues --    0.26512   0.26728   0.28005   0.28515   0.30059
 Alpha virt. eigenvalues --    0.30537   0.31342   0.31557   0.31720   0.32312

 Mulliken charges:
               1
     1  C   -0.307608
     2  C   -0.298862
     3  C   -0.484446
     4  H    0.149141
     5  H    0.158173
     6  H    0.152365
     7  H    0.151787
     8  H    0.163123
     9  H    0.154931
    10  H    0.160899
    11  C   -0.297235
    12  C   -0.299788
    13  C   -0.475760
    14  H    0.149447
    15  H    0.149631
    16  H    0.152097
    17  H    0.152431
    18  H    0.155151
    19  H    0.155146
    20  H    0.160334
    21  C   -0.308569
    22  C   -0.299058
    23  C   -0.475660
    24  H    0.163056
    25  H    0.148093
    26  H    0.151943
    27  H    0.151406
    28  H    0.155141
    29  H    0.154766
    30  H    0.159950
    31  C   -0.299684
    32  C   -0.307214
    33  C   -0.475459
    34  H    0.150011
    35  H    0.150314
    36  H    0.156534
    37  H    0.152177
    38  H    0.155711
    39  H    0.155499
    40  H    0.160085
 Sum of Mulliken charges =  -0.00000

 Dipole moment (field-independent basis, Debye):
    X=              0.0218    Y=             -0.0155    Z=              0.0001  Tot=              0.0267
 Quadrupole moment (field-independent basis, Debye-Ang):
   XX=            -85.7872   YY=            -85.3258   ZZ=            -83.8035
   XY=             -0.3429   XZ=              1.0028   YZ=              0.0524

 Normal termination of Gaussian 16 at Thu May  6 06:58:40 2021.
