 Gaussian 16, Revision A.03,
 Gaussian 16:  EM64L-G16RevA.03 25-Dec-2016

 -------------
 #p 6-31g* mp2
 -------------

 ------------------------------------------------------
 Input file generated by CHIRIPA (05-May-2021 14:53:14)
 ------------------------------------------------------
 Symbolic Z-matrix:
 Charge =  0 Multiplicity = 1

                         Standard orientation:
 ---------------------------------------------------------------------
 Center     Atomic      Atomic             Coordinates (Angstroms)
 Number     Number       Type             X           Y           Z
 ---------------------------------------------------------------------
      1          6           0        4.142921   -0.596698    0.003591
      2          6           0        3.648250   -1.916976   -0.588143
      3          6           0        4.543060   -3.101270   -0.221322
      4          1           0        5.166947   -0.406443   -0.345866
      5          1           0        4.198203   -0.690846    1.096969
      6          1           0        3.592599   -1.819917   -1.679976
      7          1           0        2.625213   -2.104015   -0.237390
      8          1           0        4.590093   -3.226531    0.865278
      9          1           0        5.562976   -2.940819   -0.585504
     10          1           0        4.171030   -4.034899   -0.654668
     11          6           0        3.258773    0.596582   -0.354311
     12          6           0        3.753445    1.916861    0.237423
     13          6           0        2.858635    3.101154   -0.129399
     14          1           0        3.203492    0.690730   -1.447689
     15          1           0        2.234748    0.406327   -0.004854
     16          1           0        4.776482    2.103899   -0.113330
     17          1           0        3.809096    1.819801    1.329255
     18          1           0        1.838719    2.940703    0.234784
     19          1           0        2.811601    3.226415   -1.215998
     20          1           0        3.230665    4.034783    0.303948
     21          6           0       -0.611522    0.573392    1.053444
     22          6           0       -1.497724   -0.197434    1.813044
     23          6           0       -2.763423   -0.521180    1.315302
     24          6           0       -3.111686   -0.055383    0.048402
     25          6           0       -2.250979    0.714460   -0.732505
     26          6           0       -0.990310    1.026081   -0.214671
     27          1           0        0.369750    0.820176    1.447906
     28          1           0       -1.206247   -0.550364    2.798196
     29          1           0       -3.469115   -1.116294    1.882095
     30          1           0       -2.569930    1.051885   -1.711195
     31          1           0       -0.304130    1.624886   -0.806814
     32          7           0       -4.448963   -0.391701   -0.489170
     33          8           0       -4.731813    0.030818   -1.608147
     34          8           0       -5.188947   -1.071456    0.218637
 ---------------------------------------------------------------------

 SCF Done:  E(RHF) =  -669.535106950     A.U. after   15 cycles
 E2 =    -0.2092599148D+01 EUMP2 =    -0.67162770609751D+03

 The electronic state is 1-A.
 Alpha  occ. eigenvalues --  -20.60758 -20.60753 -15.85811 -11.31188 -11.27750
 Alpha  occ. eigenvalues --  -11.27735 -11.27476 -11.26773 -11.26734 -11.22676
 Alpha  occ. eigenvalues --  -11.22450 -11.22291 -11.22266 -11.22196 -11.21607
 Alpha  occ. eigenvalues --   -1.59833  -1.39386  -1.19355  -1.09375  -1.08750
 Alpha  occ. eigenvalues --   -1.04754  -1.04420  -0.96882  -0.95589  -0.87896
 Alpha  occ. eigenvalues --   -0.86156  -0.82417  -0.80494  -0.79165  -0.77455
 Alpha  occ. eigenvalues --   -0.72029  -0.71156  -0.70512  -0.66033  -0.65002
 Alpha  occ. eigenvalues --   -0.64744  -0.62126  -0.61789  -0.60248  -0.58480
 Alpha  occ. eigenvalues --   -0.56219  -0.55267  -0.53541  -0.53339  -0.53059
 Alpha  occ. eigenvalues --   -0.52831  -0.50838  -0.48824  -0.48785  -0.48754
 Alpha  occ. eigenvalues --   -0.47529  -0.46681  -0.46598  -0.44790  -0.44671
 Alpha  occ. eigenvalues --   -0.37320  -0.36351
 Alpha virt. eigenvalues --    0.05037   0.11219   0.16459   0.18780   0.22505
 Alpha virt. eigenvalues --    0.23832   0.25406   0.25650   0.26851   0.28094
 Alpha virt. eigenvalues --    0.29361   0.30117   0.30862   0.31336   0.32263

 Mulliken charges:
               1
     1  C   -0.298185
     2  C   -0.300673
     3  C   -0.476227
     4  H    0.152965
     5  H    0.148460
     6  H    0.153931
     7  H    0.152501
     8  H    0.154952
     9  H    0.156457
    10  H    0.163081
    11  C   -0.305226
    12  C   -0.300952
    13  C   -0.479467
    14  H    0.152623
    15  H    0.144413
    16  H    0.157701
    17  H    0.151145
    18  H    0.146736
    19  H    0.158167
    20  H    0.166786
    21  C   -0.173764
    22  C   -0.219218
    23  C   -0.171101
    24  C    0.158746
    25  C   -0.171244
    26  C   -0.220514
    27  H    0.227714
    28  H    0.223363
    29  H    0.275573
    30  H    0.275810
    31  H    0.228115
    32  N    0.488017
    33  O   -0.460281
    34  O   -0.460403
 Sum of Mulliken charges =  -0.00000

 Dipole moment (field-independent basis, Debye):
    X=              4.9026    Y=              1.1590    Z=              1.8290  Tot=              5.3595
 Quadrupole moment (field-independent basis, Debye-Ang):
   XX=           -123.6656   YY=            -94.7526   ZZ=            -90.5693
   XY=             -2.6583   XZ=             -7.4583   YZ=             -2.5178

 Normal termination of Gaussian 16 at Wed May  5 17:05:47 2021.
