 Gaussian 16, Revision A.03,
 Gaussian 16:  EM64L-G16RevA.03 25-Dec-2016

 -------------
 #p 6-31g* mp2
 -------------

 ------------------------------------------------------
 Input file generated by CHIRIPA (05-May-2021 14:53:18)
 ------------------------------------------------------
 Symbolic Z-matrix:
 Charge =  0 Multiplicity = 1

                         Standard orientation:
 ---------------------------------------------------------------------
 Center     Atomic      Atomic             Coordinates (Angstroms)
 Number     Number       Type             X           Y           Z
 ---------------------------------------------------------------------
      1          6           0        4.225489    0.025955    0.370119
      2          6           0        4.923508   -0.615551   -0.829558
      3          6           0        6.359676   -0.123196   -1.010669
      4          1           0        4.227568    1.117624    0.246835
      5          1           0        4.804513   -0.187019    1.279386
      6          1           0        4.342598   -0.402600   -1.736097
      7          1           0        4.919597   -1.705831   -0.703497
      8          1           0        6.959367   -0.349655   -0.123151
      9          1           0        6.379090    0.960980   -1.161618
     10          1           0        6.839827   -0.594564   -1.873876
     11          6           0        2.788984   -0.456214    0.564273
     12          6           0        2.090965    0.185292    1.763950
     13          6           0        0.654797   -0.307063    1.945061
     14          1           0        2.209959   -0.243240   -0.344994
     15          1           0        2.786905   -1.547883    0.687557
     16          1           0        2.094876    1.275571    1.637889
     17          1           0        2.671874   -0.027660    2.670489
     18          1           0        0.635382   -1.391240    2.096010
     19          1           0        0.055106   -0.080604    1.057543
     20          1           0        0.174645    0.164305    2.808268
     21          6           0       -1.470253    2.335939   -0.597243
     22          6           0       -1.004235    1.180219   -1.232584
     23          6           0       -1.699689   -0.026457   -1.110835
     24          6           0       -2.862786   -0.041511   -0.342544
     25          6           0       -3.352514    1.093065    0.302586
     26          6           0       -2.640841    2.288756    0.166967
     27          1           0       -0.923708    3.269047   -0.697208
     28          1           0       -0.095435    1.213906   -1.826717
     29          1           0       -1.361346   -0.936086   -1.591999
     30          1           0       -4.261560    1.028342    0.888133
     31          1           0       -3.005109    3.184741    0.661504
     32          7           0       -3.607617   -1.313151   -0.206312
     33          8           0       -4.629682   -1.300122    0.476221
     34          8           0       -3.155248   -2.298812   -0.784646
 ---------------------------------------------------------------------

 SCF Done:  E(RHF) =  -669.534343795     A.U. after   15 cycles
 E2 =    -0.2093534013D+01 EUMP2 =    -0.67162787780803D+03

 The electronic state is 1-A.
 Alpha  occ. eigenvalues --  -20.60800 -20.60795 -15.85856 -11.31263 -11.27849
 Alpha  occ. eigenvalues --  -11.27824 -11.27597 -11.26867 -11.26851 -11.21967
 Alpha  occ. eigenvalues --  -11.21853 -11.21784 -11.21727 -11.21391 -11.20956
 Alpha  occ. eigenvalues --   -1.59874  -1.39427  -1.19464  -1.08839  -1.08761
 Alpha  occ. eigenvalues --   -1.04880  -1.03784  -0.96224  -0.95662  -0.87240
 Alpha  occ. eigenvalues --   -0.86255  -0.82496  -0.79861  -0.78594  -0.77532
 Alpha  occ. eigenvalues --   -0.72075  -0.71198  -0.70552  -0.65423  -0.65104
 Alpha  occ. eigenvalues --   -0.64854  -0.62208  -0.61221  -0.59602  -0.57864
 Alpha  occ. eigenvalues --   -0.55656  -0.55354  -0.53388  -0.52950  -0.52882
 Alpha  occ. eigenvalues --   -0.52458  -0.50077  -0.48837  -0.48826  -0.48147
 Alpha  occ. eigenvalues --   -0.46881  -0.46113  -0.46068  -0.44821  -0.44066
 Alpha  occ. eigenvalues --   -0.37438  -0.36374
 Alpha virt. eigenvalues --    0.04986   0.11116   0.16394   0.20541   0.22734
 Alpha virt. eigenvalues --    0.24157   0.25477   0.26767   0.27788   0.28251
 Alpha virt. eigenvalues --    0.28435   0.30730   0.31333   0.31661   0.31948

 Mulliken charges:
               1
     1  C   -0.298135
     2  C   -0.299273
     3  C   -0.475755
     4  H    0.146907
     5  H    0.151793
     6  H    0.148422
     7  H    0.154219
     8  H    0.156537
     9  H    0.154131
    10  H    0.161257
    11  C   -0.297129
    12  C   -0.298208
    13  C   -0.485417
    14  H    0.139837
    15  H    0.153490
    16  H    0.146389
    17  H    0.153168
    18  H    0.157137
    19  H    0.165908
    20  H    0.158737
    21  C   -0.169088
    22  C   -0.219880
    23  C   -0.177153
    24  C    0.164494
    25  C   -0.170582
    26  C   -0.217496
    27  H    0.226116
    28  H    0.224818
    29  H    0.276704
    30  H    0.276201
    31  H    0.224015
    32  N    0.488186
    33  O   -0.460221
    34  O   -0.460131
 Sum of Mulliken charges =  -0.00000

 Dipole moment (field-independent basis, Debye):
    X=              2.5399    Y=              4.4602    Z=             -0.4772  Tot=              5.1548
 Quadrupole moment (field-independent basis, Debye-Ang):
   XX=           -108.6453   YY=            -93.9716   ZZ=            -93.1422
   XY=            -15.5843   XZ=             -1.2927   YZ=             -0.4265

 Normal termination of Gaussian 16 at Wed May  5 15:46:27 2021.
