 Gaussian 16, Revision A.03,
 Gaussian 16:  EM64L-G16RevA.03 25-Dec-2016

 -------------
 #p 6-31g* mp2
 -------------

 ------------------------------------------------------
 Input file generated by CHIRIPA (05-May-2021 14:57:23)
 ------------------------------------------------------
 Symbolic Z-matrix:
 Charge =  0 Multiplicity = 1

                         Standard orientation:
 ---------------------------------------------------------------------
 Center     Atomic      Atomic             Coordinates (Angstroms)
 Number     Number       Type             X           Y           Z
 ---------------------------------------------------------------------
      1          6           0        5.699792    0.766870    0.745919
      2          6           0        4.523846    0.896583    1.492140
      3          6           0        3.320021    0.366895    1.018027
      4          6           0        3.328411   -0.289305   -0.211860
      5          6           0        4.483497   -0.434785   -0.978607
      6          6           0        5.675906    0.102770   -0.484903
      7          1           0        6.630518    1.181400    1.121830
      8          1           0        4.539418    1.411827    2.448345
      9          1           0        2.395050    0.452983    1.575196
     10          1           0        4.436604   -0.953725   -1.928302
     11          1           0        6.587632    0.000531   -1.066581
     12          7           0        2.060018   -0.854227   -0.724151
     13          8           0        2.093894   -1.427847   -1.810636
     14          8           0        1.055993   -0.712695   -0.029501
     15          6           0       -3.943703   -2.212397    0.759531
     16          6           0       -2.794887   -1.554414    1.210976
     17          6           0       -2.559526   -0.219949    0.866949
     18          6           0       -3.498183    0.429053    0.066318
     19          6           0       -4.652274   -0.199235   -0.399105
     20          6           0       -4.867102   -1.533903   -0.042655
     21          1           0       -4.118562   -3.249121    1.031605
     22          1           0       -2.076038   -2.078845    1.834093
     23          1           0       -1.678532    0.313507    1.202645
     24          1           0       -5.350681    0.349855   -1.018901
     25          1           0       -5.760166   -2.042378   -0.394699
     26          7           0       -3.259885    1.841900   -0.304464
     27          8           0       -4.102191    2.391458   -1.010966
     28          8           0       -2.235315    2.372978    0.118440
 ---------------------------------------------------------------------

 SCF Done:  E(RHF) =  -868.339057638     A.U. after   16 cycles
 E2 =    -0.2598736912D+01 EUMP2 =    -0.87093779454945D+03

 The electronic state is 1-A.
 Alpha  occ. eigenvalues --  -20.61051 -20.61017 -20.59907 -20.59897 -15.86087
 Alpha  occ. eigenvalues --  -15.84953 -11.31307 -11.30131 -11.27873 -11.27855
 Alpha  occ. eigenvalues --  -11.27581 -11.26850 -11.26840 -11.26771 -11.26622
 Alpha  occ. eigenvalues --  -11.26489 -11.25771 -11.25642  -1.60096  -1.58979
 Alpha  occ. eigenvalues --   -1.39659  -1.38538  -1.19466  -1.18312  -1.08887
 Alpha  occ. eigenvalues --   -1.07760  -1.04853  -1.03685  -0.95749  -0.94616
 Alpha  occ. eigenvalues --   -0.86259  -0.85111  -0.82595  -0.81452  -0.77657
 Alpha  occ. eigenvalues --   -0.76504  -0.72329  -0.71400  -0.71187  -0.70583
 Alpha  occ. eigenvalues --   -0.70289  -0.69454  -0.65130  -0.64858  -0.63981
 Alpha  occ. eigenvalues --   -0.63715  -0.62207  -0.61036  -0.55362  -0.54257
 Alpha  occ. eigenvalues --   -0.53183  -0.52948  -0.52026  -0.51796  -0.49071
 Alpha  occ. eigenvalues --   -0.49041  -0.47940  -0.47926  -0.45093  -0.43984
 Alpha  occ. eigenvalues --   -0.37437  -0.36446  -0.36318  -0.35248
 Alpha virt. eigenvalues --    0.04881   0.06024   0.11210   0.12385   0.16400
 Alpha virt. eigenvalues --    0.17528   0.21249   0.22392   0.27076   0.27706
 Alpha virt. eigenvalues --    0.28545   0.29316   0.30891   0.31819   0.32360

 Mulliken charges:
               1
     1  C   -0.170259
     2  C   -0.218219
     3  C   -0.168752
     4  C    0.158815
     5  C   -0.170496
     6  C   -0.218454
     7  H    0.226380
     8  H    0.224370
     9  H    0.273118
    10  H    0.275833
    11  H    0.224030
    12  N    0.491929
    13  O   -0.457808
    14  O   -0.469392
    15  C   -0.170766
    16  C   -0.215460
    17  C   -0.158915
    18  C    0.156000
    19  C   -0.171534
    20  C   -0.219271
    21  H    0.222166
    22  H    0.223398
    23  H    0.279149
    24  H    0.272200
    25  H    0.219467
    26  N    0.488741
    27  O   -0.464354
    28  O   -0.461918
 Sum of Mulliken charges =  -0.00000

 Dipole moment (field-independent basis, Debye):
    X=              3.9975    Y=             -3.0128    Z=              3.1136  Tot=              5.8951
 Quadrupole moment (field-independent basis, Debye-Ang):
   XX=            -65.7725   YY=           -111.4079   ZZ=           -101.5683
   XY=             21.9232   XZ=              0.7227   YZ=              0.9357

 Normal termination of Gaussian 16 at Wed May  5 22:39:05 2021.
