 Gaussian 16, Revision A.03,
 Gaussian 16:  EM64L-G16RevA.03 25-Dec-2016

 -------------
 #p 6-31g* mp2
 -------------

 ------------------------------------------------------
 Input file generated by CHIRIPA (05-May-2021 14:51:13)
 ------------------------------------------------------
 Symbolic Z-matrix:
 Charge =  0 Multiplicity = 1

                         Standard orientation:
 ---------------------------------------------------------------------
 Center     Atomic      Atomic             Coordinates (Angstroms)
 Number     Number       Type             X           Y           Z
 ---------------------------------------------------------------------
      1          6           0        2.447986   -0.261921   -0.183170
      2          6           0        3.045935   -1.183706    0.880199
      3          6           0        2.984377   -2.659579    0.485481
      4          1           0        1.403808   -0.551119   -0.364832
      5          1           0        2.983204   -0.411544   -1.131088
      6          1           0        2.510656   -1.031387    1.826186
      7          1           0        4.088753   -0.892157    1.059489
      8          1           0        3.534584   -2.832760   -0.445047
      9          1           0        1.947520   -2.972781    0.326006
     10          1           0        3.417142   -3.300640    1.259830
     11          6           0        2.502215    1.216689    0.196961
     12          6           0        1.904266    2.138475   -0.866408
     13          6           0        1.965823    3.614348   -0.471690
     14          1           0        1.966996    1.366313    1.144879
     15          1           0        3.546393    1.505888    0.378623
     16          1           0        0.861447    1.846926   -1.045699
     17          1           0        2.439545    1.986156   -1.812395
     18          1           0        3.002680    3.927550   -0.312215
     19          1           0        1.415617    3.787529    0.458838
     20          1           0        1.533058    4.255408   -1.246039
     21          6           0       -2.343691    0.245591    0.201600
     22          6           0       -3.610894    1.099134    0.261982
     23          6           0       -3.331734    2.542971    0.680549
     24          1           0       -1.855220    0.255686    1.185592
     25          1           0       -1.635564    0.702380   -0.503591
     26          1           0       -4.316975    0.640120    0.965809
     27          1           0       -4.096507    1.086850   -0.722216
     28          1           0       -2.646672    3.023191   -0.025625
     29          1           0       -2.868393    2.573923    1.671990
     30          1           0       -4.251341    3.135289    0.717196
     31          6           0       -2.606509   -1.200360   -0.215391
     32          6           0       -1.339306   -2.053903   -0.275773
     33          6           0       -1.618466   -3.497740   -0.694339
     34          1           0       -3.314637   -1.657148    0.489800
     35          1           0       -3.094981   -1.210455   -1.199383
     36          1           0       -0.853693   -2.041618    0.708424
     37          1           0       -0.633226   -1.594889   -0.979600
     38          1           0       -2.081808   -3.528691   -1.685781
     39          1           0       -2.303528   -3.977959    0.011834
     40          1           0       -0.698859   -4.090058   -0.730987
 ---------------------------------------------------------------------

 SCF Done:  E(RHF) =  -470.733038980     A.U. after   11 cycles
 E2 =    -0.1584515587D+01 EUMP2 =    -0.47231755456699D+03

 The electronic state is 1-A.
 Alpha  occ. eigenvalues --  -11.21696 -11.21675 -11.21572 -11.21542 -11.21505
 Alpha  occ. eigenvalues --  -11.21444 -11.21320 -11.21227 -11.21145 -11.21125
 Alpha  occ. eigenvalues --  -11.21041 -11.21020  -1.08536  -1.08356  -1.03623
 Alpha  occ. eigenvalues --   -1.03473  -0.96059  -0.95924  -0.87081  -0.86937
 Alpha  occ. eigenvalues --   -0.79729  -0.79518  -0.78458  -0.78074  -0.65196
 Alpha  occ. eigenvalues --   -0.64961  -0.61018  -0.60902  -0.59450  -0.59261
 Alpha  occ. eigenvalues --   -0.57683  -0.57527  -0.55352  -0.55204  -0.52753
 Alpha  occ. eigenvalues --   -0.52628  -0.52533  -0.52314  -0.50035  -0.49839
 Alpha  occ. eigenvalues --   -0.48122  -0.47791  -0.46774  -0.46538  -0.46355
 Alpha  occ. eigenvalues --   -0.45816  -0.45682  -0.45048  -0.43865  -0.43722
 Alpha virt. eigenvalues --    0.20225   0.21651   0.23618   0.24326   0.25449
 Alpha virt. eigenvalues --    0.26028   0.26466   0.27691   0.28956   0.29680
 Alpha virt. eigenvalues --    0.30581   0.31164   0.31497   0.31737   0.32031

 Mulliken charges:
               1
     1  C   -0.308226
     2  C   -0.298493
     3  C   -0.480043
     4  H    0.160776
     5  H    0.148233
     6  H    0.151099
     7  H    0.151635
     8  H    0.154877
     9  H    0.159345
    10  H    0.159853
    11  C   -0.297080
    12  C   -0.303318
    13  C   -0.475675
    14  H    0.149450
    15  H    0.149225
    16  H    0.154223
    17  H    0.151599
    18  H    0.155199
    19  H    0.155732
    20  H    0.159734
    21  C   -0.303241
    22  C   -0.299502
    23  C   -0.475999
    24  H    0.149444
    25  H    0.153250
    26  H    0.152341
    27  H    0.152252
    28  H    0.155580
    29  H    0.155051
    30  H    0.160662
    31  C   -0.297889
    32  C   -0.306023
    33  C   -0.477126
    34  H    0.150005
    35  H    0.150024
    36  H    0.152432
    37  H    0.157364
    38  H    0.155685
    39  H    0.155590
    40  H    0.161956
 Sum of Mulliken charges =  -0.00000

 Dipole moment (field-independent basis, Debye):
    X=             -0.0752    Y=             -0.0205    Z=             -0.0097  Tot=              0.0785
 Quadrupole moment (field-independent basis, Debye-Ang):
   XX=            -83.9941   YY=            -87.0829   ZZ=            -83.7206
   XY=              0.1275   XZ=             -0.5343   YZ=             -0.7066

 Normal termination of Gaussian 16 at Wed May  5 19:59:08 2021.
