 Gaussian 16, Revision A.03,
 Gaussian 16:  EM64L-G16RevA.03 25-Dec-2016

 -------------
 #p 6-31g* mp2
 -------------

 ------------------------------------------------------
 Input file generated by CHIRIPA (05-May-2021 14:55:24)
 ------------------------------------------------------
 Symbolic Z-matrix:
 Charge =  0 Multiplicity = 1

                         Standard orientation:
 ---------------------------------------------------------------------
 Center     Atomic      Atomic             Coordinates (Angstroms)
 Number     Number       Type             X           Y           Z
 ---------------------------------------------------------------------
      1          6           0       -2.269339   -2.601924    0.995931
      2          6           0       -1.602730   -1.519774    1.579974
      3          6           0       -1.714075   -0.238100    1.032741
      4          6           0       -2.503956   -0.073845   -0.104096
      5          6           0       -3.180386   -1.132057   -0.709008
      6          6           0       -3.054654   -2.404959   -0.144685
      7          1           0       -2.177255   -3.594151    1.427673
      8          1           0       -0.992155   -1.669781    2.465829
      9          1           0       -1.208838    0.617276    1.464579
     10          1           0       -3.781776   -0.951351   -1.591671
     11          1           0       -3.573486   -3.243525   -0.600389
     12          7           0       -2.629447    1.278362   -0.692474
     13          8           0       -3.331464    1.396755   -1.694368
     14          8           0       -2.023413    2.194226   -0.140609
     15          6           0        3.257778   -0.335878   -0.245817
     16          6           0        4.716069   -0.752227   -0.440821
     17          6           0        4.858166   -2.186494   -0.951195
     18          1           0        2.777009   -1.027045    0.459940
     19          1           0        2.722944   -0.441232   -1.199886
     20          1           0        5.248324   -0.644802    0.513002
     21          1           0        5.193475   -0.059874   -1.146049
     22          1           0        4.352185   -2.304379   -1.914879
     23          1           0        4.407346   -2.892630   -0.246401
     24          1           0        5.908751   -2.463300   -1.083522
     25          6           0        3.099401    1.095441    0.264056
     26          6           0        1.641111    1.511791    0.459060
     27          6           0        1.499014    2.946058    0.969435
     28          1           0        3.634236    1.200796    1.218125
     29          1           0        3.580171    1.786609   -0.441701
     30          1           0        1.163704    0.819437    1.164287
     31          1           0        1.108855    1.404365   -0.494764
     32          1           0        1.949834    3.652194    0.264641
     33          1           0        2.004995    3.063943    1.933119
     34          1           0        0.448429    3.222864    1.101761
 ---------------------------------------------------------------------

 SCF Done:  E(RHF) =  -669.535436499     A.U. after   15 cycles
 E2 =    -0.2092867161D+01 EUMP2 =    -0.67162830365975D+03

 The electronic state is 1-A.
 Alpha  occ. eigenvalues --  -20.60881 -20.60873 -15.85911 -11.31195 -11.27784
 Alpha  occ. eigenvalues --  -11.27740 -11.27521 -11.26777 -11.26766 -11.21637
 Alpha  occ. eigenvalues --  -11.21398 -11.21386 -11.21240 -11.21168 -11.20470
 Alpha  occ. eigenvalues --   -1.59938  -1.39495  -1.19378  -1.08787  -1.08351
 Alpha  occ. eigenvalues --   -1.04777  -1.03389  -0.95828  -0.95618  -0.86829
 Alpha  occ. eigenvalues --   -0.86177  -0.82473  -0.79488  -0.78212  -0.77495
 Alpha  occ. eigenvalues --   -0.72143  -0.71250  -0.70499  -0.65066  -0.64987
 Alpha  occ. eigenvalues --   -0.64772  -0.62166  -0.60783  -0.59172  -0.57400
 Alpha  occ. eigenvalues --   -0.55292  -0.55107  -0.53112  -0.52871  -0.52458
 Alpha  occ. eigenvalues --   -0.52229  -0.49775  -0.48887  -0.48886  -0.47764
 Alpha  occ. eigenvalues --   -0.46532  -0.45726  -0.45648  -0.44860  -0.43628
 Alpha  occ. eigenvalues --   -0.37357  -0.36344
 Alpha virt. eigenvalues --    0.04980   0.11256   0.16426   0.20755   0.22986
 Alpha virt. eigenvalues --    0.24148   0.26095   0.26933   0.27391   0.27988
 Alpha virt. eigenvalues --    0.29111   0.30753   0.31628   0.31694   0.32011

 Mulliken charges:
               1
     1  C   -0.170064
     2  C   -0.220570
     3  C   -0.167428
     4  C    0.155743
     5  C   -0.170774
     6  C   -0.218857
     7  H    0.225687
     8  H    0.223238
     9  H    0.280407
    10  H    0.275444
    11  H    0.223439
    12  N    0.491368
    13  O   -0.459490
    14  O   -0.464108
    15  C   -0.297163
    16  C   -0.299497
    17  C   -0.475341
    18  H    0.144309
    19  H    0.150752
    20  H    0.151218
    21  H    0.153428
    22  H    0.155589
    23  H    0.152577
    24  H    0.160420
    25  C   -0.298125
    26  C   -0.297803
    27  C   -0.483626
    28  H    0.147452
    29  H    0.151928
    30  H    0.135080
    31  H    0.159088
    32  H    0.156886
    33  H    0.148147
    34  H    0.180647
 Sum of Mulliken charges =  -0.00000

 Dipole moment (field-independent basis, Debye):
    X=              0.3225    Y=             -4.6472    Z=              1.9679  Tot=              5.0569
 Quadrupole moment (field-independent basis, Debye-Ang):
   XX=            -96.0815   YY=            -94.4967   ZZ=            -92.3761
   XY=             13.6164   XZ=             -2.9144   YZ=              0.9679

 Normal termination of Gaussian 16 at Wed May  5 19:10:50 2021.
