 Gaussian 16, Revision A.03,
 Gaussian 16:  EM64L-G16RevA.03 25-Dec-2016

 -------------
 #p 6-31g* mp2
 -------------

 ------------------------------------------------------
 Input file generated by CHIRIPA (05-May-2021 14:57:25)
 ------------------------------------------------------
 Symbolic Z-matrix:
 Charge =  0 Multiplicity = 1

                         Standard orientation:
 ---------------------------------------------------------------------
 Center     Atomic      Atomic             Coordinates (Angstroms)
 Number     Number       Type             X           Y           Z
 ---------------------------------------------------------------------
      1          6           0       -2.762741    2.559683   -0.127792
      2          6           0       -3.923256    2.187835   -0.814417
      3          6           0       -4.440509    0.895297   -0.686581
      4          6           0       -3.768747   -0.004009    0.140023
      5          6           0       -2.610524    0.336375    0.837124
      6          6           0       -2.111227    1.634397    0.694338
      7          1           0       -2.367901    3.565888   -0.232905
      8          1           0       -4.431324    2.904336   -1.453588
      9          1           0       -5.337201    0.580867   -1.206673
     10          1           0       -2.126124   -0.399874    1.466975
     11          1           0       -1.209773    1.920395    1.228782
     12          7           0       -4.306835   -1.375264    0.283271
     13          8           0       -3.696381   -2.148975    1.017679
     14          8           0       -5.328853   -1.650378   -0.341571
     15          6           0        1.398943   -1.203333   -0.562933
     16          6           0        1.525758    0.148286   -0.225939
     17          6           0        2.784677    0.702729    0.023582
     18          6           0        3.900594   -0.127118   -0.073247
     19          6           0        3.806821   -1.477375   -0.406866
     20          6           0        2.537872   -2.010427   -0.652164
     21          1           0        0.417088   -1.625729   -0.755128
     22          1           0        0.642991    0.777464   -0.155909
     23          1           0        2.911597    1.745925    0.286356
     24          1           0        4.705154   -2.079507   -0.468951
     25          1           0        2.442399   -3.060446   -0.913681
     26          7           0        5.238666    0.448522    0.188675
     27          8           0        6.206297   -0.303735    0.096848
     28          8           0        5.294476    1.641068    0.480837
 ---------------------------------------------------------------------

 SCF Done:  E(RHF) =  -868.337732562     A.U. after   16 cycles
 E2 =    -0.2600271281D+01 EUMP2 =    -0.87093800384293D+03

 The electronic state is 1-A.
 Alpha  occ. eigenvalues --  -20.61642 -20.61620 -20.61003 -20.60990 -15.86692
 Alpha  occ. eigenvalues --  -15.86055 -11.32162 -11.31436 -11.28808 -11.28713
 Alpha  occ. eigenvalues --  -11.28490 -11.28065 -11.27978 -11.27831 -11.27710
 Alpha  occ. eigenvalues --  -11.27698 -11.27040 -11.26955  -1.60710  -1.60075
 Alpha  occ. eigenvalues --   -1.40260  -1.39628  -1.20358  -1.19609  -1.09719
 Alpha  occ. eigenvalues --   -1.08989  -1.05781  -1.05025  -0.96531  -0.95822
 Alpha  occ. eigenvalues --   -0.87163  -0.86415  -0.83366  -0.82664  -0.78410
 Alpha  occ. eigenvalues --   -0.77716  -0.72901  -0.72272  -0.72043  -0.71421
 Alpha  occ. eigenvalues --   -0.71399  -0.70687  -0.66001  -0.65822  -0.65259
 Alpha  occ. eigenvalues --   -0.65013  -0.63122  -0.62349  -0.56229  -0.55480
 Alpha  occ. eigenvalues --   -0.54126  -0.53871  -0.53342  -0.53044  -0.49670
 Alpha  occ. eigenvalues --   -0.49653  -0.49032  -0.49025  -0.45642  -0.45031
 Alpha  occ. eigenvalues --   -0.38321  -0.37583  -0.37375  -0.36636
 Alpha virt. eigenvalues --    0.04116   0.04828   0.10127   0.10987   0.15451
 Alpha virt. eigenvalues --    0.16304   0.19685   0.21859   0.25528   0.26993
 Alpha virt. eigenvalues --    0.27862   0.28691   0.29615   0.31135   0.32293

 Mulliken charges:
               1
     1  C   -0.171043
     2  C   -0.218154
     3  C   -0.169007
     4  C    0.158492
     5  C   -0.176140
     6  C   -0.225880
     7  H    0.229678
     8  H    0.227693
     9  H    0.278863
    10  H    0.277260
    11  H    0.223533
    12  N    0.487741
    13  O   -0.460849
    14  O   -0.456930
    15  C   -0.173777
    16  C   -0.225677
    17  C   -0.172584
    18  C    0.159018
    19  C   -0.170511
    20  C   -0.218195
    21  H    0.231064
    22  H    0.221650
    23  H    0.272555
    24  H    0.276866
    25  H    0.226865
    26  N    0.488164
    27  O   -0.459021
    28  O   -0.461675
 Sum of Mulliken charges =  -0.00000

 Dipole moment (field-independent basis, Debye):
    X=             -3.0829    Y=              2.7474    Z=             -1.5167  Tot=              4.3992
 Quadrupole moment (field-independent basis, Debye-Ang):
   XX=           -151.7697   YY=           -100.3068   ZZ=           -104.0272
   XY=            -29.4538   XZ=              1.3274   YZ=              1.0217

 Normal termination of Gaussian 16 at Thu May  6 06:41:48 2021.
