 Gaussian 16, Revision A.03,
 Gaussian 16:  EM64L-G16RevA.03 25-Dec-2016

 -------------
 #p 6-31g* mp2
 -------------

 ------------------------------------------------------
 Input file generated by CHIRIPA (05-May-2021 14:51:11)
 ------------------------------------------------------
 Symbolic Z-matrix:
 Charge =  0 Multiplicity = 1

                         Standard orientation:
 ---------------------------------------------------------------------
 Center     Atomic      Atomic             Coordinates (Angstroms)
 Number     Number       Type             X           Y           Z
 ---------------------------------------------------------------------
      1          6           0        3.581805    0.700006    0.318850
      2          6           0        2.651633    1.649042   -0.437520
      3          6           0        1.629633    2.327311    0.475311
      4          1           0        2.979585   -0.064211    0.828996
      5          1           0        4.106171    1.260855    1.104906
      6          1           0        2.130208    1.086862   -1.222813
      7          1           0        3.256150    2.410975   -0.946081
      8          1           0        2.134340    2.912376    1.250920
      9          1           0        1.002001    1.580740    0.972616
     10          1           0        0.974981    3.001291   -0.085975
     11          6           0        4.609114    0.014335   -0.580160
     12          6           0        5.539286   -0.934701    0.176210
     13          6           0        6.561287   -1.612969   -0.736621
     14          1           0        4.084748   -0.546514   -1.366216
     15          1           0        5.211335    0.778552   -1.090306
     16          1           0        4.934769   -1.696634    0.684771
     17          1           0        6.060711   -0.372521    0.961503
     18          1           0        7.188918   -0.866399   -1.233926
     19          1           0        6.056579   -2.198035   -1.512231
     20          1           0        7.215938   -2.286949   -0.175335
     21          6           0       -3.373067   -0.114002    0.180141
     22          6           0       -2.479296   -1.033899    1.012576
     23          6           0       -1.037102   -0.534079    1.102303
     24          1           0       -2.952291   -0.020699   -0.830397
     25          1           0       -3.359796    0.893500    0.618499
     26          1           0       -2.495342   -2.039703    0.573580
     27          1           0       -2.902352   -1.125176    2.021194
     28          1           0       -1.001564    0.459585    1.560527
     29          1           0       -0.592241   -0.460138    0.104689
     30          1           0       -0.415710   -1.206581    1.701864
     31          6           0       -4.817853   -0.600339    0.081169
     32          6           0       -5.711624    0.319558   -0.751267
     33          6           0       -7.153817   -0.180262   -0.840992
     34          1           0       -4.831124   -1.607841   -0.357190
     35          1           0       -5.238628   -0.693643    1.091707
     36          1           0       -5.288567    0.410835   -1.759883
     37          1           0       -5.695577    1.325362   -0.312271
     38          1           0       -7.598678   -0.254204    0.156621
     39          1           0       -7.189355   -1.173927   -1.299216
     40          1           0       -7.775209    0.492240   -1.440554
 ---------------------------------------------------------------------

 SCF Done:  E(RHF) =  -470.732899404     A.U. after   11 cycles
 E2 =    -0.1582732342D+01 EUMP2 =    -0.47231563174622D+03

 The electronic state is 1-A.
 Alpha  occ. eigenvalues --  -11.21649 -11.21616 -11.21564 -11.21512 -11.21430
 Alpha  occ. eigenvalues --  -11.21370 -11.21343 -11.21278 -11.21146 -11.21083
 Alpha  occ. eigenvalues --  -11.21044 -11.20871  -1.08461  -1.08361  -1.03578
 Alpha  occ. eigenvalues --   -1.03445  -0.96050  -0.95878  -0.87090  -0.86880
 Alpha  occ. eigenvalues --   -0.79684  -0.79480  -0.78276  -0.78170  -0.65090
 Alpha  occ. eigenvalues --   -0.64995  -0.60970  -0.60869  -0.59392  -0.59267
 Alpha  occ. eigenvalues --   -0.57687  -0.57483  -0.55357  -0.55174  -0.52739
 Alpha  occ. eigenvalues --   -0.52616  -0.52542  -0.52202  -0.50043  -0.49762
 Alpha  occ. eigenvalues --   -0.48040  -0.47721  -0.46703  -0.46489  -0.45840
 Alpha  occ. eigenvalues --   -0.45739  -0.45685  -0.45584  -0.43819  -0.43711
 Alpha virt. eigenvalues --    0.21821   0.22939   0.23740   0.24720   0.26114
 Alpha virt. eigenvalues --    0.26464   0.27307   0.27386   0.27877   0.29068
 Alpha virt. eigenvalues --    0.30458   0.31063   0.31435   0.31847   0.32231

 Mulliken charges:
               1
     1  C   -0.298829
     2  C   -0.298835
     3  C   -0.484412
     4  H    0.150461
     5  H    0.149267
     6  H    0.150950
     7  H    0.151342
     8  H    0.153745
     9  H    0.167335
    10  H    0.158914
    11  C   -0.298189
    12  C   -0.299590
    13  C   -0.475653
    14  H    0.149225
    15  H    0.149488
    16  H    0.151859
    17  H    0.151853
    18  H    0.155119
    19  H    0.155059
    20  H    0.160102
    21  C   -0.298359
    22  C   -0.300075
    23  C   -0.479219
    24  H    0.149697
    25  H    0.149968
    26  H    0.151918
    27  H    0.152228
    28  H    0.157799
    29  H    0.156389
    30  H    0.160200
    31  C   -0.298337
    32  C   -0.299673
    33  C   -0.475726
    34  H    0.149513
    35  H    0.149724
    36  H    0.151967
    37  H    0.152059
    38  H    0.155215
    39  H    0.155176
    40  H    0.160328
 Sum of Mulliken charges =  -0.00000

 Dipole moment (field-independent basis, Debye):
    X=             -0.0564    Y=             -0.0202    Z=              0.0227  Tot=              0.0641
 Quadrupole moment (field-independent basis, Debye-Ang):
   XX=            -86.2250   YY=            -84.4168   ZZ=            -84.3452
   XY=              0.5139   XZ=              0.1640   YZ=              0.2624

 Normal termination of Gaussian 16 at Wed May  5 16:45:06 2021.
