 Gaussian 16, Revision A.03,
 Gaussian 16:  EM64L-G16RevA.03 25-Dec-2016

 -------------
 #p 6-31g* mp2
 -------------

 ------------------------------------------------------
 Input file generated by CHIRIPA (05-May-2021 14:51:09)
 ------------------------------------------------------
 Symbolic Z-matrix:
 Charge =  0 Multiplicity = 1

                         Standard orientation:
 ---------------------------------------------------------------------
 Center     Atomic      Atomic             Coordinates (Angstroms)
 Number     Number       Type             X           Y           Z
 ---------------------------------------------------------------------
      1          6           0       -2.511487   -1.256466    0.380107
      2          6           0       -1.403201   -0.997243    1.401131
      3          6           0       -0.688017   -2.277096    1.835047
      4          1           0       -3.240055   -1.957791    0.809383
      5          1           0       -2.080599   -1.753278   -0.500182
      6          1           0       -1.835808   -0.499820    2.278649
      7          1           0       -0.677288   -0.296304    0.969446
      8          1           0       -0.230039   -2.773526    0.973412
      9          1           0       -1.395141   -2.978198    2.290054
     10          1           0        0.100334   -2.068675    2.565062
     11          6           0       -3.235734    0.013380   -0.063385
     12          6           0       -4.344021   -0.245843   -1.084409
     13          6           0       -5.059204    1.034010   -1.518325
     14          1           0       -3.666623    0.510193    0.816903
     15          1           0       -2.507167    0.714705   -0.492661
     16          1           0       -5.069934   -0.946781   -0.652724
     17          1           0       -3.911414   -0.743265   -1.961927
     18          1           0       -4.352080    1.735113   -1.973333
     19          1           0       -5.517182    1.530441   -0.656691
     20          1           0       -5.847556    0.825590   -2.248340
     21          6           0        2.462164    0.926114    0.408543
     22          6           0        1.983609    2.348200    0.114193
     23          6           0        1.161834    2.943958    1.257676
     24          1           0        1.591212    0.286850    0.607866
     25          1           0        3.062765    0.931899    1.328673
     26          1           0        1.385242    2.339964   -0.805864
     27          1           0        2.855792    2.984109   -0.084640
     28          1           0        1.753161    2.981299    2.178295
     29          1           0        0.274257    2.333493    1.452973
     30          1           0        0.829944    3.960869    1.026156
     31          6           0        3.285058    0.316971   -0.725265
     32          6           0        3.763612   -1.105114   -0.430914
     33          6           0        4.585387   -1.700872   -1.574397
     34          1           0        2.684456    0.311185   -1.645395
     35          1           0        4.156010    0.956235   -0.924588
     36          1           0        2.891430   -1.741024   -0.232082
     37          1           0        4.361979   -1.096879    0.489142
     38          1           0        5.472965   -1.090408   -1.769694
     39          1           0        3.994060   -1.738214   -2.495017
     40          1           0        4.917278   -2.717783   -1.342878
 ---------------------------------------------------------------------

 SCF Done:  E(RHF) =  -470.733302691     A.U. after   11 cycles
 E2 =    -0.1583441581D+01 EUMP2 =    -0.47231674427197D+03

 The electronic state is 1-A.
 Alpha  occ. eigenvalues --  -11.21659 -11.21637 -11.21609 -11.21604 -11.21457
 Alpha  occ. eigenvalues --  -11.21405 -11.21397 -11.21342 -11.21129 -11.21095
 Alpha  occ. eigenvalues --  -11.21077 -11.21050  -1.08492  -1.08429  -1.03585
 Alpha  occ. eigenvalues --   -1.03527  -0.96027  -0.95976  -0.87040  -0.86995
 Alpha  occ. eigenvalues --   -0.79682  -0.79563  -0.78355  -0.78194  -0.65260
 Alpha  occ. eigenvalues --   -0.64950  -0.61051  -0.60868  -0.59413  -0.59323
 Alpha  occ. eigenvalues --   -0.57647  -0.57577  -0.55348  -0.55236  -0.52718
 Alpha  occ. eigenvalues --   -0.52669  -0.52452  -0.52398  -0.50003  -0.49896
 Alpha  occ. eigenvalues --   -0.48065  -0.47861  -0.46884  -0.46522  -0.46053
 Alpha  occ. eigenvalues --   -0.45789  -0.45754  -0.45311  -0.43829  -0.43785
 Alpha virt. eigenvalues --    0.20152   0.23299   0.23492   0.24036   0.26081
 Alpha virt. eigenvalues --    0.26705   0.27126   0.27374   0.28487   0.29455
 Alpha virt. eigenvalues --    0.30511   0.31580   0.31757   0.31938   0.32053

 Mulliken charges:
               1
     1  C   -0.297583
     2  C   -0.309658
     3  C   -0.476111
     4  H    0.150061
     5  H    0.149228
     6  H    0.152660
     7  H    0.159633
     8  H    0.154818
     9  H    0.155714
    10  H    0.161564
    11  C   -0.298625
    12  C   -0.299674
    13  C   -0.475754
    14  H    0.149869
    15  H    0.149376
    16  H    0.152129
    17  H    0.151886
    18  H    0.155242
    19  H    0.155354
    20  H    0.160366
    21  C   -0.307416
    22  C   -0.299031
    23  C   -0.478751
    24  H    0.158173
    25  H    0.149689
    26  H    0.150940
    27  H    0.152122
    28  H    0.155157
    29  H    0.158195
    30  H    0.160208
    31  C   -0.297594
    32  C   -0.300185
    33  C   -0.475713
    34  H    0.148903
    35  H    0.149774
    36  H    0.152386
    37  H    0.152089
    38  H    0.155232
    39  H    0.154960
    40  H    0.160366
 Sum of Mulliken charges =  -0.00000

 Dipole moment (field-independent basis, Debye):
    X=             -0.0192    Y=             -0.0148    Z=              0.0222  Tot=              0.0329
 Quadrupole moment (field-independent basis, Debye-Ang):
   XX=            -84.2845   YY=            -85.6719   ZZ=            -84.7145
   XY=              1.2565   XZ=              0.0524   YZ=             -0.0328

 Normal termination of Gaussian 16 at Thu May  6 02:09:20 2021.
