 Gaussian 16, Revision A.03,
 Gaussian 16:  EM64L-G16RevA.03 25-Dec-2016

 -------------
 #p 6-31g* mp2
 -------------

 ------------------------------------------------------
 Input file generated by CHIRIPA (05-May-2021 14:53:17)
 ------------------------------------------------------
 Symbolic Z-matrix:
 Charge =  0 Multiplicity = 1

                         Standard orientation:
 ---------------------------------------------------------------------
 Center     Atomic      Atomic             Coordinates (Angstroms)
 Number     Number       Type             X           Y           Z
 ---------------------------------------------------------------------
      1          6           0        4.453344   -0.160450   -0.283477
      2          6           0        5.133766    0.882830    0.603416
      3          6           0        6.656290    0.743261    0.618694
      4          1           0        4.727392   -1.165027    0.066765
      5          1           0        4.841070   -0.069915   -1.307618
      6          1           0        4.743858    0.791269    1.625279
      7          1           0        4.857913    1.885039    0.251140
      8          1           0        7.063634    0.856046   -0.391232
      9          1           0        6.948932   -0.243939    0.990714
     10          1           0        7.122302    1.498868    1.258812
     11          6           0        2.931160   -0.033843   -0.309044
     12          6           0        2.250738   -1.077123   -1.195936
     13          6           0        0.728214   -0.937554   -1.211214
     14          1           0        2.543433   -0.124378    0.715098
     15          1           0        2.657112    0.970733   -0.659285
     16          1           0        2.526591   -2.079333   -0.843660
     17          1           0        2.640645   -0.985563   -2.217800
     18          1           0        0.435572    0.049645   -1.583235
     19          1           0        0.320870   -1.050339   -0.201288
     20          1           0        0.262202   -1.693162   -1.851332
     21          6           0       -3.400271    2.453162   -0.438311
     22          6           0       -2.975383    2.169238    0.863756
     23          6           0       -2.686849    0.855753    1.245924
     24          6           0       -2.834716   -0.153929    0.296203
     25          6           0       -3.256061    0.097064   -1.008695
     26          6           0       -3.539010    1.417994   -1.368741
     27          1           0       -3.622242    3.476401   -0.726595
     28          1           0       -2.866746    2.971158    1.588441
     29          1           0       -2.356166    0.607812    2.247219
     30          1           0       -3.354962   -0.723460   -1.708964
     31          1           0       -3.868800    1.635543   -2.380648
     32          7           0       -2.532214   -1.548397    0.689077
     33          8           0       -2.670415   -2.420090   -0.166313
     34          8           0       -2.162640   -1.743287    1.844962
 ---------------------------------------------------------------------

 SCF Done:  E(RHF) =  -669.535888220     A.U. after   15 cycles
 E2 =    -0.2091886134D+01 EUMP2 =    -0.67162777435441D+03

 The electronic state is 1-A.
 Alpha  occ. eigenvalues --  -20.60783 -20.60777 -15.85814 -11.31156 -11.27729
 Alpha  occ. eigenvalues --  -11.27725 -11.27478 -11.26750 -11.26740 -11.21475
 Alpha  occ. eigenvalues --  -11.21279 -11.21198 -11.21124 -11.20961 -11.20700
 Alpha  occ. eigenvalues --   -1.59848  -1.39402  -1.19332  -1.08737  -1.08210
 Alpha  occ. eigenvalues --   -1.04736  -1.03299  -0.95752  -0.95575  -0.86776
 Alpha  occ. eigenvalues --   -0.86135  -0.82410  -0.79379  -0.78029  -0.77458
 Alpha  occ. eigenvalues --   -0.72045  -0.71172  -0.70449  -0.64992  -0.64837
 Alpha  occ. eigenvalues --   -0.64745  -0.62087  -0.60690  -0.59112  -0.57362
 Alpha  occ. eigenvalues --   -0.55246  -0.55037  -0.53102  -0.52833  -0.52426
 Alpha  occ. eigenvalues --   -0.52150  -0.49699  -0.48805  -0.48797  -0.47687
 Alpha  occ. eigenvalues --   -0.46404  -0.45570  -0.45488  -0.44820  -0.43534
 Alpha  occ. eigenvalues --   -0.37297  -0.36331
 Alpha virt. eigenvalues --    0.05074   0.11289   0.16558   0.21419   0.23088
 Alpha virt. eigenvalues --    0.24509   0.26835   0.27298   0.27612   0.27896
 Alpha virt. eigenvalues --    0.28475   0.30843   0.31504   0.31883   0.32009

 Mulliken charges:
               1
     1  C   -0.298217
     2  C   -0.299411
     3  C   -0.475581
     4  H    0.151247
     5  H    0.148555
     6  H    0.152200
     7  H    0.150035
     8  H    0.154694
     9  H    0.155996
    10  H    0.159346
    11  C   -0.298469
    12  C   -0.299759
    13  C   -0.480108
    14  H    0.151407
    15  H    0.146275
    16  H    0.156025
    17  H    0.149657
    18  H    0.149677
    19  H    0.156996
    20  H    0.167099
    21  C   -0.170864
    22  C   -0.218449
    23  C   -0.171595
    24  C    0.159381
    25  C   -0.169593
    26  C   -0.219112
    27  H    0.225381
    28  H    0.223286
    29  H    0.275348
    30  H    0.275633
    31  H    0.223272
    32  N    0.490015
    33  O   -0.459062
    34  O   -0.461307
 Sum of Mulliken charges =  -0.00000

 Dipole moment (field-independent basis, Debye):
    X=             -1.1230    Y=              4.8309    Z=             -1.3824  Tot=              5.1488
 Quadrupole moment (field-independent basis, Debye-Ang):
   XX=            -90.6745   YY=            -95.8656   ZZ=            -90.8741
   XY=            -13.7019   XZ=              4.8604   YZ=              2.8701

 Normal termination of Gaussian 16 at Thu May  6 04:21:32 2021.
