 Gaussian 16, Revision A.03,
 Gaussian 16:  EM64L-G16RevA.03 25-Dec-2016

 -------------
 #p 6-31g* mp2
 -------------

 ------------------------------------------------------
 Input file generated by CHIRIPA (05-May-2021 14:51:11)
 ------------------------------------------------------
 Symbolic Z-matrix:
 Charge =  0 Multiplicity = 1

                         Standard orientation:
 ---------------------------------------------------------------------
 Center     Atomic      Atomic             Coordinates (Angstroms)
 Number     Number       Type             X           Y           Z
 ---------------------------------------------------------------------
      1          6           0        3.095167    0.568678   -0.420802
      2          6           0        3.705442    1.957060   -0.226008
      3          6           0        2.736766    3.084263   -0.584998
      4          1           0        2.774376    0.459471   -1.465844
      5          1           0        2.188874    0.484510    0.194784
      6          1           0        4.611082    2.038097   -0.840716
      7          1           0        4.024991    2.062905    0.818646
      8          1           0        1.837147    3.031716    0.036714
      9          1           0        2.426568    3.006768   -1.632076
     10          1           0        3.193493    4.068014   -0.438388
     11          6           0        4.051426   -0.568619   -0.066046
     12          6           0        3.441150   -1.957000   -0.260840
     13          6           0        4.409827   -3.084203    0.098151
     14          1           0        4.957718   -0.484451   -0.681631
     15          1           0        4.372216   -0.459411    0.978996
     16          1           0        3.121601   -2.062845   -1.305494
     17          1           0        2.535511   -2.038037    0.353868
     18          1           0        4.720025   -3.006708    1.145229
     19          1           0        5.309445   -3.031657   -0.523562
     20          1           0        3.953099   -4.067954   -0.048459
     21          6           0       -3.070509    0.499442    0.528320
     22          6           0       -1.700309   -0.115847    0.814595
     23          6           0       -0.705338    0.895806    1.384144
     24          1           0       -2.950648    1.334245   -0.175726
     25          1           0       -3.473131    0.928543    1.456309
     26          1           0       -1.301003   -0.544881   -0.113360
     27          1           0       -1.823471   -0.949405    1.517893
     28          1           0       -1.078465    1.316057    2.323700
     29          1           0       -0.553029    1.722880    0.683178
     30          1           0        0.267481    0.434745    1.581389
     31          6           0       -4.076083   -0.499501   -0.041472
     32          6           0       -5.446284    0.115788   -0.327747
     33          6           0       -6.441255   -0.895866   -0.897296
     34          1           0       -3.673462   -0.928602   -0.969462
     35          1           0       -4.195945   -1.334305    0.662574
     36          1           0       -5.323121    0.949345   -1.031046
     37          1           0       -5.845590    0.544821    0.600208
     38          1           0       -6.593563   -1.722939   -0.196330
     39          1           0       -6.068127   -1.316116   -1.836852
     40          1           0       -7.414074   -0.434804   -1.094541
 ---------------------------------------------------------------------

 SCF Done:  E(RHF) =  -470.733077058     A.U. after   11 cycles
 E2 =    -0.1583053136D+01 EUMP2 =    -0.47231613019376D+03

 The electronic state is 1-A.
 Alpha  occ. eigenvalues --  -11.21641 -11.21612 -11.21591 -11.21552 -11.21425
 Alpha  occ. eigenvalues --  -11.21365 -11.21355 -11.21272 -11.21138 -11.21079
 Alpha  occ. eigenvalues --  -11.21061 -11.21019  -1.08457  -1.08389  -1.03566
 Alpha  occ. eigenvalues --   -1.03491  -0.96020  -0.95942  -0.87042  -0.86959
 Alpha  occ. eigenvalues --   -0.79653  -0.79536  -0.78267  -0.78201  -0.65112
 Alpha  occ. eigenvalues --   -0.65014  -0.61005  -0.60853  -0.59419  -0.59292
 Alpha  occ. eigenvalues --   -0.57700  -0.57496  -0.55308  -0.55230  -0.52769
 Alpha  occ. eigenvalues --   -0.52634  -0.52506  -0.52286  -0.49982  -0.49871
 Alpha  occ. eigenvalues --   -0.47942  -0.47871  -0.46719  -0.46530  -0.45814
 Alpha  occ. eigenvalues --   -0.45742  -0.45724  -0.45628  -0.43771  -0.43732
 Alpha virt. eigenvalues --    0.21040   0.23073   0.23663   0.24392   0.26140
 Alpha virt. eigenvalues --    0.26372   0.26797   0.27225   0.27938   0.29448
 Alpha virt. eigenvalues --    0.30397   0.31621   0.31781   0.32022   0.32340

 Mulliken charges:
               1
     1  C   -0.307251
     2  C   -0.298739
     3  C   -0.479164
     4  H    0.148829
     5  H    0.159409
     6  H    0.151609
     7  H    0.151659
     8  H    0.158975
     9  H    0.154498
    10  H    0.159992
    11  C   -0.297842
    12  C   -0.299719
    13  C   -0.475645
    14  H    0.149414
    15  H    0.149242
    16  H    0.151870
    17  H    0.151422
    18  H    0.155132
    19  H    0.155232
    20  H    0.160195
    21  C   -0.298648
    22  C   -0.300268
    23  C   -0.481784
    24  H    0.150047
    25  H    0.149585
    26  H    0.153278
    27  H    0.151912
    28  H    0.155584
    29  H    0.158110
    30  H    0.162778
    31  C   -0.298347
    32  C   -0.299697
    33  C   -0.475723
    34  H    0.149710
    35  H    0.149655
    36  H    0.152043
    37  H    0.151934
    38  H    0.155180
    39  H    0.155229
    40  H    0.160302
 Sum of Mulliken charges =  -0.00000

 Dipole moment (field-independent basis, Debye):
    X=             -0.0438    Y=              0.0006    Z=              0.0099  Tot=              0.0449
 Quadrupole moment (field-independent basis, Debye-Ang):
   XX=            -85.7396   YY=            -86.0129   ZZ=            -83.1663
   XY=              0.0713   XZ=             -1.0568   YZ=             -0.2403

 Normal termination of Gaussian 16 at Thu May  6 02:15:04 2021.
