 Gaussian 16, Revision A.03,
 Gaussian 16:  EM64L-G16RevA.03 25-Dec-2016

 -------------
 #p 6-31g* mp2
 -------------

 ------------------------------------------------------
 Input file generated by CHIRIPA (05-May-2021 14:51:09)
 ------------------------------------------------------
 Symbolic Z-matrix:
 Charge =  0 Multiplicity = 1

                         Standard orientation:
 ---------------------------------------------------------------------
 Center     Atomic      Atomic             Coordinates (Angstroms)
 Number     Number       Type             X           Y           Z
 ---------------------------------------------------------------------
      1          6           0        3.018395   -0.555823    0.841182
      2          6           0        2.122074    0.524083    1.448139
      3          6           0        1.082279   -0.044814    2.414046
      4          1           0        2.392453   -1.290959    0.317048
      5          1           0        3.526464   -1.098320    1.650476
      6          1           0        1.616906    1.065292    0.637884
      7          1           0        2.750237    1.256838    1.970727
      8          1           0        1.571295   -0.568119    3.242065
      9          1           0        0.431524   -0.760753    1.901649
     10          1           0        0.452364    0.744367    2.836255
     11          6           0        4.063006   -0.002656   -0.126559
     12          6           0        4.959327   -1.082562   -0.733516
     13          6           0        5.999122   -0.513665   -1.699422
     14          1           0        3.554937    0.539841   -0.935853
     15          1           0        4.688948    0.732480    0.397576
     16          1           0        4.331164   -1.815317   -1.256103
     17          1           0        5.464495   -1.623771    0.076740
     18          1           0        6.649877    0.202274   -1.187026
     19          1           0        5.510107    0.009640   -2.527442
     20          1           0        6.629037   -1.302846   -2.121631
     21          6           0       -4.112146   -0.120050   -0.669480
     22          6           0       -4.625927   -1.246355    0.227989
     23          6           0       -5.769040   -2.036067   -0.410324
     24          1           0       -4.942291    0.559717   -0.905531
     25          1           0       -3.775895   -0.546309   -1.624799
     26          1           0       -4.959826   -0.818263    1.181858
     27          1           0       -3.794420   -1.923415    0.462087
     28          1           0       -5.444731   -2.489943   -1.352354
     29          1           0       -6.616759   -1.378513   -0.628493
     30          1           0       -6.121031   -2.836191    0.248284
     31          6           0       -2.969255    0.678530   -0.045143
     32          6           0       -2.455473    1.804834   -0.942613
     33          6           0       -1.312361    2.594545   -0.304300
     34          1           0       -3.305507    1.104788    0.910175
     35          1           0       -2.139110   -0.001238    0.190908
     36          1           0       -3.286980    2.481893   -1.176711
     37          1           0       -2.121575    1.376742   -1.896482
     38          1           0       -0.464643    1.936992   -0.086130
     39          1           0       -1.636670    3.048422    0.637730
     40          1           0       -0.960370    3.394670   -0.962908
 ---------------------------------------------------------------------

 SCF Done:  E(RHF) =  -470.733308618     A.U. after   11 cycles
 E2 =    -0.1582894311D+01 EUMP2 =    -0.47231620292959D+03

 The electronic state is 1-A.
 Alpha  occ. eigenvalues --  -11.21610 -11.21609 -11.21602 -11.21597 -11.21415
 Alpha  occ. eigenvalues --  -11.21407 -11.21355 -11.21347 -11.21077 -11.21072
 Alpha  occ. eigenvalues --  -11.21070 -11.21058  -1.08448  -1.08426  -1.03561
 Alpha  occ. eigenvalues --   -1.03510  -0.96003  -0.95963  -0.87010  -0.86989
 Alpha  occ. eigenvalues --   -0.79640  -0.79558  -0.78267  -0.78229  -0.65147
 Alpha  occ. eigenvalues --   -0.65004  -0.61096  -0.60797  -0.59390  -0.59311
 Alpha  occ. eigenvalues --   -0.57680  -0.57507  -0.55339  -0.55211  -0.52678
 Alpha  occ. eigenvalues --   -0.52675  -0.52431  -0.52384  -0.50045  -0.49832
 Alpha  occ. eigenvalues --   -0.48007  -0.47840  -0.46761  -0.46488  -0.45866
 Alpha  occ. eigenvalues --   -0.45756  -0.45725  -0.45586  -0.43791  -0.43784
 Alpha virt. eigenvalues --    0.20756   0.23160   0.23557   0.24995   0.26050
 Alpha virt. eigenvalues --    0.26218   0.27020   0.27304   0.28254   0.29185
 Alpha virt. eigenvalues --    0.30348   0.31263   0.31513   0.31877   0.32176

 Mulliken charges:
               1
     1  C   -0.297629
     2  C   -0.306865
     3  C   -0.476427
     4  H    0.149007
     5  H    0.149659
     6  H    0.157515
     7  H    0.152534
     8  H    0.155236
     9  H    0.155031
    10  H    0.161750
    11  C   -0.298391
    12  C   -0.299640
    13  C   -0.475721
    14  H    0.149555
    15  H    0.149859
    16  H    0.151797
    17  H    0.151975
    18  H    0.155253
    19  H    0.155201
    20  H    0.160255
    21  C   -0.298341
    22  C   -0.299578
    23  C   -0.475709
    24  H    0.149728
    25  H    0.149297
    26  H    0.152115
    27  H    0.151819
    28  H    0.155091
    29  H    0.155188
    30  H    0.160313
    31  C   -0.299352
    32  C   -0.299271
    33  C   -0.483580
    34  H    0.149761
    35  H    0.150646
    36  H    0.152034
    37  H    0.151430
    38  H    0.163056
    39  H    0.155284
    40  H    0.160114
 Sum of Mulliken charges =  -0.00000

 Dipole moment (field-independent basis, Debye):
    X=              0.0060    Y=              0.0092    Z=              0.0170  Tot=              0.0202
 Quadrupole moment (field-independent basis, Debye-Ang):
   XX=            -85.2110   YY=            -84.8968   ZZ=            -84.6182
   XY=             -1.1067   XZ=              0.5333   YZ=              0.3615

 Normal termination of Gaussian 16 at Thu May  6 05:18:40 2021.
