 Gaussian 16, Revision A.03,
 Gaussian 16:  EM64L-G16RevA.03 25-Dec-2016

 -------------
 #p 6-31g* mp2
 -------------

 ------------------------------------------------------
 Input file generated by CHIRIPA (05-May-2021 14:57:21)
 ------------------------------------------------------
 Symbolic Z-matrix:
 Charge =  0 Multiplicity = 1

                         Standard orientation:
 ---------------------------------------------------------------------
 Center     Atomic      Atomic             Coordinates (Angstroms)
 Number     Number       Type             X           Y           Z
 ---------------------------------------------------------------------
      1          6           0       -4.092181    2.190367   -0.832151
      2          6           0       -2.739289    1.980458   -0.545546
      3          6           0       -2.298411    0.742634   -0.068088
      4          6           0       -3.241886   -0.267683    0.111924
      5          6           0       -4.596527   -0.089395   -0.164577
      6          6           0       -5.014855    1.156593   -0.641088
      7          1           0       -4.425907    3.155110   -1.202684
      8          1           0       -2.020491    2.781483   -0.692971
      9          1           0       -1.256977    0.552910    0.161777
     10          1           0       -5.289484   -0.907053   -0.007531
     11          1           0       -6.066151    1.316758   -0.862832
     12          7           0       -2.787084   -1.582433    0.616887
     13          8           0       -3.638192   -2.456350    0.766964
     14          8           0       -1.588115   -1.714123    0.853038
     15          6           0        3.453749    2.439277    0.773355
     16          6           0        4.595076    1.801135    0.276698
     17          6           0        4.530905    0.478066   -0.170425
     18          6           0        3.303607   -0.179894   -0.106240
     19          6           0        2.148912    0.428662    0.383278
     20          6           0        2.236456    1.752215    0.824969
     21          1           0        3.512677    3.467257    1.118581
     22          1           0        5.541781    2.332259    0.235434
     23          1           0        5.398985   -0.039999   -0.559609
     24          1           0        1.219300   -0.126689    0.411977
     25          1           0        1.348462    2.245285    1.210188
     26          7           0        3.223301   -1.580825   -0.576714
     27          8           0        2.130138   -2.138621   -0.509667
     28          8           0        4.255038   -2.094549   -1.003610
 ---------------------------------------------------------------------

 SCF Done:  E(RHF) =  -868.335941418     A.U. after   16 cycles
 E2 =    -0.2600938998D+01 EUMP2 =    -0.87093688041547D+03

 The electronic state is 1-A.
 Alpha  occ. eigenvalues --  -20.60850 -20.60815 -20.60396 -20.60332 -15.85883
 Alpha  occ. eigenvalues --  -15.85426 -11.31449 -11.31074 -11.28146 -11.27978
 Alpha  occ. eigenvalues --  -11.27778 -11.27688 -11.27682 -11.27520 -11.27136
 Alpha  occ. eigenvalues --  -11.27033 -11.26836 -11.26750  -1.59892  -1.59447
 Alpha  occ. eigenvalues --   -1.39445  -1.38985  -1.19629  -1.19291  -1.08976
 Alpha  occ. eigenvalues --   -1.08637  -1.05076  -1.04748  -0.95787  -0.95417
 Alpha  occ. eigenvalues --   -0.86462  -0.86124  -0.82623  -0.82252  -0.77678
 Alpha  occ. eigenvalues --   -0.77220  -0.72096  -0.71627  -0.71213  -0.70786
 Alpha  occ. eigenvalues --   -0.70760  -0.70381  -0.65284  -0.65108  -0.64937
 Alpha  occ. eigenvalues --   -0.64754  -0.62535  -0.61989  -0.55552  -0.55236
 Alpha  occ. eigenvalues --   -0.53367  -0.53205  -0.53047  -0.52821  -0.48862
 Alpha  occ. eigenvalues --   -0.48847  -0.48435  -0.48366  -0.44798  -0.44331
 Alpha  occ. eigenvalues --   -0.37591  -0.37289  -0.36678  -0.36363
 Alpha virt. eigenvalues --    0.04912   0.05292   0.10974   0.11289   0.16377
 Alpha virt. eigenvalues --    0.16688   0.18860   0.22137   0.24747   0.27047
 Alpha virt. eigenvalues --    0.27972   0.29302   0.30638   0.31347   0.31736

 Mulliken charges:
               1
     1  C   -0.170514
     2  C   -0.220915
     3  C   -0.170358
     4  C    0.158562
     5  C   -0.169268
     6  C   -0.218296
     7  H    0.226026
     8  H    0.220367
     9  H    0.271990
    10  H    0.277581
    11  H    0.224825
    12  N    0.489244
    13  O   -0.457767
    14  O   -0.460583
    15  C   -0.170879
    16  C   -0.218941
    17  C   -0.169890
    18  C    0.160203
    19  C   -0.185599
    20  C   -0.221785
    21  H    0.223896
    22  H    0.223182
    23  H    0.276271
    24  H    0.293365
    25  H    0.216000
    26  N    0.486037
    27  O   -0.449578
    28  O   -0.463174
 Sum of Mulliken charges =  -0.00000

 Dipole moment (field-independent basis, Debye):
    X=             -1.4772    Y=              9.2936    Z=             -0.1527  Tot=              9.4115
 Quadrupole moment (field-independent basis, Debye-Ang):
   XX=            -82.7202   YY=           -109.7120   ZZ=           -107.0463
   XY=              3.5650   XZ=             10.2177   YZ=              0.0841

 Normal termination of Gaussian 16 at Thu May  6 21:05:07 2021.
