 Gaussian 16, Revision A.03,
 Gaussian 16:  EM64L-G16RevA.03 25-Dec-2016

 -------------
 #p 6-31g* mp2
 -------------

 ------------------------------------------------------
 Input file generated by CHIRIPA (05-May-2021 14:53:18)
 ------------------------------------------------------
 Symbolic Z-matrix:
 Charge =  0 Multiplicity = 1

                         Standard orientation:
 ---------------------------------------------------------------------
 Center     Atomic      Atomic             Coordinates (Angstroms)
 Number     Number       Type             X           Y           Z
 ---------------------------------------------------------------------
      1          6           0       -4.625512    0.191099   -0.237984
      2          6           0       -6.139522    0.298830   -0.053182
      3          6           0       -6.704726    1.624089   -0.565067
      4          1           0       -4.138403    1.025498    0.284939
      5          1           0       -4.384088    0.306518   -1.303717
      6          1           0       -6.378137    0.181861    1.011711
      7          1           0       -6.623072   -0.536030   -0.576445
      8          1           0       -6.495619    1.745288   -1.632862
      9          1           0       -6.249293    2.467258   -0.035682
     10          1           0       -7.788517    1.679871   -0.423133
     11          6           0       -4.045682   -1.128198    0.268950
     12          6           0       -2.531672   -1.235929    0.084149
     13          6           0       -1.966468   -2.561188    0.596034
     14          1           0       -4.287106   -1.243617    1.334684
     15          1           0       -4.532791   -1.962597   -0.253972
     16          1           0       -2.048122   -0.401069    0.607412
     17          1           0       -2.293057   -1.118959   -0.980744
     18          1           0       -2.421901   -3.404357    0.066649
     19          1           0       -2.175575   -2.682387    1.663829
     20          1           0       -0.882677   -2.616970    0.454100
     21          6           0        1.540858    2.032552    0.411917
     22          6           0        2.873549    2.456418    0.383747
     23          6           0        3.904701    1.541818    0.149694
     24          6           0        3.565682    0.204944   -0.053088
     25          6           0        2.247546   -0.248180   -0.031015
     26          6           0        1.232653    0.683982    0.204812
     27          1           0        0.746149    2.749855    0.594423
     28          1           0        3.115859    3.503111    0.544258
     29          1           0        4.944946    1.842772    0.122598
     30          1           0        2.037134   -1.298143   -0.194491
     31          1           0        0.198561    0.351951    0.226134
     32          7           0        4.648709   -0.772599   -0.301809
     33          8           0        4.323746   -1.944844   -0.477528
     34          8           0        5.802042   -0.348041   -0.316325
 ---------------------------------------------------------------------

 SCF Done:  E(RHF) =  -669.535536835     A.U. after   15 cycles
 E2 =    -0.2091273781D+01 EUMP2 =    -0.67162681061608D+03

 The electronic state is 1-A.
 Alpha  occ. eigenvalues --  -20.60719 -20.60714 -15.85771 -11.31126 -11.27692
 Alpha  occ. eigenvalues --  -11.27682 -11.27425 -11.26712 -11.26643 -11.22660
 Alpha  occ. eigenvalues --  -11.22187 -11.22167 -11.22079 -11.21932 -11.21583
 Alpha  occ. eigenvalues --   -1.59794  -1.39348  -1.19293  -1.09203  -1.08690
 Alpha  occ. eigenvalues --   -1.04695  -1.04289  -0.96703  -0.95529  -0.87716
 Alpha  occ. eigenvalues --   -0.86094  -0.82363  -0.80386  -0.79014  -0.77406
 Alpha  occ. eigenvalues --   -0.71990  -0.71117  -0.70408  -0.65841  -0.64944
 Alpha  occ. eigenvalues --   -0.64703  -0.62109  -0.61642  -0.60077  -0.58325
 Alpha  occ. eigenvalues --   -0.55966  -0.55195  -0.53407  -0.53131  -0.53024
 Alpha  occ. eigenvalues --   -0.52795  -0.50628  -0.48785  -0.48746  -0.48635
 Alpha  occ. eigenvalues --   -0.47405  -0.46540  -0.46448  -0.44756  -0.44535
 Alpha  occ. eigenvalues --   -0.37276  -0.36294
 Alpha virt. eigenvalues --    0.05120   0.11350   0.16611   0.19334   0.22427
 Alpha virt. eigenvalues --    0.23652   0.25374   0.25716   0.26370   0.28086
 Alpha virt. eigenvalues --    0.28727   0.29878   0.30834   0.31343   0.32206

 Mulliken charges:
               1
     1  C   -0.298655
     2  C   -0.300260
     3  C   -0.476056
     4  H    0.146321
     5  H    0.150546
     6  H    0.153023
     7  H    0.153931
     8  H    0.155915
     9  H    0.154369
    10  H    0.162360
    11  C   -0.297420
    12  C   -0.306829
    13  C   -0.476053
    14  H    0.151913
    15  H    0.153688
    16  H    0.143529
    17  H    0.154176
    18  H    0.161418
    19  H    0.159235
    20  H    0.156544
    21  C   -0.173377
    22  C   -0.218401
    23  C   -0.171353
    24  C    0.159182
    25  C   -0.175008
    26  C   -0.227600
    27  H    0.225494
    28  H    0.223070
    29  H    0.275315
    30  H    0.275855
    31  H    0.238327
    32  N    0.488058
    33  O   -0.460557
    34  O   -0.460700
 Sum of Mulliken charges =  -0.00000

 Dipole moment (field-independent basis, Debye):
    X=             -4.0724    Y=              3.3529    Z=              0.8686  Tot=              5.3461
 Quadrupole moment (field-independent basis, Debye-Ang):
   XX=           -119.4381   YY=            -91.2814   ZZ=            -94.9465
   XY=             15.3276   XZ=              3.6163   YZ=              0.9797

 Normal termination of Gaussian 16 at Wed May  5 20:27:47 2021.
