 Gaussian 16, Revision A.03,
 Gaussian 16:  EM64L-G16RevA.03 25-Dec-2016

 -------------
 #p 6-31g* mp2
 -------------

 ------------------------------------------------------
 Input file generated by CHIRIPA (05-May-2021 14:55:20)
 ------------------------------------------------------
 Symbolic Z-matrix:
 Charge =  0 Multiplicity = 1

                         Standard orientation:
 ---------------------------------------------------------------------
 Center     Atomic      Atomic             Coordinates (Angstroms)
 Number     Number       Type             X           Y           Z
 ---------------------------------------------------------------------
      1          6           0       -5.359874   -1.527852   -0.180667
      2          6           0       -4.814370   -1.273934    1.082057
      3          6           0       -3.689188   -0.455355    1.217866
      4          6           0       -3.132499    0.095399    0.064585
      5          6           0       -3.652870   -0.138781   -1.207289
      6          6           0       -4.778408   -0.960466   -1.319302
      7          1           0       -6.234080   -2.164950   -0.276924
      8          1           0       -5.263849   -1.713228    1.968078
      9          1           0       -3.246470   -0.242186    2.183256
     10          1           0       -3.182743    0.313307   -2.072168
     11          1           0       -5.199915   -1.155923   -2.301226
     12          7           0       -1.941131    0.963635    0.195764
     13          8           0       -1.469315    1.436880   -0.835772
     14          8           0       -1.501713    1.154474    1.327633
     15          6           0        3.581285    0.340747   -0.263051
     16          6           0        3.355348    1.783887    0.188926
     17          6           0        1.991268    2.329370   -0.234781
     18          1           0        3.486567    0.286510   -1.356226
     19          1           0        2.786407   -0.294658    0.151468
     20          1           0        4.151197    2.416146   -0.225187
     21          1           0        3.450805    1.834729    1.281134
     22          1           0        1.184930    1.722945    0.190268
     23          1           0        1.889301    2.307665   -1.324613
     24          1           0        1.850783    3.362319    0.098600
     25          6           0        4.940573   -0.218642    0.153061
     26          6           0        5.166510   -1.661782   -0.298916
     27          6           0        6.530590   -2.207265    0.124790
     28          1           0        5.735450    0.416763   -0.261458
     29          1           0        5.035290   -0.164405    1.246236
     30          1           0        5.071054   -1.712625   -1.391124
     31          1           0        4.370661   -2.294042    0.115197
     32          1           0        6.632557   -2.185560    1.214622
     33          1           0        7.336928   -1.600841   -0.300258
     34          1           0        6.671075   -3.240214   -0.208590
 ---------------------------------------------------------------------

 SCF Done:  E(RHF) =  -669.536298272     A.U. after   15 cycles
 E2 =    -0.2091611593D+01 EUMP2 =    -0.67162790986520D+03

 The electronic state is 1-A.
 Alpha  occ. eigenvalues --  -20.61034 -20.61029 -15.86035 -11.31344 -11.27899
 Alpha  occ. eigenvalues --  -11.27894 -11.27631 -11.26898 -11.26889 -11.20960
 Alpha  occ. eigenvalues --  -11.20558 -11.20541 -11.20274 -11.20141 -11.18933
 Alpha  occ. eigenvalues --   -1.60075  -1.39630  -1.19505  -1.08913  -1.07425
 Alpha  occ. eigenvalues --   -1.04896  -1.02399  -0.95759  -0.94806  -0.86297
 Alpha  occ. eigenvalues --   -0.85814  -0.82590  -0.78517  -0.77651  -0.77164
 Alpha  occ. eigenvalues --   -0.72235  -0.71387  -0.70613  -0.65158  -0.64899
 Alpha  occ. eigenvalues --   -0.64069  -0.62242  -0.59802  -0.58308  -0.56423
 Alpha  occ. eigenvalues --   -0.55407  -0.54097  -0.53229  -0.52987  -0.51500
 Alpha  occ. eigenvalues --   -0.51274  -0.49236  -0.49004  -0.48522  -0.46728
 Alpha  occ. eigenvalues --   -0.45553  -0.45051  -0.44678  -0.44555  -0.42667
 Alpha  occ. eigenvalues --   -0.37481  -0.36495
 Alpha virt. eigenvalues --    0.04862   0.11161   0.16370   0.21302   0.23776
 Alpha virt. eigenvalues --    0.25522   0.27221   0.27611   0.28175   0.28425
 Alpha virt. eigenvalues --    0.29342   0.30867   0.32406   0.32568   0.32677

 Mulliken charges:
               1
     1  C   -0.170460
     2  C   -0.218608
     3  C   -0.170788
     4  C    0.160227
     5  C   -0.170744
     6  C   -0.218604
     7  H    0.226178
     8  H    0.223975
     9  H    0.275859
    10  H    0.276115
    11  H    0.224037
    12  N    0.487090
    13  O   -0.456493
    14  O   -0.460139
    15  C   -0.296644
    16  C   -0.300684
    17  C   -0.476871
    18  H    0.147288
    19  H    0.149371
    20  H    0.144782
    21  H    0.148657
    22  H    0.179695
    23  H    0.150022
    24  H    0.154399
    25  C   -0.297251
    26  C   -0.298662
    27  C   -0.475052
    28  H    0.147650
    29  H    0.148357
    30  H    0.150515
    31  H    0.150397
    32  H    0.154359
    33  H    0.154396
    34  H    0.157629
 Sum of Mulliken charges =  -0.00000

 Dipole moment (field-independent basis, Debye):
    X=             -4.6610    Y=             -3.0495    Z=             -0.4541  Tot=              5.5884
 Quadrupole moment (field-independent basis, Debye-Ang):
   XX=            -71.2214   YY=            -96.5818   ZZ=            -89.1962
   XY=             10.0747   XZ=              0.6364   YZ=             -1.1571

 Normal termination of Gaussian 16 at Thu May  6 14:04:40 2021.
