 Gaussian 16, Revision A.03,
 Gaussian 16:  EM64L-G16RevA.03 25-Dec-2016

 -------------
 #p 6-31g* mp2
 -------------

 ------------------------------------------------------
 Input file generated by CHIRIPA (05-May-2021 14:53:14)
 ------------------------------------------------------
 Symbolic Z-matrix:
 Charge =  0 Multiplicity = 1

                         Standard orientation:
 ---------------------------------------------------------------------
 Center     Atomic      Atomic             Coordinates (Angstroms)
 Number     Number       Type             X           Y           Z
 ---------------------------------------------------------------------
      1          6           0       -4.645620   -0.238750    0.180249
      2          6           0       -5.303143    0.434232   -1.025049
      3          6           0       -6.827865    0.321739   -1.006021
      4          1           0       -4.936290   -1.297932    0.204535
      5          1           0       -5.036117    0.213759    1.102281
      6          1           0       -4.910494   -0.018465   -1.944564
      7          1           0       -5.010720    1.491890   -1.046577
      8          1           0       -7.237511    0.790340   -0.105352
      9          1           0       -7.136715   -0.728597   -1.008442
     10          1           0       -7.277305    0.809527   -1.876611
     11          6           0       -3.121518   -0.134741    0.175422
     12          6           0       -2.463996   -0.807723    1.380720
     13          6           0       -0.939274   -0.695230    1.361692
     14          1           0       -2.731021   -0.587250   -0.746610
     15          1           0       -2.830849    0.924441    0.151136
     16          1           0       -2.756419   -1.865381    1.402248
     17          1           0       -2.856645   -0.355026    2.300235
     18          1           0       -0.630424    0.355106    1.364113
     19          1           0       -0.529628   -1.163831    0.461023
     20          1           0       -0.489833   -1.183018    2.232282
     21          6           0        2.655287    2.580620    0.403820
     22          6           0        2.348138    1.596661    1.349338
     23          6           0        2.553913    0.244559    1.059468
     24          6           0        3.070654   -0.089486   -0.191406
     25          6           0        3.386543    0.867617   -1.154453
     26          6           0        3.172598    2.213605   -0.842860
     27          1           0        2.492263    3.628591    0.637436
     28          1           0        1.946264    1.878766    2.318337
     29          1           0        2.324835   -0.537697    1.772921
     30          1           0        3.785852    0.555583   -2.111848
     31          1           0        3.412047    2.975612   -1.579104
     32          7           0        3.292825   -1.517659   -0.509777
     33          8           0        3.749171   -1.785934   -1.619017
     34          8           0        3.006409   -2.341744    0.355952
 ---------------------------------------------------------------------

 SCF Done:  E(RHF) =  -669.535439901     A.U. after   15 cycles
 E2 =    -0.2091874997D+01 EUMP2 =    -0.67162731489794D+03

 The electronic state is 1-A.
 Alpha  occ. eigenvalues --  -20.60746 -20.60739 -15.85796 -11.31136 -11.27732
 Alpha  occ. eigenvalues --  -11.27707 -11.27482 -11.26733 -11.26718 -11.21685
 Alpha  occ. eigenvalues --  -11.21676 -11.21486 -11.21424 -11.21197 -11.21132
 Alpha  occ. eigenvalues --   -1.59819  -1.39373  -1.19328  -1.08727  -1.08512
 Alpha  occ. eigenvalues --   -1.04732  -1.03616  -0.96081  -0.95558  -0.87106
 Alpha  occ. eigenvalues --   -0.86124  -0.82394  -0.79692  -0.78325  -0.77431
 Alpha  occ. eigenvalues --   -0.72015  -0.71142  -0.70439  -0.65144  -0.64979
 Alpha  occ. eigenvalues --   -0.64734  -0.62082  -0.61011  -0.59444  -0.57690
 Alpha  occ. eigenvalues --   -0.55364  -0.55242  -0.53217  -0.52900  -0.52660
 Alpha  occ. eigenvalues --   -0.52382  -0.50009  -0.48773  -0.48768  -0.47997
 Alpha  occ. eigenvalues --   -0.46710  -0.45869  -0.45787  -0.44777  -0.43880
 Alpha  occ. eigenvalues --   -0.37313  -0.36270
 Alpha virt. eigenvalues --    0.05084   0.11260   0.16517   0.21137   0.22809
 Alpha virt. eigenvalues --    0.24134   0.26448   0.26567   0.27359   0.27929
 Alpha virt. eigenvalues --    0.28713   0.29965   0.31477   0.31596   0.31882

 Mulliken charges:
               1
     1  C   -0.298392
     2  C   -0.299628
     3  C   -0.475742
     4  H    0.151178
     5  H    0.148621
     6  H    0.152945
     7  H    0.150493
     8  H    0.154713
     9  H    0.156068
    10  H    0.160230
    11  C   -0.298289
    12  C   -0.300698
    13  C   -0.479104
    14  H    0.151887
    15  H    0.146945
    16  H    0.155303
    17  H    0.149617
    18  H    0.150995
    19  H    0.162101
    20  H    0.157653
    21  C   -0.171193
    22  C   -0.220170
    23  C   -0.163985
    24  C    0.156389
    25  C   -0.170842
    26  C   -0.218819
    27  H    0.225347
    28  H    0.223521
    29  H    0.277444
    30  H    0.275420
    31  H    0.223170
    32  N    0.487946
    33  O   -0.460777
    34  O   -0.460348
 Sum of Mulliken charges =  -0.00000

 Dipole moment (field-independent basis, Debye):
    X=             -0.7856    Y=              4.9819    Z=              1.0928  Tot=              5.1605
 Quadrupole moment (field-independent basis, Debye-Ang):
   XX=           -101.0164   YY=            -95.1340   ZZ=            -91.0943
   XY=             16.2702   XZ=              1.7904   YZ=             -1.9292

 Normal termination of Gaussian 16 at Thu May  6 20:23:51 2021.
