 Gaussian 16, Revision A.03,
 Gaussian 16:  EM64L-G16RevA.03 25-Dec-2016

 -------------
 #p 6-31g* mp2
 -------------

 ------------------------------------------------------
 Input file generated by CHIRIPA (05-May-2021 14:57:25)
 ------------------------------------------------------
 Symbolic Z-matrix:
 Charge =  0 Multiplicity = 1

                         Standard orientation:
 ---------------------------------------------------------------------
 Center     Atomic      Atomic             Coordinates (Angstroms)
 Number     Number       Type             X           Y           Z
 ---------------------------------------------------------------------
      1          6           0       -2.129591    2.343947   -0.812966
      2          6           0       -1.528445    1.738418    0.295402
      3          6           0       -1.902751    0.450803    0.690989
      4          6           0       -2.885983   -0.205346   -0.047939
      5          6           0       -3.503456    0.371232   -1.156801
      6          6           0       -3.113444    1.659628   -1.534258
      7          1           0       -1.832721    3.344501   -1.113226
      8          1           0       -0.764095    2.267497    0.857443
      9          1           0       -1.453720   -0.041560    1.545020
     10          1           0       -4.262480   -0.181183   -1.697300
     11          1           0       -3.582017    2.127418   -2.395453
     12          7           0       -3.290558   -1.568900    0.361255
     13          8           0       -4.159250   -2.125859   -0.306433
     14          8           0       -2.731311   -2.054876    1.341922
     15          6           0        1.792062    1.600311    1.754674
     16          6           0        1.911969    0.247431    2.089128
     17          6           0        2.479512   -0.658971    1.188641
     18          6           0        2.918614   -0.175970   -0.043102
     19          6           0        2.812965    1.165962   -0.405519
     20          6           0        2.242150    2.054457    0.510610
     21          1           0        1.349910    2.297471    2.460270
     22          1           0        1.563288   -0.108088    3.054568
     23          1           0        2.584530   -1.711597    1.421807
     24          1           0        3.169640    1.490615   -1.375468
     25          1           0        2.150306    3.104570    0.248169
     26          7           0        3.521178   -1.126059   -1.004688
     27          8           0        3.900350   -0.675422   -2.083480
     28          8           0        3.602887   -2.303387   -0.661379
 ---------------------------------------------------------------------

 SCF Done:  E(RHF) =  -868.335809906     A.U. after   16 cycles
 E2 =    -0.2602684040D+01 EUMP2 =    -0.87093849394660D+03

 The electronic state is 1-A.
 Alpha  occ. eigenvalues --  -20.61159 -20.61142 -20.60973 -20.60954 -15.86214
 Alpha  occ. eigenvalues --  -15.86021 -11.31813 -11.31417 -11.28435 -11.28373
 Alpha  occ. eigenvalues --  -11.28293 -11.27995 -11.27954 -11.27757 -11.27558
 Alpha  occ. eigenvalues --  -11.27477 -11.27005 -11.26995  -1.60222  -1.60037
 Alpha  occ. eigenvalues --   -1.39769  -1.39592  -1.20038  -1.19587  -1.09432
 Alpha  occ. eigenvalues --   -1.08986  -1.05457  -1.04998  -0.96206  -0.95819
 Alpha  occ. eigenvalues --   -0.86880  -0.86399  -0.83022  -0.82647  -0.77992
 Alpha  occ. eigenvalues --   -0.77697  -0.72432  -0.72241  -0.71545  -0.71357
 Alpha  occ. eigenvalues --   -0.71209  -0.70729  -0.65710  -0.65483  -0.65248
 Alpha  occ. eigenvalues --   -0.65026  -0.62775  -0.62395  -0.56050  -0.55552
 Alpha  occ. eigenvalues --   -0.53930  -0.53549  -0.53258  -0.52979  -0.49210
 Alpha  occ. eigenvalues --   -0.49167  -0.49002  -0.48990  -0.45122  -0.44991
 Alpha  occ. eigenvalues --   -0.38139  -0.37609  -0.37002  -0.36493
 Alpha virt. eigenvalues --    0.04483   0.04852   0.10284   0.11228   0.15803
 Alpha virt. eigenvalues --    0.16328   0.19553   0.22035   0.25921   0.26252
 Alpha virt. eigenvalues --    0.28292   0.28572   0.29932   0.31536   0.31698

 Mulliken charges:
               1
     1  C   -0.173041
     2  C   -0.211382
     3  C   -0.171526
     4  C    0.159337
     5  C   -0.170488
     6  C   -0.217726
     7  H    0.222617
     8  H    0.215636
     9  H    0.270317
    10  H    0.276808
    11  H    0.224276
    12  N    0.488551
    13  O   -0.458347
    14  O   -0.462321
    15  C   -0.183437
    16  C   -0.221956
    17  C   -0.167647
    18  C    0.160292
    19  C   -0.168147
    20  C   -0.217634
    21  H    0.224070
    22  H    0.228673
    23  H    0.282104
    24  H    0.277332
    25  H    0.221056
    26  N    0.487939
    27  O   -0.459582
    28  O   -0.455774
 Sum of Mulliken charges =  -0.00000

 Dipole moment (field-independent basis, Debye):
    X=             -0.4958    Y=              7.8826    Z=              1.8307  Tot=              8.1075
 Quadrupole moment (field-independent basis, Debye-Ang):
   XX=           -123.7440   YY=           -106.4033   ZZ=           -100.6755
   XY=             -3.5828   XZ=             16.6788   YZ=             -3.6030

 Normal termination of Gaussian 16 at Fri May  7 09:38:00 2021.
