 Gaussian 16, Revision A.03,
 Gaussian 16:  EM64L-G16RevA.03 25-Dec-2016

 -------------
 #p 6-31g* mp2
 -------------

 ------------------------------------------------------
 Input file generated by CHIRIPA (05-May-2021 14:55:20)
 ------------------------------------------------------
 Symbolic Z-matrix:
 Charge =  0 Multiplicity = 1

                         Standard orientation:
 ---------------------------------------------------------------------
 Center     Atomic      Atomic             Coordinates (Angstroms)
 Number     Number       Type             X           Y           Z
 ---------------------------------------------------------------------
      1          6           0       -3.934590    1.952447    0.259691
      2          6           0       -2.655068    1.859817    0.817154
      3          6           0       -1.912661    0.681101    0.698799
      4          6           0       -2.483069   -0.390342    0.013281
      5          6           0       -3.755369   -0.328915   -0.553084
      6          6           0       -4.479696    0.859712   -0.422446
      7          1           0       -4.504287    2.871951    0.356403
      8          1           0       -2.229206    2.706852    1.347455
      9          1           0       -0.919875    0.582159    1.120705
     10          1           0       -4.153277   -1.190118   -1.075976
     11          1           0       -5.473156    0.928794   -0.856391
     12          7           0       -1.706686   -1.643441   -0.118518
     13          8           0       -2.231683   -2.573169   -0.727305
     14          8           0       -0.587860   -1.672165    0.389461
     15          6           0        3.072878   -0.392457    0.297083
     16          6           0        3.729521   -1.681532   -0.197983
     17          6           0        3.180380   -2.928735    0.495358
     18          1           0        3.221617   -0.305996    1.382138
     19          1           0        1.988030   -0.455892    0.134375
     20          1           0        4.812967   -1.615115   -0.035656
     21          1           0        3.579368   -1.764837   -1.282017
     22          1           0        2.103318   -3.022623    0.322952
     23          1           0        3.343927   -2.872050    1.576395
     24          1           0        3.663621   -3.838789    0.126389
     25          6           0        3.611348    0.863024   -0.386690
     26          6           0        2.954705    2.152100    0.108375
     27          6           0        3.503846    3.399303   -0.584966
     28          1           0        4.696197    0.926461   -0.223982
     29          1           0        3.462609    0.776564   -1.471746
     30          1           0        3.104859    2.235405    1.192410
     31          1           0        1.871259    2.085683   -0.053951
     32          1           0        3.340299    3.342618   -1.666003
     33          1           0        4.580908    3.493191   -0.412560
     34          1           0        3.020606    4.309359   -0.215996
 ---------------------------------------------------------------------

 SCF Done:  E(RHF) =  -669.536585031     A.U. after   15 cycles
 E2 =    -0.2092005261D+01 EUMP2 =    -0.67162859029197D+03

 The electronic state is 1-A.
 Alpha  occ. eigenvalues --  -20.61059 -20.61054 -15.86074 -11.31341 -11.27898
 Alpha  occ. eigenvalues --  -11.27887 -11.27625 -11.26895 -11.26882 -11.21481
 Alpha  occ. eigenvalues --  -11.21014 -11.20888 -11.20599 -11.20434 -11.19659
 Alpha  occ. eigenvalues --   -1.60110  -1.39668  -1.19504  -1.08920  -1.07801
 Alpha  occ. eigenvalues --   -1.04890  -1.02865  -0.95770  -0.95287  -0.86308
 Alpha  occ. eigenvalues --   -0.86293  -0.82608  -0.79023  -0.77733  -0.77450
 Alpha  occ. eigenvalues --   -0.72301  -0.71416  -0.70611  -0.65165  -0.64893
 Alpha  occ. eigenvalues --   -0.64426  -0.62236  -0.60253  -0.58757  -0.56887
 Alpha  occ. eigenvalues --   -0.55399  -0.54555  -0.53227  -0.52980  -0.52034
 Alpha  occ. eigenvalues --   -0.51702  -0.49348  -0.49059  -0.48919  -0.47292
 Alpha  occ. eigenvalues --   -0.46066  -0.45310  -0.45069  -0.44649  -0.43111
 Alpha  occ. eigenvalues --   -0.37481  -0.36489
 Alpha virt. eigenvalues --    0.04821   0.11148   0.16312   0.20767   0.23263
 Alpha virt. eigenvalues --    0.25069   0.25420   0.27438   0.27638   0.28699
 Alpha virt. eigenvalues --    0.29379   0.31142   0.32047   0.32116   0.32693

 Mulliken charges:
               1
     1  C   -0.170376
     2  C   -0.218892
     3  C   -0.172714
     4  C    0.157435
     5  C   -0.170488
     6  C   -0.218628
     7  H    0.226257
     8  H    0.224617
     9  H    0.278680
    10  H    0.275864
    11  H    0.223988
    12  N    0.492843
    13  O   -0.458065
    14  O   -0.464537
    15  C   -0.308342
    16  C   -0.297306
    17  C   -0.484874
    18  H    0.144734
    19  H    0.168712
    20  H    0.145875
    21  H    0.150282
    22  H    0.182582
    23  H    0.149310
    24  H    0.154216
    25  C   -0.297345
    26  C   -0.298498
    27  C   -0.474820
    28  H    0.147955
    29  H    0.149126
    30  H    0.149983
    31  H    0.144612
    32  H    0.155560
    33  H    0.156290
    34  H    0.155964
 Sum of Mulliken charges =  -0.00000

 Dipole moment (field-independent basis, Debye):
    X=             -3.0599    Y=              4.2825    Z=              0.4335  Tot=              5.2811
 Quadrupole moment (field-independent basis, Debye-Ang):
   XX=            -79.0332   YY=            -99.0760   ZZ=            -93.8423
   XY=             -8.5129   XZ=              1.5931   YZ=              1.6900

 Normal termination of Gaussian 16 at Thu May  6 15:46:06 2021.
