 Gaussian 16, Revision A.03,
 Gaussian 16:  EM64L-G16RevA.03 25-Dec-2016

 -------------
 #p 6-31g* mp2
 -------------

 ------------------------------------------------------
 Input file generated by CHIRIPA (05-May-2021 14:53:11)
 ------------------------------------------------------
 Symbolic Z-matrix:
 Charge =  0 Multiplicity = 1

                         Standard orientation:
 ---------------------------------------------------------------------
 Center     Atomic      Atomic             Coordinates (Angstroms)
 Number     Number       Type             X           Y           Z
 ---------------------------------------------------------------------
      1          6           0       -5.664944    0.402774   -0.303915
      2          6           0       -7.034415   -0.274122   -0.237970
      3          6           0       -8.179070    0.670520   -0.605681
      4          1           0       -5.658423    1.269319    0.371364
      5          1           0       -5.506206    0.795424   -1.317830
      6          1           0       -7.189940   -0.666591    0.775142
      7          1           0       -7.037614   -1.139269   -0.913341
      8          1           0       -8.051252    1.052696   -1.623622
      9          1           0       -8.204444    1.528060    0.074454
     10          1           0       -9.148876    0.166090   -0.551960
     11          6           0       -4.510512   -0.528803    0.061020
     12          6           0       -3.141041    0.148092   -0.004924
     13          6           0       -1.996386   -0.796550    0.362786
     14          1           0       -4.669250   -0.921453    1.074935
     15          1           0       -4.517033   -1.395349   -0.614259
     16          1           0       -3.137842    1.013240    0.670446
     17          1           0       -2.985516    0.540562   -1.018036
     18          1           0       -1.971012   -1.654090   -0.317348
     19          1           0       -2.124204   -1.178726    1.380728
     20          1           0       -1.026580   -0.292119    0.309066
     21          6           0        1.766955   -0.059435    1.311265
     22          6           0        2.329888   -1.223177    0.777099
     23          6           0        3.552723   -1.174797    0.101168
     24          6           0        4.188233    0.059736   -0.022715
     25          6           0        3.652918    1.236642    0.498456
     26          6           0        2.429100    1.164603    1.170488
     27          1           0        0.816646   -0.106208    1.834830
     28          1           0        1.817896   -2.175167    0.884913
     29          1           0        4.011071   -2.060335   -0.322100
     30          1           0        4.186883    2.171021    0.375020
     31          1           0        1.994281    2.069992    1.584309
     32          7           0        5.483314    0.123477   -0.736228
     33          8           0        6.023285    1.223439   -0.831895
     34          8           0        5.933905   -0.927731   -1.186303
 ---------------------------------------------------------------------

 SCF Done:  E(RHF) =  -669.535357626     A.U. after   15 cycles
 E2 =    -0.2091227473D+01 EUMP2 =    -0.67162658509928D+03

 The electronic state is 1-A.
 Alpha  occ. eigenvalues --  -20.60751 -20.60746 -15.85804 -11.31174 -11.27739
 Alpha  occ. eigenvalues --  -11.27731 -11.27434 -11.26755 -11.26738 -11.22390
 Alpha  occ. eigenvalues --  -11.22077 -11.22028 -11.22010 -11.21874 -11.21426
 Alpha  occ. eigenvalues --   -1.59826  -1.39380  -1.19344  -1.09030  -1.08737
 Alpha  occ. eigenvalues --   -1.04743  -1.04164  -0.96636  -0.95570  -0.87659
 Alpha  occ. eigenvalues --   -0.86138  -0.82404  -0.80237  -0.78811  -0.77449
 Alpha  occ. eigenvalues --   -0.72022  -0.71149  -0.70468  -0.65655  -0.64992
 Alpha  occ. eigenvalues --   -0.64745  -0.62089  -0.61557  -0.60049  -0.58235
 Alpha  occ. eigenvalues --   -0.55929  -0.55268  -0.53395  -0.53105  -0.52886
 Alpha  occ. eigenvalues --   -0.52830  -0.50564  -0.48782  -0.48777  -0.48542
 Alpha  occ. eigenvalues --   -0.47252  -0.46362  -0.46264  -0.44785  -0.44409
 Alpha  occ. eigenvalues --   -0.37291  -0.36349
 Alpha virt. eigenvalues --    0.05040   0.11293   0.16429   0.20837   0.22423
 Alpha virt. eigenvalues --    0.23850   0.26046   0.26564   0.27013   0.27406
 Alpha virt. eigenvalues --    0.29123   0.30587   0.31047   0.31349   0.31940

 Mulliken charges:
               1
     1  C   -0.298753
     2  C   -0.300044
     3  C   -0.476012
     4  H    0.149734
     5  H    0.150869
     6  H    0.152048
     7  H    0.152730
     8  H    0.155981
     9  H    0.155399
    10  H    0.161442
    11  C   -0.298922
    12  C   -0.298734
    13  C   -0.484713
    14  H    0.149420
    15  H    0.151149
    16  H    0.150771
    17  H    0.155669
    18  H    0.159024
    19  H    0.151687
    20  H    0.159642
    21  C   -0.171850
    22  C   -0.219243
    23  C   -0.171076
    24  C    0.158707
    25  C   -0.170909
    26  C   -0.220360
    27  H    0.229938
    28  H    0.224645
    29  H    0.275563
    30  H    0.275516
    31  H    0.223517
    32  N    0.488061
    33  O   -0.460472
    34  O   -0.460426
 Sum of Mulliken charges =  -0.00000

 Dipole moment (field-independent basis, Debye):
    X=             -4.7089    Y=             -0.2272    Z=              2.4688  Tot=              5.3217
 Quadrupole moment (field-independent basis, Debye-Ang):
   XX=           -133.9651   YY=            -90.1545   ZZ=            -94.6528
   XY=             -0.5378   XZ=             10.5914   YZ=              1.5384

 Normal termination of Gaussian 16 at Thu May  6 02:27:16 2021.
