 Gaussian 16, Revision A.03,
 Gaussian 16:  EM64L-G16RevA.03 25-Dec-2016

 -------------
 #p 6-31g* mp2
 -------------

 ------------------------------------------------------
 Input file generated by CHIRIPA (05-May-2021 14:51:09)
 ------------------------------------------------------
 Symbolic Z-matrix:
 Charge =  0 Multiplicity = 1

                         Standard orientation:
 ---------------------------------------------------------------------
 Center     Atomic      Atomic             Coordinates (Angstroms)
 Number     Number       Type             X           Y           Z
 ---------------------------------------------------------------------
      1          6           0        2.742824    0.180153   -0.665759
      2          6           0        3.988538   -0.670407   -0.415300
      3          6           0        4.168494   -1.776007   -1.456001
      4          1           0        1.857261   -0.470011   -0.668972
      5          1           0        2.807069    0.625761   -1.668107
      6          1           0        3.922614   -1.113165    0.586815
      7          1           0        4.871218   -0.018115   -0.412492
      8          1           0        4.259884   -1.348911   -2.459912
      9          1           0        3.305889   -2.450182   -1.454927
     10          1           0        5.064962   -2.371787   -1.257880
     11          6           0        2.549280    1.289674    0.366340
     12          6           0        1.303566    2.140234    0.115881
     13          6           0        1.123610    3.245834    1.156582
     14          1           0        2.485035    0.844066    1.368688
     15          1           0        3.434843    1.939838    0.369554
     16          1           0        0.420885    1.487942    0.113074
     17          1           0        1.369490    2.582992   -0.886234
     18          1           0        1.986215    3.920009    1.155508
     19          1           0        1.032220    2.818738    2.160494
     20          1           0        0.227142    3.841614    0.958461
     21          6           0       -2.358710   -1.047937    0.784440
     22          6           0       -1.007842   -1.730200    0.566131
     23          6           0       -0.445895   -2.351656    1.845115
     24          1           0       -2.250041   -0.271476    1.554014
     25          1           0       -3.073045   -1.782889    1.180629
     26          1           0       -0.296647   -0.994512    0.169168
     27          1           0       -1.119696   -2.504998   -0.203150
     28          1           0       -1.133532   -3.105823    2.241332
     29          1           0       -0.305807   -1.586754    2.615765
     30          1           0        0.520155   -2.833959    1.666250
     31          6           0       -2.933394   -0.421890   -0.485021
     32          6           0       -4.284261    0.260373   -0.266712
     33          6           0       -4.846209    0.881829   -1.545697
     34          1           0       -2.219059    0.313062   -0.881210
     35          1           0       -3.042062   -1.198351   -1.254595
     36          1           0       -4.172408    1.035171    0.502569
     37          1           0       -4.995456   -0.475315    0.130252
     38          1           0       -4.986297    0.116927   -2.316346
     39          1           0       -4.158572    1.635996   -1.941913
     40          1           0       -5.812258    1.364131   -1.366832
 ---------------------------------------------------------------------

 SCF Done:  E(RHF) =  -470.733096264     A.U. after   11 cycles
 E2 =    -0.1583990631D+01 EUMP2 =    -0.47231708689481D+03

 The electronic state is 1-A.
 Alpha  occ. eigenvalues --  -11.21667 -11.21650 -11.21619 -11.21604 -11.21444
 Alpha  occ. eigenvalues --  -11.21424 -11.21382 -11.21351 -11.21150 -11.21130
 Alpha  occ. eigenvalues --  -11.21079 -11.21071  -1.08501  -1.08434  -1.03576
 Alpha  occ. eigenvalues --   -1.03559  -0.96031  -0.95997  -0.87037  -0.87023
 Alpha  occ. eigenvalues --   -0.79653  -0.79624  -0.78393  -0.78169  -0.65357
 Alpha  occ. eigenvalues --   -0.64879  -0.61020  -0.60908  -0.59392  -0.59374
 Alpha  occ. eigenvalues --   -0.57670  -0.57583  -0.55383  -0.55217  -0.52722
 Alpha  occ. eigenvalues --   -0.52700  -0.52450  -0.52426  -0.49987  -0.49935
 Alpha  occ. eigenvalues --   -0.47998  -0.47946  -0.46853  -0.46669  -0.46147
 Alpha  occ. eigenvalues --   -0.45794  -0.45769  -0.45133  -0.43826  -0.43805
 Alpha virt. eigenvalues --    0.19624   0.22559   0.24264   0.24679   0.25265
 Alpha virt. eigenvalues --    0.26688   0.27006   0.27644   0.28182   0.29470
 Alpha virt. eigenvalues --    0.30654   0.31671   0.31705   0.31859   0.32491

 Mulliken charges:
               1
     1  C   -0.306244
     2  C   -0.299234
     3  C   -0.475848
     4  H    0.157245
     5  H    0.149521
     6  H    0.151993
     7  H    0.151915
     8  H    0.155233
     9  H    0.155336
    10  H    0.160245
    11  C   -0.297915
    12  C   -0.305888
    13  C   -0.475440
    14  H    0.149795
    15  H    0.150020
    16  H    0.156046
    17  H    0.152295
    18  H    0.155673
    19  H    0.155073
    20  H    0.160096
    21  C   -0.297302
    22  C   -0.311671
    23  C   -0.475560
    24  H    0.149617
    25  H    0.149866
    26  H    0.162157
    27  H    0.152199
    28  H    0.155910
    29  H    0.154874
    30  H    0.159932
    31  C   -0.300585
    32  C   -0.299612
    33  C   -0.475791
    34  H    0.151172
    35  H    0.149889
    36  H    0.152064
    37  H    0.151994
    38  H    0.155213
    39  H    0.155407
    40  H    0.160307
 Sum of Mulliken charges =  -0.00000

 Dipole moment (field-independent basis, Debye):
    X=             -0.0047    Y=             -0.0022    Z=             -0.0065  Tot=              0.0083
 Quadrupole moment (field-independent basis, Debye-Ang):
   XX=            -84.5845   YY=            -84.5502   ZZ=            -85.5610
   XY=              1.2974   XZ=             -0.4807   YZ=             -0.3305

 Normal termination of Gaussian 16 at Wed May  5 19:44:29 2021.
