 Gaussian 16, Revision A.03,
 Gaussian 16:  EM64L-G16RevA.03 25-Dec-2016

 -------------
 #p 6-31g* mp2
 -------------

 ------------------------------------------------------
 Input file generated by CHIRIPA (05-May-2021 14:51:13)
 ------------------------------------------------------
 Symbolic Z-matrix:
 Charge =  0 Multiplicity = 1

                         Standard orientation:
 ---------------------------------------------------------------------
 Center     Atomic      Atomic             Coordinates (Angstroms)
 Number     Number       Type             X           Y           Z
 ---------------------------------------------------------------------
      1          6           0       -3.179392   -0.471612   -0.203036
      2          6           0       -4.668282   -0.776987   -0.370182
      3          6           0       -4.970198   -1.568103   -1.643279
      4          1           0       -2.826436    0.090785   -1.078294
      5          1           0       -2.617649   -1.415907   -0.190933
      6          1           0       -5.227192    0.167538   -0.380577
      7          1           0       -5.017779   -1.338557    0.505665
      8          1           0       -4.438194   -2.524941   -1.637521
      9          1           0       -4.648796   -1.010289   -2.528798
     10          1           0       -6.040223   -1.775461   -1.742826
     11          6           0       -2.861709    0.318764    1.065077
     12          6           0       -1.372819    0.624139    1.232223
     13          6           0       -1.070904    1.415256    2.505319
     14          1           0       -3.423453    1.263059    1.052974
     15          1           0       -3.214666   -0.243633    1.940335
     16          1           0       -1.023322    1.185709    0.356376
     17          1           0       -0.813910   -0.320386    1.242617
     18          1           0       -1.392305    0.857442    3.390839
     19          1           0       -1.602908    2.372094    2.499562
     20          1           0       -0.000879    1.622613    2.604866
     21          6           0        3.468158   -0.530109   -0.554304
     22          6           0        3.655667   -1.407073    0.684147
     23          6           0        4.553581   -2.616473    0.421666
     24          1           0        3.040769   -1.137000   -1.364221
     25          1           0        4.451710   -0.188403   -0.905383
     26          1           0        2.671950   -1.745891    1.033601
     27          1           0        4.082480   -0.797977    1.491270
     28          1           0        5.547593   -2.294546    0.094700
     29          1           0        4.129047   -3.247845   -0.365569
     30          1           0        4.674062   -3.229595    1.320235
     31          6           0        2.572944    0.682956   -0.307737
     32          6           0        2.385435    1.559921   -1.546188
     33          6           0        1.487520    2.769320   -1.283707
     34          1           0        1.589391    0.341251    0.043342
     35          1           0        3.000332    1.289847    0.502180
     36          1           0        1.958621    0.950825   -2.353311
     37          1           0        3.369152    1.898739   -1.895642
     38          1           0        1.912055    3.400693   -0.496472
     39          1           0        0.493510    2.447393   -0.956740
     40          1           0        1.367040    3.382442   -2.182276
 ---------------------------------------------------------------------

 SCF Done:  E(RHF) =  -470.733022790     A.U. after   11 cycles
 E2 =    -0.1583667276D+01 EUMP2 =    -0.47231669006563D+03

 The electronic state is 1-A.
 Alpha  occ. eigenvalues --  -11.21644 -11.21632 -11.21594 -11.21579 -11.21445
 Alpha  occ. eigenvalues --  -11.21385 -11.21364 -11.21290 -11.21097 -11.21072
 Alpha  occ. eigenvalues --  -11.21065 -11.21058  -1.08480  -1.08396  -1.03580
 Alpha  occ. eigenvalues --   -1.03501  -0.96005  -0.95964  -0.87022  -0.86981
 Alpha  occ. eigenvalues --   -0.79701  -0.79532  -0.78372  -0.78127  -0.65131
 Alpha  occ. eigenvalues --   -0.65020  -0.61078  -0.60829  -0.59437  -0.59265
 Alpha  occ. eigenvalues --   -0.57616  -0.57575  -0.55341  -0.55211  -0.52701
 Alpha  occ. eigenvalues --   -0.52658  -0.52444  -0.52381  -0.50024  -0.49851
 Alpha  occ. eigenvalues --   -0.48117  -0.47824  -0.46796  -0.46483  -0.46049
 Alpha  occ. eigenvalues --   -0.45749  -0.45714  -0.45333  -0.43809  -0.43762
 Alpha virt. eigenvalues --    0.20882   0.23111   0.23475   0.24513   0.25813
 Alpha virt. eigenvalues --    0.25972   0.26946   0.27743   0.28151   0.29325
 Alpha virt. eigenvalues --    0.30322   0.31393   0.31620   0.31858   0.32111

 Mulliken charges:
               1
     1  C   -0.298428
     2  C   -0.299652
     3  C   -0.475756
     4  H    0.149274
     5  H    0.149229
     6  H    0.152130
     7  H    0.152085
     8  H    0.155124
     9  H    0.155231
    10  H    0.160414
    11  C   -0.297399
    12  C   -0.308605
    13  C   -0.476358
    14  H    0.149781
    15  H    0.149844
    16  H    0.158889
    17  H    0.151859
    18  H    0.155176
    19  H    0.155278
    20  H    0.162213
    21  C   -0.297984
    22  C   -0.299579
    23  C   -0.475678
    24  H    0.149533
    25  H    0.149374
    26  H    0.151420
    27  H    0.151888
    28  H    0.155248
    29  H    0.155137
    30  H    0.160136
    31  C   -0.306053
    32  C   -0.299051
    33  C   -0.481823
    34  H    0.159091
    35  H    0.148736
    36  H    0.151669
    37  H    0.151824
    38  H    0.155287
    39  H    0.160356
    40  H    0.160142
 Sum of Mulliken charges =  -0.00000

 Dipole moment (field-independent basis, Debye):
    X=             -0.0272    Y=              0.0039    Z=              0.0150  Tot=              0.0313
 Quadrupole moment (field-independent basis, Debye-Ang):
   XX=            -84.6886   YY=            -84.9069   ZZ=            -85.2284
   XY=              0.6904   XZ=             -0.0103   YZ=             -0.7987

 Normal termination of Gaussian 16 at Thu May  6 00:46:18 2021.
