 Gaussian 16, Revision A.03,
 Gaussian 16:  EM64L-G16RevA.03 25-Dec-2016

 -------------
 #p 6-31g* mp2
 -------------

 ------------------------------------------------------
 Input file generated by CHIRIPA (05-May-2021 14:57:21)
 ------------------------------------------------------
 Symbolic Z-matrix:
 Charge =  0 Multiplicity = 1

                         Standard orientation:
 ---------------------------------------------------------------------
 Center     Atomic      Atomic             Coordinates (Angstroms)
 Number     Number       Type             X           Y           Z
 ---------------------------------------------------------------------
      1          6           0       -3.644383    2.171304   -0.516676
      2          6           0       -2.915687    2.121852    0.676252
      3          6           0       -2.413637    0.906771    1.151721
      4          6           0       -2.660105   -0.244670    0.405579
      5          6           0       -3.382527   -0.227851   -0.786526
      6          6           0       -3.875071    0.998363   -1.242977
      7          1           0       -4.030696    3.119532   -0.878646
      8          1           0       -2.734995    3.031183    1.242389
      9          1           0       -1.846332    0.839851    2.072104
     10          1           0       -3.546445   -1.151071   -1.328941
     11          1           0       -4.440653    1.033767   -2.169750
     12          7           0       -2.133638   -1.536915    0.898870
     13          8           0       -2.364459   -2.537191    0.222996
     14          8           0       -1.500142   -1.525031    1.952046
     15          6           0        4.836893    1.048498    0.657478
     16          6           0        4.804558   -0.312699    0.337131
     17          6           0        3.651934   -0.886788   -0.207321
     18          6           0        2.544818   -0.066609   -0.419191
     19          6           0        2.546048    1.292787   -0.110431
     20          6           0        3.709523    1.845490    0.433070
     21          1           0        5.736494    1.486157    1.080052
     22          1           0        5.678599   -0.934069    0.510325
     23          1           0        3.599560   -1.937753   -0.464508
     24          1           0        1.659060    1.886749   -0.294495
     25          1           0        3.731769    2.902908    0.680894
     26          7           0        1.318842   -0.663051   -0.995075
     27          8           0        0.356727    0.081015   -1.172096
     28          8           0        1.343253   -1.863315   -1.258527
 ---------------------------------------------------------------------

 SCF Done:  E(RHF) =  -868.337606703     A.U. after   16 cycles
 E2 =    -0.2601126636D+01 EUMP2 =    -0.87093873333863D+03

 The electronic state is 1-A.
 Alpha  occ. eigenvalues --  -20.60636 -20.60564 -20.59624 -20.59539 -15.85631
 Alpha  occ. eigenvalues --  -15.84632 -11.31013 -11.29977 -11.27629 -11.27551
 Alpha  occ. eigenvalues --  -11.27352 -11.26666 -11.26649 -11.26589 -11.26544
 Alpha  occ. eigenvalues --  -11.26449 -11.25753 -11.25649  -1.59665  -1.58637
 Alpha  occ. eigenvalues --   -1.39219  -1.38203  -1.19190  -1.18180  -1.08587
 Alpha  occ. eigenvalues --   -1.07604  -1.04605  -1.03642  -0.95420  -0.94445
 Alpha  occ. eigenvalues --   -0.86002  -0.85054  -0.82258  -0.81310  -0.77299
 Alpha  occ. eigenvalues --   -0.76330  -0.71874  -0.71039  -0.70888  -0.70313
 Alpha  occ. eigenvalues --   -0.69835  -0.69396  -0.64852  -0.64619  -0.63896
 Alpha  occ. eigenvalues --   -0.63719  -0.61957  -0.61028  -0.55116  -0.54215
 Alpha  occ. eigenvalues --   -0.52924  -0.52707  -0.51902  -0.51795  -0.48645
 Alpha  occ. eigenvalues --   -0.48589  -0.47644  -0.47616  -0.44633  -0.43617
 Alpha  occ. eigenvalues --   -0.37176  -0.36210  -0.36095  -0.35216
 Alpha virt. eigenvalues --    0.05218   0.06292   0.11448   0.12431   0.16710
 Alpha virt. eigenvalues --    0.17738   0.21539   0.22307   0.27429   0.28157
 Alpha virt. eigenvalues --    0.28457   0.29232   0.31065   0.31771   0.32664

 Mulliken charges:
               1
     1  C   -0.170960
     2  C   -0.219975
     3  C   -0.170426
     4  C    0.177086
     5  C   -0.161601
     6  C   -0.217791
     7  H    0.219839
     8  H    0.215383
     9  H    0.268732
    10  H    0.275443
    11  H    0.219627
    12  N    0.489147
    13  O   -0.455379
    14  O   -0.470700
    15  C   -0.170660
    16  C   -0.218391
    17  C   -0.168780
    18  C    0.160891
    19  C   -0.171435
    20  C   -0.218492
    21  H    0.224876
    22  H    0.223852
    23  H    0.278044
    24  H    0.272181
    25  H    0.220996
    26  N    0.489176
    27  O   -0.469634
    28  O   -0.451049
 Sum of Mulliken charges =  -0.00000

 Dipole moment (field-independent basis, Debye):
    X=              2.6509    Y=              6.2825    Z=              0.0910  Tot=              6.8195
 Quadrupole moment (field-independent basis, Debye-Ang):
   XX=            -72.7178   YY=           -103.2125   ZZ=           -106.3063
   XY=             -7.5908   XZ=              9.5346   YZ=              3.7819

 Normal termination of Gaussian 16 at Wed May  5 17:45:59 2021.
