 Gaussian 16, Revision A.03,
 Gaussian 16:  EM64L-G16RevA.03 25-Dec-2016

 -------------
 #p 6-31g* mp2
 -------------

 ------------------------------------------------------
 Input file generated by CHIRIPA (05-May-2021 14:57:22)
 ------------------------------------------------------
 Symbolic Z-matrix:
 Charge =  0 Multiplicity = 1

                         Standard orientation:
 ---------------------------------------------------------------------
 Center     Atomic      Atomic             Coordinates (Angstroms)
 Number     Number       Type             X           Y           Z
 ---------------------------------------------------------------------
      1          6           0        2.530927    2.393642    0.120069
      2          6           0        1.749483    1.258771   -0.120624
      3          6           0        2.341897   -0.003926   -0.216480
      4          6           0        3.724717   -0.095652   -0.065857
      5          6           0        4.530271    1.016336    0.174671
      6          6           0        3.916384    2.269023    0.266689
      7          1           0        2.062384    3.370648    0.193041
      8          1           0        0.673291    1.352552   -0.234911
      9          1           0        1.760738   -0.899017   -0.402180
     10          1           0        5.600682    0.891239    0.284173
     11          1           0        4.525760    3.148648    0.453681
     12          7           0        4.363246   -1.427114   -0.165304
     13          8           0        5.583530   -1.481236   -0.028869
     14          8           0        3.631350   -2.391380   -0.377803
     15          6           0       -3.706186    2.388618   -0.165519
     16          6           0       -4.851507    1.624897   -0.413498
     17          6           0       -4.815051    0.232149   -0.297426
     18          6           0       -3.611097   -0.366680    0.070251
     19          6           0       -2.453123    0.366833    0.323920
     20          6           0       -2.512754    1.758259    0.201751
     21          1           0       -3.743508    3.470024   -0.258054
     22          1           0       -5.779722    2.111741   -0.698887
     23          1           0       -5.686842   -0.383275   -0.483579
     24          1           0       -1.542362   -0.146947    0.606699
     25          1           0       -1.621724    2.348839    0.394946
     26          7           0       -3.560236   -1.840419    0.196358
     27          8           0       -2.487284   -2.343953    0.521728
     28          8           0       -4.594286   -2.464098   -0.032556
 ---------------------------------------------------------------------

 SCF Done:  E(RHF) =  -868.335996335     A.U. after   16 cycles
 E2 =    -0.2600490456D+01 EUMP2 =    -0.87093648679073D+03

 The electronic state is 1-A.
 Alpha  occ. eigenvalues --  -20.61230 -20.61225 -20.60850 -20.60829 -15.86293
 Alpha  occ. eigenvalues --  -15.85904 -11.31859 -11.31462 -11.28551 -11.28410
 Alpha  occ. eigenvalues --  -11.28236 -11.28082 -11.28067 -11.27944 -11.27633
 Alpha  occ. eigenvalues --  -11.27442 -11.27255 -11.27120  -1.60302  -1.59916
 Alpha  occ. eigenvalues --   -1.39851  -1.39462  -1.20060  -1.19684  -1.09409
 Alpha  occ. eigenvalues --   -1.09058  -1.05521  -1.05124  -0.96210  -0.95847
 Alpha  occ. eigenvalues --   -0.86896  -0.86530  -0.83068  -0.82677  -0.78098
 Alpha  occ. eigenvalues --   -0.77662  -0.72504  -0.72119  -0.71630  -0.71244
 Alpha  occ. eigenvalues --   -0.71162  -0.70812  -0.65739  -0.65589  -0.65342
 Alpha  occ. eigenvalues --   -0.65148  -0.62969  -0.62345  -0.55984  -0.55659
 Alpha  occ. eigenvalues --   -0.53808  -0.53642  -0.53432  -0.53203  -0.49278
 Alpha  occ. eigenvalues --   -0.49251  -0.48899  -0.48857  -0.45213  -0.44824
 Alpha  occ. eigenvalues --   -0.38023  -0.37694  -0.37117  -0.36726
 Alpha virt. eigenvalues --    0.04468   0.04869   0.10535   0.10898   0.15785
 Alpha virt. eigenvalues --    0.16251   0.18204   0.22157   0.24850   0.25710
 Alpha virt. eigenvalues --    0.27914   0.29634   0.29932   0.30976   0.32548

 Mulliken charges:
               1
     1  C   -0.171297
     2  C   -0.224585
     3  C   -0.171872
     4  C    0.159075
     5  C   -0.169710
     6  C   -0.218362
     7  H    0.221481
     8  H    0.218178
     9  H    0.282594
    10  H    0.277320
    11  H    0.224249
    12  N    0.487692
    13  O   -0.460258
    14  O   -0.455710
    15  C   -0.169935
    16  C   -0.218104
    17  C   -0.169121
    18  C    0.159794
    19  C   -0.172664
    20  C   -0.220459
    21  H    0.226723
    22  H    0.226309
    23  H    0.278621
    24  H    0.272640
    25  H    0.215427
    26  N    0.488164
    27  O   -0.458744
    28  O   -0.457447
 Sum of Mulliken charges =  -0.00000

 Dipole moment (field-independent basis, Debye):
    X=             -2.5317    Y=              9.6833    Z=             -0.1262  Tot=             10.0096
 Quadrupole moment (field-independent basis, Debye-Ang):
   XX=           -109.6365   YY=           -109.6975   ZZ=           -106.1984
   XY=              1.2741   XZ=              5.4082   YZ=              0.6345

 Normal termination of Gaussian 16 at Fri May  7 04:51:08 2021.
