 Gaussian 16, Revision A.03,
 Gaussian 16:  EM64L-G16RevA.03 25-Dec-2016

 -------------
 #p 6-31g* mp2
 -------------

 ------------------------------------------------------
 Input file generated by CHIRIPA (05-May-2021 14:53:17)
 ------------------------------------------------------
 Symbolic Z-matrix:
 Charge =  0 Multiplicity = 1

                         Standard orientation:
 ---------------------------------------------------------------------
 Center     Atomic      Atomic             Coordinates (Angstroms)
 Number     Number       Type             X           Y           Z
 ---------------------------------------------------------------------
      1          6           0        3.178162   -0.711567   -0.409366
      2          6           0        2.234718   -1.697565    0.280350
      3          6           0        1.088317   -2.150273   -0.624422
      4          1           0        2.603954    0.164002   -0.741944
      5          1           0        3.587679   -1.179339   -1.315390
      6          1           0        1.828174   -1.228574    1.185549
      7          1           0        2.811273   -2.570802    0.611495
      8          1           0        1.477093   -2.642118   -1.521942
      9          1           0        0.488408   -1.292264   -0.944626
     10          1           0        0.426148   -2.854686   -0.111397
     11          6           0        4.329349   -0.249795    0.482409
     12          6           0        5.272793    0.736203   -0.207306
     13          6           0        6.419194    1.188911    0.697466
     14          1           0        3.919833    0.217978    1.388434
     15          1           0        4.903558   -1.125364    0.814987
     16          1           0        4.696238    1.609440   -0.538451
     17          1           0        5.679338    0.267212   -1.112505
     18          1           0        7.019103    0.330902    1.017670
     19          1           0        6.030418    1.680757    1.594986
     20          1           0        7.081363    1.893324    0.184441
     21          6           0       -3.736030   -1.978723    0.393296
     22          6           0       -4.260919   -0.916260    1.136386
     23          6           0       -3.823172    0.392254    0.911181
     24          6           0       -2.854951    0.603132   -0.069314
     25          6           0       -2.312781   -0.434462   -0.826110
     26          6           0       -2.765348   -1.734863   -0.583858
     27          1           0       -4.081839   -2.992058    0.574861
     28          1           0       -5.014866   -1.102678    1.895897
     29          1           0       -4.212573    1.233277    1.471953
     30          1           0       -1.562288   -0.217361   -1.576473
     31          1           0       -2.355936   -2.558047   -1.162473
     32          7           0       -2.383684    1.984104   -0.316752
     33          8           0       -1.529770    2.143489   -1.186271
     34          8           0       -2.877142    2.880975    0.363511
 ---------------------------------------------------------------------

 SCF Done:  E(RHF) =  -669.534902129     A.U. after   15 cycles
 E2 =    -0.2091991531D+01 EUMP2 =    -0.67162689366025D+03

 The electronic state is 1-A.
 Alpha  occ. eigenvalues --  -20.60795 -20.60788 -15.85846 -11.31185 -11.27748
 Alpha  occ. eigenvalues --  -11.27733 -11.27484 -11.26766 -11.26733 -11.21782
 Alpha  occ. eigenvalues --  -11.21516 -11.21428 -11.21352 -11.21268 -11.20902
 Alpha  occ. eigenvalues --   -1.59869  -1.39424  -1.19358  -1.08756  -1.08413
 Alpha  occ. eigenvalues --   -1.04761  -1.03573  -0.96053  -0.95594  -0.87085
 Alpha  occ. eigenvalues --   -0.86157  -0.82427  -0.79656  -0.78198  -0.77473
 Alpha  occ. eigenvalues --   -0.72065  -0.71193  -0.70481  -0.65067  -0.64990
 Alpha  occ. eigenvalues --   -0.64759  -0.62158  -0.60941  -0.59431  -0.57641
 Alpha  occ. eigenvalues --   -0.55416  -0.55201  -0.53148  -0.52922  -0.52673
 Alpha  occ. eigenvalues --   -0.52424  -0.49971  -0.48821  -0.48819  -0.47960
 Alpha  occ. eigenvalues --   -0.46652  -0.45751  -0.45642  -0.44832  -0.43816
 Alpha  occ. eigenvalues --   -0.37339  -0.36303
 Alpha virt. eigenvalues --    0.05030   0.11208   0.16499   0.20874   0.22965
 Alpha virt. eigenvalues --    0.24258   0.25901   0.26744   0.27256   0.28084
 Alpha virt. eigenvalues --    0.29103   0.29702   0.31490   0.31613   0.32298

 Mulliken charges:
               1
     1  C   -0.300789
     2  C   -0.298762
     3  C   -0.479969
     4  H    0.156774
     5  H    0.148514
     6  H    0.154323
     7  H    0.151639
     8  H    0.154748
     9  H    0.154236
    10  H    0.155792
    11  C   -0.298497
    12  C   -0.300444
    13  C   -0.475835
    14  H    0.150913
    15  H    0.148147
    16  H    0.155879
    17  H    0.151113
    18  H    0.153919
    19  H    0.155956
    20  H    0.160736
    21  C   -0.171883
    22  C   -0.218295
    23  C   -0.171405
    24  C    0.157759
    25  C   -0.171341
    26  C   -0.215968
    27  H    0.225528
    28  H    0.223348
    29  H    0.275423
    30  H    0.276174
    31  H    0.225685
    32  N    0.488102
    33  O   -0.461260
    34  O   -0.460259
 Sum of Mulliken charges =  -0.00000

 Dipole moment (field-independent basis, Debye):
    X=             -1.6235    Y=             -4.8101    Z=              0.8926  Tot=              5.1545
 Quadrupole moment (field-independent basis, Debye-Ang):
   XX=            -84.1805   YY=           -100.3847   ZZ=            -93.0083
   XY=             11.3139   XZ=             -5.6524   YZ=              2.2484

 Normal termination of Gaussian 16 at Thu May  6 15:38:00 2021.
