 Gaussian 16, Revision A.03,
 Gaussian 16:  EM64L-G16RevA.03 25-Dec-2016

 -------------
 #p 6-31g* mp2
 -------------

 ------------------------------------------------------
 Input file generated by CHIRIPA (05-May-2021 14:57:23)
 ------------------------------------------------------
 Symbolic Z-matrix:
 Charge =  0 Multiplicity = 1

                         Standard orientation:
 ---------------------------------------------------------------------
 Center     Atomic      Atomic             Coordinates (Angstroms)
 Number     Number       Type             X           Y           Z
 ---------------------------------------------------------------------
      1          6           0        4.758841    1.746252    0.117825
      2          6           0        4.711471    0.808913    1.154971
      3          6           0        3.829702   -0.274246    1.093336
      4          6           0        3.005826   -0.389811   -0.025218
      5          6           0        3.029631    0.527530   -1.074603
      6          6           0        3.919250    1.602822   -0.991696
      7          1           0        5.446869    2.584621    0.173967
      8          1           0        5.362340    0.917774    2.017852
      9          1           0        3.772390   -1.014508    1.882097
     10          1           0        2.368505    0.392370   -1.921988
     11          1           0        3.953875    2.329241   -1.798641
     12          7           0        2.068182   -1.532339   -0.101729
     13          8           0        1.352737   -1.611658   -1.097964
     14          8           0        2.066455   -2.326898    0.835986
     15          6           0       -3.421283    2.704189    0.198185
     16          6           0       -4.490874    1.862961    0.521964
     17          6           0       -4.357618    0.474809    0.422857
     18          6           0       -3.135136   -0.040441   -0.005332
     19          6           0       -2.051022    0.771492   -0.335110
     20          6           0       -2.206912    2.156733   -0.228566
     21          1           0       -3.533590    3.781408    0.278062
     22          1           0       -5.435134    2.285330    0.853662
     23          1           0       -5.169378   -0.199561    0.667172
     24          1           0       -1.121991    0.321029   -0.662832
     25          1           0       -1.374546    2.807617   -0.480681
     26          7           0       -2.982083   -1.508476   -0.114189
     27          8           0       -1.894731   -1.937569   -0.493898
     28          8           0       -3.952372   -2.202230    0.182260
 ---------------------------------------------------------------------

 SCF Done:  E(RHF) =  -868.335499569     A.U. after   16 cycles
 E2 =    -0.2601254726D+01 EUMP2 =    -0.87093675429577D+03

 The electronic state is 1-A.
 Alpha  occ. eigenvalues --  -20.60547 -20.60522 -20.59763 -20.59651 -15.85572
 Alpha  occ. eigenvalues --  -15.84762 -11.31255 -11.30530 -11.27881 -11.27815
 Alpha  occ. eigenvalues --  -11.27624 -11.27175 -11.27106 -11.27016 -11.26947
 Alpha  occ. eigenvalues --  -11.26894 -11.26291 -11.26271  -1.59579  -1.58798
 Alpha  occ. eigenvalues --   -1.39133  -1.38328  -1.19447  -1.18756  -1.08777
 Alpha  occ. eigenvalues --   -1.08087  -1.04892  -1.04220  -0.95558  -0.94844
 Alpha  occ. eigenvalues --   -0.86274  -0.85597  -0.82388  -0.81665  -0.77398
 Alpha  occ. eigenvalues --   -0.76634  -0.71778  -0.71053  -0.70804  -0.70540
 Alpha  occ. eigenvalues --   -0.70147  -0.69860  -0.65086  -0.64886  -0.64393
 Alpha  occ. eigenvalues --   -0.64236  -0.62235  -0.61549  -0.55364  -0.54727
 Alpha  occ. eigenvalues --   -0.53210  -0.52980  -0.52533  -0.52320  -0.48541
 Alpha  occ. eigenvalues --   -0.48521  -0.47788  -0.47682  -0.44430  -0.43648
 Alpha  occ. eigenvalues --   -0.37440  -0.36774  -0.36518  -0.35845
 Alpha virt. eigenvalues --    0.05112   0.05892   0.11111   0.11804   0.16522
 Alpha virt. eigenvalues --    0.17301   0.21157   0.21908   0.26881   0.27545
 Alpha virt. eigenvalues --    0.28148   0.28896   0.30595   0.31466   0.32194

 Mulliken charges:
               1
     1  C   -0.171942
     2  C   -0.218246
     3  C   -0.171094
     4  C    0.158725
     5  C   -0.176540
     6  C   -0.218871
     7  H    0.225133
     8  H    0.223916
     9  H    0.277387
    10  H    0.273790
    11  H    0.222017
    12  N    0.486527
    13  O   -0.451998
    14  O   -0.454372
    15  C   -0.171755
    16  C   -0.218952
    17  C   -0.171191
    18  C    0.157927
    19  C   -0.175542
    20  C   -0.219201
    21  H    0.221948
    22  H    0.221051
    23  H    0.274908
    24  H    0.283094
    25  H    0.217661
    26  N    0.485768
    27  O   -0.443267
    28  O   -0.466881
 Sum of Mulliken charges =  -0.00000

 Dipole moment (field-independent basis, Debye):
    X=              2.9742    Y=              8.8174    Z=              0.6399  Tot=              9.3275
 Quadrupole moment (field-independent basis, Debye-Ang):
   XX=            -78.3549   YY=           -109.1509   ZZ=           -101.3892
   XY=             -5.2462   XZ=             -0.1752   YZ=             -2.0292

 Normal termination of Gaussian 16 at Fri May  7 04:53:07 2021.
