 Gaussian 16, Revision A.03,
 Gaussian 16:  EM64L-G16RevA.03 25-Dec-2016

 -------------
 #p 6-31g* mp2
 -------------

 ------------------------------------------------------
 Input file generated by CHIRIPA (05-May-2021 14:53:16)
 ------------------------------------------------------
 Symbolic Z-matrix:
 Charge =  0 Multiplicity = 1

                         Standard orientation:
 ---------------------------------------------------------------------
 Center     Atomic      Atomic             Coordinates (Angstroms)
 Number     Number       Type             X           Y           Z
 ---------------------------------------------------------------------
      1          6           0        2.884796    0.587945    0.948730
      2          6           0        2.286757    1.965868    0.662965
      3          6           0        1.836166    2.689526    1.932248
      4          1           0        2.141886   -0.024644    1.477657
      5          1           0        3.739166    0.700949    1.630402
      6          1           0        1.434624    1.850440   -0.019062
      7          1           0        3.031111    2.575183    0.134486
      8          1           0        2.680708    2.833921    2.613790
      9          1           0        1.075150    2.105061    2.459369
     10          1           0        1.411840    3.672426    1.704839
     11          6           0        3.339926   -0.147884   -0.310294
     12          6           0        3.937965   -1.525808   -0.024529
     13          6           0        4.388556   -2.249465   -1.293812
     14          1           0        2.485556   -0.260889   -0.991966
     15          1           0        4.082836    0.464704   -0.839221
     16          1           0        3.193611   -2.135123    0.503949
     17          1           0        4.790098   -1.410380    0.657498
     18          1           0        5.149572   -1.665000   -1.820933
     19          1           0        3.544014   -2.393861   -1.975355
     20          1           0        4.812882   -3.232365   -1.066403
     21          6           0       -1.578431    1.602872   -1.826834
     22          6           0       -2.909652    1.628581   -1.398219
     23          6           0       -3.393189    0.650340   -0.524270
     24          6           0       -2.514007   -0.343477   -0.096888
     25          6           0       -1.182421   -0.396125   -0.506031
     26          6           0       -0.720577    0.592383   -1.380159
     27          1           0       -1.211233    2.366781   -2.505807
     28          1           0       -3.578137    2.412141   -1.743479
     29          1           0       -4.419137    0.646389   -0.176660
     30          1           0       -0.539900   -1.189846   -0.144657
     31          1           0        0.313754    0.569917   -1.711372
     32          7           0       -3.014423   -1.384531    0.828418
     33          8           0       -2.219720   -2.249423    1.190420
     34          8           0       -4.191877   -1.315905    1.174149
 ---------------------------------------------------------------------

 SCF Done:  E(RHF) =  -669.534575172     A.U. after   15 cycles
 E2 =    -0.2093460289D+01 EUMP2 =    -0.67162803546048D+03

 The electronic state is 1-A.
 Alpha  occ. eigenvalues --  -20.60815 -20.60810 -15.85868 -11.31249 -11.27816
 Alpha  occ. eigenvalues --  -11.27808 -11.27549 -11.26825 -11.26789 -11.22183
 Alpha  occ. eigenvalues --  -11.22093 -11.22090 -11.21916 -11.21515 -11.21424
 Alpha  occ. eigenvalues --   -1.59890  -1.39443  -1.19422  -1.09036  -1.08807
 Alpha  occ. eigenvalues --   -1.04832  -1.04019  -0.96476  -0.95643  -0.87485
 Alpha  occ. eigenvalues --   -0.86231  -0.82485  -0.80101  -0.78884  -0.77517
 Alpha  occ. eigenvalues --   -0.72086  -0.71213  -0.70520  -0.65804  -0.65065
 Alpha  occ. eigenvalues --   -0.64768  -0.62168  -0.61410  -0.59841  -0.58093
 Alpha  occ. eigenvalues --   -0.55775  -0.55312  -0.53213  -0.53121  -0.52911
 Alpha  occ. eigenvalues --   -0.52886  -0.50416  -0.48853  -0.48841  -0.48408
 Alpha  occ. eigenvalues --   -0.47145  -0.46354  -0.46286  -0.44845  -0.44312
 Alpha  occ. eigenvalues --   -0.37379  -0.36381
 Alpha virt. eigenvalues --    0.05001   0.11107   0.16414   0.19189   0.22867
 Alpha virt. eigenvalues --    0.23880   0.24877   0.25984   0.27227   0.28435
 Alpha virt. eigenvalues --    0.30218   0.30972   0.31354   0.31402   0.31784

 Mulliken charges:
               1
     1  C   -0.300572
     2  C   -0.305429
     3  C   -0.475245
     4  H    0.152900
     5  H    0.153775
     6  H    0.149902
     7  H    0.150669
     8  H    0.156765
     9  H    0.159207
    10  H    0.159459
    11  C   -0.301912
    12  C   -0.300709
    13  C   -0.475881
    14  H    0.138436
    15  H    0.151997
    16  H    0.155319
    17  H    0.155509
    18  H    0.155418
    19  H    0.153079
    20  H    0.164056
    21  C   -0.172682
    22  C   -0.218185
    23  C   -0.170558
    24  C    0.158738
    25  C   -0.174307
    26  C   -0.220844
    27  H    0.226833
    28  H    0.223779
    29  H    0.275874
    30  H    0.275619
    31  H    0.231517
    32  N    0.488125
    33  O   -0.460502
    34  O   -0.460149
 Sum of Mulliken charges =  -0.00000

 Dipole moment (field-independent basis, Debye):
    X=              1.8205    Y=              3.6402    Z=             -3.1705  Tot=              5.1592
 Quadrupole moment (field-independent basis, Debye-Ang):
   XX=            -98.3203   YY=            -97.0978   ZZ=            -95.4331
   XY=            -11.8314   XZ=              8.8137   YZ=              0.1838

 Normal termination of Gaussian 16 at Thu May  6 09:06:22 2021.
