 Gaussian 16, Revision A.03,
 Gaussian 16:  EM64L-G16RevA.03 25-Dec-2016

 -------------
 #p 6-31g* mp2
 -------------

 ------------------------------------------------------
 Input file generated by CHIRIPA (05-May-2021 14:55:24)
 ------------------------------------------------------
 Symbolic Z-matrix:
 Charge =  0 Multiplicity = 1

                         Standard orientation:
 ---------------------------------------------------------------------
 Center     Atomic      Atomic             Coordinates (Angstroms)
 Number     Number       Type             X           Y           Z
 ---------------------------------------------------------------------
      1          6           0       -1.078235   -1.338536    0.108229
      2          6           0       -2.047190   -1.640933   -0.854166
      3          6           0       -3.241486   -0.916407   -0.911322
      4          6           0       -3.434742    0.108597    0.013507
      5          6           0       -2.488493    0.433831    0.984140
      6          6           0       -1.301585   -0.303943    1.022698
      7          1           0       -0.153347   -1.906511    0.145406
      8          1           0       -1.876441   -2.443876   -1.565623
      9          1           0       -4.008513   -1.129381   -1.645986
     10          1           0       -2.687235    1.239884    1.679984
     11          1           0       -0.550853   -0.066883    1.771195
     12          7           0       -4.695179    0.882633   -0.037157
     13          8           0       -4.841350    1.780902    0.788909
     14          8           0       -5.513071    0.576397   -0.901974
     15          6           0        4.234070   -0.727863   -0.111593
     16          6           0        3.080114   -1.564049    0.442632
     17          6           0        3.301822   -3.066757    0.267968
     18          1           0        4.367056   -0.958890   -1.177372
     19          1           0        5.165738   -1.022817    0.390793
     20          1           0        2.150673   -1.266638   -0.059666
     21          1           0        2.949735   -1.330863    1.507170
     22          1           0        4.213716   -3.384170    0.784011
     23          1           0        3.410113   -3.319581   -0.791728
     24          1           0        2.464938   -3.645565    0.671040
     25          6           0        4.027066    0.776435    0.055637
     26          6           0        5.181022    1.612621   -0.498587
     27          6           0        4.959314    3.115329   -0.323923
     28          1           0        3.095398    1.071389   -0.446749
     29          1           0        3.894080    1.007461    1.121417
     30          1           0        5.311400    1.379435   -1.563125
     31          1           0        6.110463    1.315210    0.003711
     32          1           0        4.851023    3.368152    0.735771
     33          1           0        4.047421    3.432743   -0.839967
     34          1           0        5.796197    3.694137   -0.726996
 ---------------------------------------------------------------------

 SCF Done:  E(RHF) =  -669.535605584     A.U. after   15 cycles
 E2 =    -0.2091219775D+01 EUMP2 =    -0.67162682535938D+03

 The electronic state is 1-A.
 Alpha  occ. eigenvalues --  -20.60737 -20.60732 -15.85790 -11.31152 -11.27718
 Alpha  occ. eigenvalues --  -11.27711 -11.27414 -11.26728 -11.26713 -11.22795
 Alpha  occ. eigenvalues --  -11.22259 -11.22182 -11.22171 -11.22090 -11.21522
 Alpha  occ. eigenvalues --   -1.59813  -1.39366  -1.19319  -1.09269  -1.08711
 Alpha  occ. eigenvalues --   -1.04721  -1.04365  -0.96783  -0.95549  -0.87797
 Alpha  occ. eigenvalues --   -0.86115  -0.82387  -0.80470  -0.79052  -0.77432
 Alpha  occ. eigenvalues --   -0.72008  -0.71136  -0.70440  -0.65894  -0.64968
 Alpha  occ. eigenvalues --   -0.64721  -0.62068  -0.61759  -0.60205  -0.58409
 Alpha  occ. eigenvalues --   -0.56060  -0.55192  -0.53493  -0.53206  -0.53050
 Alpha  occ. eigenvalues --   -0.52808  -0.50714  -0.48782  -0.48764  -0.48741
 Alpha  occ. eigenvalues --   -0.47489  -0.46587  -0.46482  -0.44773  -0.44602
 Alpha  occ. eigenvalues --   -0.37289  -0.36328
 Alpha virt. eigenvalues --    0.05077   0.11314   0.16500   0.19718   0.22456
 Alpha virt. eigenvalues --    0.23644   0.25612   0.26011   0.26346   0.27777
 Alpha virt. eigenvalues --    0.29164   0.30296   0.30625   0.31345   0.32010

 Mulliken charges:
               1
     1  C   -0.176181
     2  C   -0.219672
     3  C   -0.170904
     4  C    0.158450
     5  C   -0.171033
     6  C   -0.220334
     7  H    0.234003
     8  H    0.223470
     9  H    0.275371
    10  H    0.275467
    11  H    0.224315
    12  N    0.488052
    13  O   -0.460510
    14  O   -0.460551
    15  C   -0.297653
    16  C   -0.306316
    17  C   -0.477800
    18  H    0.152019
    19  H    0.152753
    20  H    0.146071
    21  H    0.151737
    22  H    0.161257
    23  H    0.157964
    24  H    0.156404
    25  C   -0.299617
    26  C   -0.300255
    27  C   -0.476343
    28  H    0.150324
    29  H    0.148960
    30  H    0.153226
    31  H    0.153050
    32  H    0.155468
    33  H    0.156426
    34  H    0.162382
 Sum of Mulliken charges =  -0.00000

 Dipole moment (field-independent basis, Debye):
    X=              4.6728    Y=             -2.6949    Z=              0.1551  Tot=              5.3964
 Quadrupole moment (field-independent basis, Debye-Ang):
   XX=           -124.3414   YY=            -95.4204   ZZ=            -91.2478
   XY=             10.8619   XZ=              1.1787   YZ=              2.4004

 Normal termination of Gaussian 16 at Thu May  6 15:58:31 2021.
