 Gaussian 16, Revision A.03,
 Gaussian 16:  EM64L-G16RevA.03 25-Dec-2016

 -------------
 #p 6-31g* mp2
 -------------

 ------------------------------------------------------
 Input file generated by CHIRIPA (05-May-2021 14:57:24)
 ------------------------------------------------------
 Symbolic Z-matrix:
 Charge =  0 Multiplicity = 1

                         Standard orientation:
 ---------------------------------------------------------------------
 Center     Atomic      Atomic             Coordinates (Angstroms)
 Number     Number       Type             X           Y           Z
 ---------------------------------------------------------------------
      1          6           0       -4.024151    1.766222    1.301828
      2          6           0       -4.928454    0.876972    0.711919
      3          6           0       -4.470365   -0.181701   -0.077963
      4          6           0       -3.095130   -0.322083   -0.257720
      5          6           0       -2.169129    0.547347    0.316652
      6          6           0       -2.649798    1.598866    1.102662
      7          1           0       -4.388776    2.585846    1.913924
      8          1           0       -5.996343    1.004504    0.864867
      9          1           0       -5.148367   -0.884733   -0.546447
     10          1           0       -1.110386    0.394529    0.145985
     11          1           0       -1.945191    2.287939    1.559557
     12          7           0       -2.598219   -1.439066   -1.091884
     13          8           0       -1.381755   -1.541056   -1.234884
     14          8           0       -3.434615   -2.191417   -1.586908
     15          6           0        3.091098    2.084131   -1.483218
     16          6           0        4.178333    1.204449   -1.507698
     17          6           0        4.236483    0.122756   -0.623898
     18          6           0        3.185334   -0.050155    0.275257
     19          6           0        2.088616    0.808982    0.324089
     20          6           0        2.051542    1.883943   -0.569014
     21          1           0        3.054112    2.921801   -2.173389
     22          1           0        4.987092    1.357463   -2.216600
     23          1           0        5.066293   -0.573540   -0.621282
     24          1           0        1.297427    0.630582    1.042150
     25          1           0        1.205933    2.565514   -0.547742
     26          7           0        3.235738   -1.191731    1.215821
     27          8           0        2.296993   -1.322226    1.998358
     28          8           0        4.213038   -1.934388    1.152689
 ---------------------------------------------------------------------

 SCF Done:  E(RHF) =  -868.336488122     A.U. after   16 cycles
 E2 =    -0.2600504761D+01 EUMP2 =    -0.87093699288337D+03

 The electronic state is 1-A.
 Alpha  occ. eigenvalues --  -20.60852 -20.60838 -20.60655 -20.60650 -15.85907
 Alpha  occ. eigenvalues --  -15.85717 -11.31415 -11.31218 -11.28071 -11.27966
 Alpha  occ. eigenvalues --  -11.27917 -11.27756 -11.27756 -11.27554 -11.27106
 Alpha  occ. eigenvalues --  -11.27001 -11.26940 -11.26798  -1.59919  -1.59721
 Alpha  occ. eigenvalues --   -1.39469  -1.39276  -1.19600  -1.19398  -1.08960
 Alpha  occ. eigenvalues --   -1.08758  -1.05049  -1.04849  -0.95779  -0.95581
 Alpha  occ. eigenvalues --   -0.86428  -0.86232  -0.82624  -0.82433  -0.77676
 Alpha  occ. eigenvalues --   -0.77441  -0.72125  -0.71942  -0.71242  -0.71032
 Alpha  occ. eigenvalues --   -0.70758  -0.70484  -0.65259  -0.65107  -0.65039
 Alpha  occ. eigenvalues --   -0.64861  -0.62562  -0.62065  -0.55526  -0.55315
 Alpha  occ. eigenvalues --   -0.53339  -0.53233  -0.53066  -0.52919  -0.48893
 Alpha  occ. eigenvalues --   -0.48871  -0.48706  -0.48685  -0.44843  -0.44654
 Alpha  occ. eigenvalues --   -0.37564  -0.37340  -0.36645  -0.36433
 Alpha virt. eigenvalues --    0.04903   0.05073   0.10996   0.11208   0.16368
 Alpha virt. eigenvalues --    0.16493   0.19022   0.22160   0.24967   0.27560
 Alpha virt. eigenvalues --    0.27927   0.30164   0.30451   0.31086   0.31785

 Mulliken charges:
               1
     1  C   -0.170330
     2  C   -0.218423
     3  C   -0.169516
     4  C    0.159574
     5  C   -0.174857
     6  C   -0.219482
     7  H    0.226302
     8  H    0.224718
     9  H    0.277050
    10  H    0.274842
    11  H    0.218441
    12  N    0.487492
    13  O   -0.458255
    14  O   -0.459451
    15  C   -0.169671
    16  C   -0.217259
    17  C   -0.169187
    18  C    0.162489
    19  C   -0.169726
    20  C   -0.216154
    21  H    0.225872
    22  H    0.224597
    23  H    0.277129
    24  H    0.267498
    25  H    0.216762
    26  N    0.488984
    27  O   -0.460466
    28  O   -0.458971
 Sum of Mulliken charges =  -0.00000

 Dipole moment (field-independent basis, Debye):
    X=             -1.8682    Y=              7.7943    Z=             -0.4691  Tot=              8.0287
 Quadrupole moment (field-independent basis, Debye-Ang):
   XX=            -85.5801   YY=           -108.3130   ZZ=           -108.6548
   XY=              1.3297   XZ=            -20.8836   YZ=              0.1326

 Normal termination of Gaussian 16 at Wed May  5 17:52:45 2021.
