 Gaussian 16, Revision A.03,
 Gaussian 16:  EM64L-G16RevA.03 25-Dec-2016

 -------------
 #p 6-31g* mp2
 -------------

 ------------------------------------------------------
 Input file generated by CHIRIPA (05-May-2021 14:57:26)
 ------------------------------------------------------
 Symbolic Z-matrix:
 Charge =  0 Multiplicity = 1

                         Standard orientation:
 ---------------------------------------------------------------------
 Center     Atomic      Atomic             Coordinates (Angstroms)
 Number     Number       Type             X           Y           Z
 ---------------------------------------------------------------------
      1          6           0       -3.930010   -2.395234    0.477250
      2          6           0       -4.437421   -1.694531   -0.621872
      3          6           0       -4.134194   -0.341842   -0.803070
      4          6           0       -3.316853    0.281624    0.138490
      5          6           0       -2.796008   -0.389322    1.243859
      6          6           0       -3.112364   -1.741546    1.404972
      7          1           0       -4.170663   -3.445855    0.610208
      8          1           0       -5.072664   -2.199621   -1.343949
      9          1           0       -4.513515    0.224604   -1.644897
     10          1           0       -2.165397    0.141290    1.946852
     11          1           0       -2.716887   -2.283207    2.259517
     12          7           0       -2.988891    1.713409   -0.042705
     13          8           0       -2.266591    2.239792    0.801001
     14          8           0       -3.460345    2.282148   -1.025000
     15          6           0        0.929245    0.259236   -0.726258
     16          6           0        1.605639   -0.889892   -1.148772
     17          6           0        2.958517   -1.069372   -0.845365
     18          6           0        3.606956   -0.075124   -0.114417
     19          6           0        2.960572    1.080807    0.320672
     20          6           0        1.607673    1.239190    0.005825
     21          1           0       -0.121711    0.390466   -0.966395
     22          1           0        1.081305   -1.652592   -1.717460
     23          1           0        3.506445   -1.949259   -1.159995
     24          1           0        3.510051    1.823663    0.886053
     25          1           0        1.084922    2.132638    0.335261
     26          7           0        5.039199   -0.253964    0.212843
     27          8           0        5.587851    0.636695    0.858089
     28          8           0        5.586017   -1.281412   -0.182096
 ---------------------------------------------------------------------

 SCF Done:  E(RHF) =  -868.339241468     A.U. after   16 cycles
 E2 =    -0.2599860847D+01 EUMP2 =    -0.87093910231493D+03

 The electronic state is 1-A.
 Alpha  occ. eigenvalues --  -20.62009 -20.61972 -20.60543 -20.60533 -15.87022
 Alpha  occ. eigenvalues --  -15.85588 -11.32221 -11.30880 -11.28746 -11.28741
 Alpha  occ. eigenvalues --  -11.28417 -11.27690 -11.27669 -11.27462 -11.27360
 Alpha  occ. eigenvalues --  -11.27113 -11.26485 -11.26254  -1.61074  -1.59618
 Alpha  occ. eigenvalues --   -1.40624  -1.39173  -1.20370  -1.19027  -1.09789
 Alpha  occ. eigenvalues --   -1.08429  -1.05716  -1.04403  -0.96646  -0.95285
 Alpha  occ. eigenvalues --   -0.87121  -0.85791  -0.83464  -0.82112  -0.78546
 Alpha  occ. eigenvalues --   -0.77172  -0.73224  -0.72453  -0.71806  -0.71428
 Alpha  occ. eigenvalues --   -0.70941  -0.70106  -0.65997  -0.65685  -0.64664
 Alpha  occ. eigenvalues --   -0.64360  -0.63048  -0.61733  -0.56197  -0.54942
 Alpha  occ. eigenvalues --   -0.54047  -0.53780  -0.52759  -0.52463  -0.50000
 Alpha  occ. eigenvalues --   -0.49971  -0.48569  -0.48556  -0.46046  -0.44595
 Alpha  occ. eigenvalues --   -0.38344  -0.37355  -0.36962  -0.36015
 Alpha virt. eigenvalues --    0.03912   0.05329   0.10322   0.11638   0.15438
 Alpha virt. eigenvalues --    0.16858   0.20589   0.21661   0.26536   0.27272
 Alpha virt. eigenvalues --    0.27781   0.27991   0.30352   0.31109   0.31666

 Mulliken charges:
               1
     1  C   -0.170484
     2  C   -0.219065
     3  C   -0.172763
     4  C    0.149780
     5  C   -0.172630
     6  C   -0.218324
     7  H    0.229472
     8  H    0.226726
     9  H    0.277581
    10  H    0.277517
    11  H    0.228051
    12  N    0.487143
    13  O   -0.464086
    14  O   -0.455349
    15  C   -0.172494
    16  C   -0.219913
    17  C   -0.172727
    18  C    0.158326
    19  C   -0.172470
    20  C   -0.222596
    21  H    0.224136
    22  H    0.220112
    23  H    0.273267
    24  H    0.275792
    25  H    0.239639
    26  N    0.488013
    27  O   -0.460357
    28  O   -0.462298
 Sum of Mulliken charges =  -0.00000

 Dipole moment (field-independent basis, Debye):
    X=             -6.5367    Y=             -4.4022    Z=             -0.4325  Tot=              7.8927
 Quadrupole moment (field-independent basis, Debye-Ang):
   XX=           -132.9767   YY=           -104.2264   ZZ=           -100.5084
   XY=             19.8991   XZ=             -3.1704   YZ=              1.6386

 Normal termination of Gaussian 16 at Thu May  6 11:27:35 2021.
