 Gaussian 16, Revision A.03,
 Gaussian 16:  EM64L-G16RevA.03 25-Dec-2016

 -------------
 #p 6-31g* mp2
 -------------

 ------------------------------------------------------
 Input file generated by CHIRIPA (05-May-2021 14:57:26)
 ------------------------------------------------------
 Symbolic Z-matrix:
 Charge =  0 Multiplicity = 1

                         Standard orientation:
 ---------------------------------------------------------------------
 Center     Atomic      Atomic             Coordinates (Angstroms)
 Number     Number       Type             X           Y           Z
 ---------------------------------------------------------------------
      1          6           0       -5.078558    0.797446   -1.206739
      2          6           0       -4.316619    1.613525   -0.364133
      3          6           0       -3.291784    1.068831    0.415334
      4          6           0       -3.055051   -0.302105    0.327111
      5          6           0       -3.796798   -1.141346   -0.502815
      6          6           0       -4.816678   -0.574965   -1.273273
      7          1           0       -5.872750    1.229001   -1.808748
      8          1           0       -4.517762    2.679688   -0.310432
      9          1           0       -2.686569    1.677528    1.076108
     10          1           0       -3.572718   -2.200672   -0.534970
     11          1           0       -5.406801   -1.211162   -1.926766
     12          7           0       -1.972727   -0.890228    1.147529
     13          8           0       -1.784065   -2.100959    1.051758
     14          8           0       -1.333558   -0.129331    1.870810
     15          6           0        3.983474   -2.178674   -0.539202
     16          6           0        2.622946   -1.886535   -0.397297
     17          6           0        2.195938   -0.569339   -0.204408
     18          6           0        3.160920    0.435637   -0.158320
     19          6           0        4.523653    0.176447   -0.296410
     20          6           0        4.927821   -1.148068   -0.488396
     21          1           0        4.306313   -3.204747   -0.688693
     22          1           0        1.887324   -2.684897   -0.436335
     23          1           0        1.149019   -0.315049   -0.091643
     24          1           0        5.233465    0.993580   -0.253078
     25          1           0        5.985092   -1.371999   -0.598297
     26          7           0        2.720956    1.833967    0.045405
     27          8           0        3.590940    2.701380    0.082281
     28          8           0        1.514458    2.036088    0.164352
 ---------------------------------------------------------------------

 SCF Done:  E(RHF) =  -868.339361452     A.U. after   16 cycles
 E2 =    -0.2599045071D+01 EUMP2 =    -0.87093840652304D+03

 The electronic state is 1-A.
 Alpha  occ. eigenvalues --  -20.61083 -20.60985 -20.60106 -20.60082 -15.86053
 Alpha  occ. eigenvalues --  -15.85144 -11.31185 -11.30381 -11.27794 -11.27657
 Alpha  occ. eigenvalues --  -11.27464 -11.27004 -11.26851 -11.26746 -11.26708
 Alpha  occ. eigenvalues --  -11.26652 -11.26013 -11.25852  -1.60121  -1.59172
 Alpha  occ. eigenvalues --   -1.39665  -1.38727  -1.19349  -1.18553  -1.08797
 Alpha  occ. eigenvalues --   -1.07984  -1.04710  -1.03926  -0.95661  -0.94836
 Alpha  occ. eigenvalues --   -0.86122  -0.85339  -0.82489  -0.81661  -0.77560
 Alpha  occ. eigenvalues --   -0.76713  -0.72263  -0.71484  -0.71345  -0.70487
 Alpha  occ. eigenvalues --   -0.70455  -0.69673  -0.65001  -0.64713  -0.64208
 Alpha  occ. eigenvalues --   -0.63928  -0.62049  -0.61261  -0.55238  -0.54474
 Alpha  occ. eigenvalues --   -0.53062  -0.52796  -0.52281  -0.52014  -0.49047
 Alpha  occ. eigenvalues --   -0.49016  -0.48130  -0.48120  -0.45102  -0.44157
 Alpha  occ. eigenvalues --   -0.37334  -0.36558  -0.36298  -0.35518
 Alpha virt. eigenvalues --    0.04919   0.05807   0.11356   0.12128   0.16444
 Alpha virt. eigenvalues --    0.17309   0.21488   0.22220   0.27445   0.27948
 Alpha virt. eigenvalues --    0.28458   0.28973   0.31063   0.31743   0.32618

 Mulliken charges:
               1
     1  C   -0.169955
     2  C   -0.218804
     3  C   -0.167605
     4  C    0.155170
     5  C   -0.171947
     6  C   -0.218972
     7  H    0.226126
     8  H    0.226384
     9  H    0.283654
    10  H    0.272661
    11  H    0.222616
    12  N    0.484103
    13  O   -0.468648
    14  O   -0.451842
    15  C   -0.171195
    16  C   -0.219858
    17  C   -0.166715
    18  C    0.156336
    19  C   -0.171882
    20  C   -0.219304
    21  H    0.223326
    22  H    0.229883
    23  H    0.279875
    24  H    0.272709
    25  H    0.220220
    26  N    0.488089
    27  O   -0.464564
    28  O   -0.459864
 Sum of Mulliken charges =  -0.00000

 Dipole moment (field-independent basis, Debye):
    X=             -2.5501    Y=             -2.7318    Z=             -3.5093  Tot=              5.1265
 Quadrupole moment (field-independent basis, Debye-Ang):
   XX=            -68.3820   YY=           -106.6695   ZZ=           -107.2746
   XY=            -18.3848   XZ=              5.6294   YZ=              4.0349

 Normal termination of Gaussian 16 at Thu May  6 13:07:48 2021.
