 Gaussian 16, Revision A.03,
 Gaussian 16:  EM64L-G16RevA.03 25-Dec-2016

 -------------
 #p 6-31g* mp2
 -------------

 ------------------------------------------------------
 Input file generated by CHIRIPA (05-May-2021 14:57:26)
 ------------------------------------------------------
 Symbolic Z-matrix:
 Charge =  0 Multiplicity = 1

                         Standard orientation:
 ---------------------------------------------------------------------
 Center     Atomic      Atomic             Coordinates (Angstroms)
 Number     Number       Type             X           Y           Z
 ---------------------------------------------------------------------
      1          6           0        4.980991    1.288744    0.687528
      2          6           0        3.731829    1.447465    1.296563
      3          6           0        2.674718    0.587950    0.983038
      4          6           0        2.902886   -0.424068    0.051883
      5          6           0        4.135935   -0.607844   -0.571902
      6          6           0        5.178708    0.263404   -0.243121
      7          1           0        5.796611    1.960994    0.937007
      8          1           0        3.575396    2.242874    2.019680
      9          1           0        1.697492    0.688202    1.439543
     10          1           0        4.261491   -1.410059   -1.288914
     11          1           0        6.147758    0.137768   -0.717677
     12          7           0        1.791359   -1.340209   -0.288108
     13          8           0        2.018028   -2.223936   -1.111688
     14          8           0        0.714523   -1.157206    0.275426
     15          6           0       -3.800689   -1.931979    0.888570
     16          6           0       -4.288905   -0.733203    1.418761
     17          6           0       -3.899753    0.494402    0.874615
     18          6           0       -3.016993    0.486253   -0.204254
     19          6           0       -2.513195   -0.691247   -0.754682
     20          6           0       -2.915951   -1.907218   -0.194550
     21          1           0       -4.108275   -2.881093    1.317485
     22          1           0       -4.976121   -0.749398    2.259901
     23          1           0       -4.262381    1.437339    1.265496
     24          1           0       -1.829385   -0.643120   -1.593434
     25          1           0       -2.535189   -2.836643   -0.608354
     26          7           0       -2.597814    1.779706   -0.788779
     27          8           0       -1.819054    1.745525   -1.739042
     28          8           0       -3.055959    2.803204   -0.285598
 ---------------------------------------------------------------------

 SCF Done:  E(RHF) =  -868.339659174     A.U. after   16 cycles
 E2 =    -0.2599202158D+01 EUMP2 =    -0.87093886133223D+03

 The electronic state is 1-A.
 Alpha  occ. eigenvalues --  -20.61057 -20.61051 -20.60003 -20.59988 -15.86074
 Alpha  occ. eigenvalues --  -15.85039 -11.31185 -11.30070 -11.27746 -11.27716
 Alpha  occ. eigenvalues --  -11.27446 -11.26729 -11.26713 -11.26679 -11.26527
 Alpha  occ. eigenvalues --  -11.26384 -11.25701 -11.25467  -1.60126  -1.59080
 Alpha  occ. eigenvalues --   -1.39684  -1.38641  -1.19341  -1.18242  -1.08790
 Alpha  occ. eigenvalues --   -1.07718  -1.04709  -1.03584  -0.95668  -0.94598
 Alpha  occ. eigenvalues --   -0.86122  -0.85026  -0.82510  -0.81434  -0.77581
 Alpha  occ. eigenvalues --   -0.76505  -0.72324  -0.71424  -0.71271  -0.70461
 Alpha  occ. eigenvalues --   -0.70394  -0.69394  -0.65004  -0.64720  -0.63908
 Alpha  occ. eigenvalues --   -0.63615  -0.62063  -0.60947  -0.55236  -0.54176
 Alpha  occ. eigenvalues --   -0.53046  -0.52806  -0.51945  -0.51697  -0.49085
 Alpha  occ. eigenvalues --   -0.49058  -0.48036  -0.48000  -0.45144  -0.44118
 Alpha  occ. eigenvalues --   -0.37310  -0.36295  -0.36248  -0.35093
 Alpha virt. eigenvalues --    0.04908   0.06028   0.11364   0.12504   0.16489
 Alpha virt. eigenvalues --    0.17551   0.21493   0.22507   0.27416   0.28339
 Alpha virt. eigenvalues --    0.28494   0.29341   0.31058   0.32014   0.32575

 Mulliken charges:
               1
     1  C   -0.169760
     2  C   -0.218036
     3  C   -0.167885
     4  C    0.158716
     5  C   -0.170282
     6  C   -0.218549
     7  H    0.226308
     8  H    0.225112
     9  H    0.276182
    10  H    0.274709
    11  H    0.223503
    12  N    0.490192
    13  O   -0.463026
    14  O   -0.465475
    15  C   -0.171619
    16  C   -0.220037
    17  C   -0.173692
    18  C    0.152804
    19  C   -0.151190
    20  C   -0.212333
    21  H    0.222025
    22  H    0.217985
    23  H    0.270099
    24  H    0.277510
    25  H    0.227702
    26  N    0.487903
    27  O   -0.462249
    28  O   -0.466616
 Sum of Mulliken charges =  -0.00000

 Dipole moment (field-independent basis, Debye):
    X=              2.7971    Y=             -1.4779    Z=              3.1763  Tot=              4.4830
 Quadrupole moment (field-independent basis, Debye-Ang):
   XX=            -71.6391   YY=           -110.8639   ZZ=           -102.3859
   XY=             18.5961   XZ=             -6.1600   YZ=              5.5145

 Normal termination of Gaussian 16 at Thu May  6 11:29:33 2021.
