 Gaussian 16, Revision A.03,
 Gaussian 16:  EM64L-G16RevA.03 25-Dec-2016

 -------------
 #p 6-31g* mp2
 -------------

 ------------------------------------------------------
 Input file generated by CHIRIPA (05-May-2021 14:57:22)
 ------------------------------------------------------
 Symbolic Z-matrix:
 Charge =  0 Multiplicity = 1

                         Standard orientation:
 ---------------------------------------------------------------------
 Center     Atomic      Atomic             Coordinates (Angstroms)
 Number     Number       Type             X           Y           Z
 ---------------------------------------------------------------------
      1          6           0       -2.153021    1.254740    0.570506
      2          6           0       -3.383235    1.807414    0.941511
      3          6           0       -4.575094    1.122614    0.686424
      4          6           0       -4.499529   -0.118306    0.055792
      5          6           0       -3.289296   -0.695282   -0.325946
      6          6           0       -2.110053    0.007355   -0.060925
      7          1           0       -1.232056    1.793637    0.772522
      8          1           0       -3.419634    2.775976    1.432030
      9          1           0       -5.541126    1.527241    0.962970
     10          1           0       -3.284934   -1.662624   -0.813437
     11          1           0       -1.156082   -0.424294   -0.350172
     12          7           0       -5.754619   -0.852715   -0.219515
     13          8           0       -5.661096   -1.944421   -0.776354
     14          8           0       -6.808116   -0.322732    0.126750
     15          6           0        2.791429    1.895975   -0.813268
     16          6           0        4.143497    2.134976   -0.546227
     17          6           0        4.984587    1.090518   -0.150974
     18          6           0        4.437811   -0.186293   -0.032323
     19          6           0        3.094916   -0.456211   -0.291303
     20          6           0        2.272369    0.603423   -0.685179
     21          1           0        2.145252    2.713230   -1.119775
     22          1           0        4.549346    3.137773   -0.644874
     23          1           0        6.035023    1.247490    0.062006
     24          1           0        2.719217   -1.466560   -0.184228
     25          1           0        1.222724    0.414871   -0.891911
     26          7           0        5.318419   -1.300047    0.385386
     27          8           0        4.812335   -2.415878    0.482538
     28          8           0        6.498050   -1.036089    0.607721
 ---------------------------------------------------------------------

 SCF Done:  E(RHF) =  -868.336388956     A.U. after   16 cycles
 E2 =    -0.2599706343D+01 EUMP2 =    -0.87093609529959D+03

 The electronic state is 1-A.
 Alpha  occ. eigenvalues --  -20.61359 -20.61352 -20.61218 -20.61213 -15.86421
 Alpha  occ. eigenvalues --  -15.86279 -11.31945 -11.31787 -11.28599 -11.28513
 Alpha  occ. eigenvalues --  -11.28412 -11.28367 -11.28363 -11.28230 -11.27730
 Alpha  occ. eigenvalues --  -11.27554 -11.27546 -11.27412  -1.60431  -1.60291
 Alpha  occ. eigenvalues --   -1.39980  -1.39840  -1.20154  -1.19995  -1.09525
 Alpha  occ. eigenvalues --   -1.09378  -1.05595  -1.05425  -0.96324  -0.96179
 Alpha  occ. eigenvalues --   -0.87005  -0.86821  -0.83165  -0.83009  -0.78189
 Alpha  occ. eigenvalues --   -0.78011  -0.72635  -0.72495  -0.71757  -0.71616
 Alpha  occ. eigenvalues --   -0.71269  -0.71127  -0.65814  -0.65810  -0.65646
 Alpha  occ. eigenvalues --   -0.65331  -0.63004  -0.62699  -0.56104  -0.55963
 Alpha  occ. eigenvalues --   -0.53898  -0.53800  -0.53732  -0.53445  -0.49409
 Alpha  occ. eigenvalues --   -0.49379  -0.49266  -0.49239  -0.45350  -0.45214
 Alpha  occ. eigenvalues --   -0.38148  -0.38003  -0.37195  -0.37021
 Alpha virt. eigenvalues --    0.04383   0.04531   0.10408   0.10592   0.15806
 Alpha virt. eigenvalues --    0.15974   0.17612   0.22017   0.24320   0.26443
 Alpha virt. eigenvalues --    0.27851   0.28906   0.29426   0.31181   0.31811

 Mulliken charges:
               1
     1  C   -0.171835
     2  C   -0.218147
     3  C   -0.169748
     4  C    0.159270
     5  C   -0.169535
     6  C   -0.221506
     7  H    0.221900
     8  H    0.225016
     9  H    0.277825
    10  H    0.278081
    11  H    0.218088
    12  N    0.487900
    13  O   -0.458666
    14  O   -0.458697
    15  C   -0.172494
    16  C   -0.218107
    17  C   -0.169434
    18  C    0.159156
    19  C   -0.170425
    20  C   -0.224091
    21  H    0.225480
    22  H    0.225973
    23  H    0.278358
    24  H    0.275900
    25  H    0.218741
    26  N    0.488063
    27  O   -0.458942
    28  O   -0.458124
 Sum of Mulliken charges =  -0.00000

 Dipole moment (field-independent basis, Debye):
    X=              1.3519    Y=              6.5182    Z=             -0.4535  Tot=              6.6723
 Quadrupole moment (field-independent basis, Debye-Ang):
   XX=           -166.1973   YY=           -102.5566   ZZ=           -105.3200
   XY=              6.5420   XZ=            -11.6687   YZ=              2.2199

 Normal termination of Gaussian 16 at Wed May  5 22:34:25 2021.
