 Gaussian 16, Revision A.03,
 Gaussian 16:  EM64L-G16RevA.03 25-Dec-2016

 -------------
 #p 6-31g* mp2
 -------------

 ------------------------------------------------------
 Input file generated by CHIRIPA (05-May-2021 14:53:13)
 ------------------------------------------------------
 Symbolic Z-matrix:
 Charge =  0 Multiplicity = 1

                         Standard orientation:
 ---------------------------------------------------------------------
 Center     Atomic      Atomic             Coordinates (Angstroms)
 Number     Number       Type             X           Y           Z
 ---------------------------------------------------------------------
      1          6           0        5.588430   -0.248465    0.281551
      2          6           0        6.687975   -0.581686   -0.727383
      3          6           0        7.952036   -1.130012   -0.064599
      4          1           0        5.972602    0.484356    1.004276
      5          1           0        5.340329   -1.152419    0.854881
      6          1           0        6.932957    0.322296   -1.299587
      7          1           0        6.301080   -1.313655   -1.447904
      8          1           0        7.728986   -2.046374    0.491396
      9          1           0        8.364452   -0.401128    0.640556
     10          1           0        8.724963   -1.361506   -0.804095
     11          6           0        4.318399    0.300769   -0.365821
     12          6           0        3.218854    0.633991    0.643113
     13          6           0        1.954793    1.182316   -0.019671
     14          1           0        4.566501    1.204724   -0.939151
     15          1           0        3.934228   -0.432051   -1.088546
     16          1           0        3.605749    1.365960    1.363634
     17          1           0        2.973873   -0.269991    1.215317
     18          1           0        1.542377    0.453433   -0.724826
     19          1           0        2.177844    2.098679   -0.575666
     20          1           0        1.181867    1.413811    0.719825
     21          6           0       -2.396000    2.015899    0.249791
     22          6           0       -1.988362    0.795183    0.797701
     23          6           0       -2.796912   -0.339616    0.683560
     24          6           0       -4.012342   -0.217296    0.011951
     25          6           0       -4.446180    0.984898   -0.544648
     26          6           0       -3.621448    2.106700   -0.418456
     27          1           0       -1.761614    2.892390    0.343140
     28          1           0       -1.037174    0.721719    1.317209
     29          1           0       -2.505772   -1.297037    1.098288
     30          1           0       -5.399745    1.027089   -1.056850
     31          1           0       -3.940587    3.053426   -0.844959
     32          7           0       -4.876884   -1.411778   -0.115263
     33          8           0       -5.943142   -1.277807   -0.711737
     34          8           0       -4.471882   -2.459364    0.383909
 ---------------------------------------------------------------------

 SCF Done:  E(RHF) =  -669.535351962     A.U. after   15 cycles
 E2 =    -0.2090861661D+01 EUMP2 =    -0.67162621362217D+03

 The electronic state is 1-A.
 Alpha  occ. eigenvalues --  -20.60726 -20.60721 -15.85779 -11.31132 -11.27700
 Alpha  occ. eigenvalues --  -11.27690 -11.27431 -11.26714 -11.26677 -11.22361
 Alpha  occ. eigenvalues --  -11.22089 -11.21961 -11.21949 -11.21812 -11.21358
 Alpha  occ. eigenvalues --   -1.59802  -1.39356  -1.19301  -1.08975  -1.08698
 Alpha  occ. eigenvalues --   -1.04704  -1.04115  -0.96581  -0.95535  -0.87608
 Alpha  occ. eigenvalues --   -0.86100  -0.82368  -0.80183  -0.78750  -0.77420
 Alpha  occ. eigenvalues --   -0.71998  -0.71125  -0.70408  -0.65599  -0.64954
 Alpha  occ. eigenvalues --   -0.64747  -0.62098  -0.61496  -0.59967  -0.58173
 Alpha  occ. eigenvalues --   -0.55851  -0.55199  -0.53425  -0.53043  -0.53001
 Alpha  occ. eigenvalues --   -0.52653  -0.50498  -0.48757  -0.48753  -0.48491
 Alpha  occ. eigenvalues --   -0.47194  -0.46302  -0.46201  -0.44764  -0.44364
 Alpha  occ. eigenvalues --   -0.37274  -0.36300
 Alpha virt. eigenvalues --    0.05115   0.11308   0.16610   0.20086   0.22513
 Alpha virt. eigenvalues --    0.23828   0.26023   0.26151   0.26989   0.28056
 Alpha virt. eigenvalues --    0.28451   0.30432   0.30859   0.31569   0.31707

 Mulliken charges:
               1
     1  C   -0.298790
     2  C   -0.300136
     3  C   -0.476029
     4  H    0.149979
     5  H    0.150526
     6  H    0.152209
     7  H    0.153023
     8  H    0.155922
     9  H    0.155343
    10  H    0.161475
    11  C   -0.299176
    12  C   -0.299694
    13  C   -0.478312
    14  H    0.150328
    15  H    0.151625
    16  H    0.152996
    17  H    0.152496
    18  H    0.160712
    19  H    0.157578
    20  H    0.148350
    21  C   -0.171542
    22  C   -0.219471
    23  C   -0.172314
    24  C    0.158705
    25  C   -0.171283
    26  C   -0.218667
    27  H    0.225781
    28  H    0.227591
    29  H    0.275443
    30  H    0.275362
    31  H    0.223190
    32  N    0.488010
    33  O   -0.460593
    34  O   -0.460640
 Sum of Mulliken charges =  -0.00000

 Dipole moment (field-independent basis, Debye):
    X=              3.2436    Y=              4.1939    Z=              0.3923  Tot=              5.3163
 Quadrupole moment (field-independent basis, Debye-Ang):
   XX=           -117.5363   YY=            -94.8639   ZZ=            -94.2917
   XY=            -19.1267   XZ=             -0.1698   YZ=             -1.4743

 Normal termination of Gaussian 16 at Thu May  6 04:09:36 2021.
