 Gaussian 16, Revision A.03,
 Gaussian 16:  EM64L-G16RevA.03 25-Dec-2016

 -------------
 #p 6-31g* mp2
 -------------

 ------------------------------------------------------
 Input file generated by CHIRIPA (05-May-2021 14:57:23)
 ------------------------------------------------------
 Symbolic Z-matrix:
 Charge =  0 Multiplicity = 1

                         Standard orientation:
 ---------------------------------------------------------------------
 Center     Atomic      Atomic             Coordinates (Angstroms)
 Number     Number       Type             X           Y           Z
 ---------------------------------------------------------------------
      1          6           0        2.344783    1.924930   -1.473973
      2          6           0        1.605153    0.737777   -1.485683
      3          6           0        2.044031   -0.379295   -0.768688
      4          6           0        3.232345   -0.273669   -0.047548
      5          6           0        3.991473    0.895104   -0.016165
      6          6           0        3.533487    1.999672   -0.740544
      7          1           0        1.996430    2.787842   -2.033820
      8          1           0        0.681622    0.676850   -2.054386
      9          1           0        1.491036   -1.310717   -0.760357
     10          1           0        4.908217    0.925473    0.560096
     11          1           0        4.109948    2.920334   -0.729626
     12          7           0        3.707080   -1.449645    0.715411
     13          8           0        4.757260   -1.330951    1.342842
     14          8           0        3.020007   -2.467802    0.671540
     15          6           0       -2.448283    1.481076    2.149227
     16          6           0       -1.811402    1.641361    0.914231
     17          6           0       -2.194236    0.870404   -0.187410
     18          6           0       -3.222338   -0.055611   -0.017733
     19          6           0       -3.876142   -0.238552    1.199791
     20          6           0       -3.476806    0.543285    2.287821
     21          1           0       -2.144479    2.084200    2.999722
     22          1           0       -1.012327    2.368891    0.803676
     23          1           0       -1.718184    0.973979   -1.154914
     24          1           0       -4.669426   -0.971907    1.279210
     25          1           0       -3.973197    0.416657    3.245739
     26          7           0       -3.636362   -0.877547   -1.176786
     27          8           0       -4.544886   -1.686515   -1.001307
     28          8           0       -3.044511   -0.697251   -2.238785
 ---------------------------------------------------------------------

 SCF Done:  E(RHF) =  -868.337668399     A.U. after   16 cycles
 E2 =    -0.2600074395D+01 EUMP2 =    -0.87093774279456D+03

 The electronic state is 1-A.
 Alpha  occ. eigenvalues --  -20.61257 -20.61217 -20.61009 -20.60997 -15.86291
 Alpha  occ. eigenvalues --  -15.86063 -11.31633 -11.31524 -11.28272 -11.28126
 Alpha  occ. eigenvalues --  -11.28124 -11.28088 -11.27920 -11.27866 -11.27207
 Alpha  occ. eigenvalues --  -11.27165 -11.27155 -11.27134  -1.60311  -1.60081
 Alpha  occ. eigenvalues --   -1.39870  -1.39630  -1.19785  -1.19723  -1.09172
 Alpha  occ. eigenvalues --   -1.09111  -1.05208  -1.05113  -0.96022  -0.95918
 Alpha  occ. eigenvalues --   -0.86602  -0.86519  -0.82863  -0.82735  -0.77950
 Alpha  occ. eigenvalues --   -0.77742  -0.72509  -0.72277  -0.71631  -0.71408
 Alpha  occ. eigenvalues --   -0.70904  -0.70826  -0.65442  -0.65374  -0.65286
 Alpha  occ. eigenvalues --   -0.65050  -0.62679  -0.62328  -0.55695  -0.55622
 Alpha  occ. eigenvalues --   -0.53572  -0.53417  -0.53376  -0.53096  -0.49280
 Alpha  occ. eigenvalues --   -0.49251  -0.49047  -0.49025  -0.45280  -0.45013
 Alpha  occ. eigenvalues --   -0.37750  -0.37734  -0.36979  -0.36531
 Alpha virt. eigenvalues --    0.04549   0.04819   0.10781   0.10883   0.16020
 Alpha virt. eigenvalues --    0.16310   0.19483   0.21813   0.24964   0.27275
 Alpha virt. eigenvalues --    0.28003   0.28848   0.29740   0.31229   0.31918

 Mulliken charges:
               1
     1  C   -0.174999
     2  C   -0.227769
     3  C   -0.169659
     4  C    0.158082
     5  C   -0.170897
     6  C   -0.219239
     7  H    0.225589
     8  H    0.229251
     9  H    0.281010
    10  H    0.276480
    11  H    0.223974
    12  N    0.487850
    13  O   -0.460439
    14  O   -0.457770
    15  C   -0.170168
    16  C   -0.216626
    17  C   -0.174807
    18  C    0.159767
    19  C   -0.169796
    20  C   -0.217398
    21  H    0.227596
    22  H    0.222877
    23  H    0.267533
    24  H    0.277479
    25  H    0.225996
    26  N    0.488249
    27  O   -0.456259
    28  O   -0.465906
 Sum of Mulliken charges =  -0.00000

 Dipole moment (field-independent basis, Debye):
    X=             -0.2540    Y=              6.9229    Z=              1.5696  Tot=              7.1032
 Quadrupole moment (field-independent basis, Debye-Ang):
   XX=           -119.4906   YY=           -106.0638   ZZ=           -103.5874
   XY=              8.7105   XZ=            -23.2397   YZ=             -0.1282

 Normal termination of Gaussian 16 at Fri May  7 09:26:45 2021.
