 Gaussian 16, Revision A.03,
 Gaussian 16:  EM64L-G16RevA.03 25-Dec-2016

 -------------
 #p 6-31g* mp2
 -------------

 ------------------------------------------------------
 Input file generated by CHIRIPA (05-May-2021 14:51:09)
 ------------------------------------------------------
 Symbolic Z-matrix:
 Charge =  0 Multiplicity = 1

                         Standard orientation:
 ---------------------------------------------------------------------
 Center     Atomic      Atomic             Coordinates (Angstroms)
 Number     Number       Type             X           Y           Z
 ---------------------------------------------------------------------
      1          6           0        4.331899   -0.359973    0.288187
      2          6           0        4.804090   -1.529683   -0.575989
      3          6           0        5.642950   -2.541235    0.205594
      4          1           0        5.206626    0.143942    0.721622
      5          1           0        3.745765   -0.749723    1.131950
      6          1           0        5.387994   -1.137745   -1.418638
      7          1           0        3.928145   -2.030755   -1.007571
      8          1           0        5.066060   -2.959856    1.036591
      9          1           0        6.534203   -2.061772    0.623188
     10          1           0        5.969962   -3.369016   -0.431353
     11          6           0        3.492089    0.659745   -0.479030
     12          6           0        3.019897    1.829455    0.385145
     13          6           0        2.181037    2.841006   -0.396438
     14          1           0        4.078222    1.049495   -1.322794
     15          1           0        2.617361    0.155830   -0.912466
     16          1           0        3.895842    2.330527    0.816728
     17          1           0        2.435993    1.437517    1.227794
     18          1           0        1.289784    2.361544   -0.814032
     19          1           0        2.757928    3.259628   -1.227434
     20          1           0        1.854025    3.668787    0.240509
     21          6           0       -3.226840    0.037538   -0.185413
     22          6           0       -2.156600    0.211693    0.892660
     23          6           0       -0.791369    0.586547    0.315234
     24          1           0       -2.901820   -0.736461   -0.894097
     25          1           0       -3.314136    0.970301   -0.759633
     26          1           0       -2.072323   -0.720665    1.465567
     27          1           0       -2.484293    0.985233    1.598968
     28          1           0       -0.853280    1.528082   -0.239995
     29          1           0       -0.438969   -0.187507   -0.374154
     30          1           0       -0.041282    0.706069    1.103234
     31          6           0       -4.597147   -0.337309    0.376257
     32          6           0       -5.667387   -0.511465   -0.701817
     33          6           0       -7.032619   -0.886319   -0.124390
     34          1           0       -4.509851   -1.270073    0.950476
     35          1           0       -4.922167    0.436689    1.084941
     36          1           0       -5.339694   -1.285004   -1.408124
     37          1           0       -5.751664    0.420893   -1.274724
     38          1           0       -7.385018   -0.112265    0.564997
     39          1           0       -6.970708   -1.827855    0.430839
     40          1           0       -7.782705   -1.005842   -0.912391
 ---------------------------------------------------------------------

 SCF Done:  E(RHF) =  -470.732509105     A.U. after   11 cycles
 E2 =    -0.1583388223D+01 EUMP2 =    -0.47231589732785D+03

 The electronic state is 1-A.
 Alpha  occ. eigenvalues --  -11.21648 -11.21624 -11.21566 -11.21503 -11.21441
 Alpha  occ. eigenvalues --  -11.21380 -11.21339 -11.21271 -11.21135 -11.21089
 Alpha  occ. eigenvalues --  -11.21046 -11.20888  -1.08471  -1.08357  -1.03595
 Alpha  occ. eigenvalues --   -1.03436  -0.96065  -0.95870  -0.87081  -0.86896
 Alpha  occ. eigenvalues --   -0.79666  -0.79508  -0.78284  -0.78172  -0.65101
 Alpha  occ. eigenvalues --   -0.65000  -0.61044  -0.60853  -0.59358  -0.59267
 Alpha  occ. eigenvalues --   -0.57683  -0.57482  -0.55515  -0.55041  -0.52693
 Alpha  occ. eigenvalues --   -0.52597  -0.52522  -0.52274  -0.50162  -0.49639
 Alpha  occ. eigenvalues --   -0.48014  -0.47808  -0.46706  -0.46465  -0.45860
 Alpha  occ. eigenvalues --   -0.45740  -0.45700  -0.45567  -0.43810  -0.43703
 Alpha virt. eigenvalues --    0.21220   0.22960   0.23806   0.24816   0.25996
 Alpha virt. eigenvalues --    0.26349   0.26482   0.27716   0.27848   0.29178
 Alpha virt. eigenvalues --    0.30313   0.30672   0.31251   0.31835   0.32419

 Mulliken charges:
               1
     1  C   -0.298171
     2  C   -0.299535
     3  C   -0.475655
     4  H    0.149451
     5  H    0.149179
     6  H    0.151868
     7  H    0.151671
     8  H    0.155052
     9  H    0.155144
    10  H    0.160072
    11  C   -0.299906
    12  C   -0.300394
    13  C   -0.480696
    14  H    0.149204
    15  H    0.151633
    16  H    0.151423
    17  H    0.152577
    18  H    0.163596
    19  H    0.153870
    20  H    0.158670
    21  C   -0.298702
    22  C   -0.300268
    23  C   -0.480549
    24  H    0.149565
    25  H    0.149766
    26  H    0.151761
    27  H    0.152343
    28  H    0.157469
    29  H    0.154870
    30  H    0.164282
    31  C   -0.298263
    32  C   -0.299664
    33  C   -0.475728
    34  H    0.149554
    35  H    0.149767
    36  H    0.151950
    37  H    0.152023
    38  H    0.155234
    39  H    0.155195
    40  H    0.160344
 Sum of Mulliken charges =  -0.00000

 Dipole moment (field-independent basis, Debye):
    X=             -0.0562    Y=             -0.0033    Z=             -0.0045  Tot=              0.0565
 Quadrupole moment (field-independent basis, Debye-Ang):
   XX=            -85.6615   YY=            -84.3803   ZZ=            -85.0014
   XY=              0.3288   XZ=             -0.2195   YZ=              0.3784

 Normal termination of Gaussian 16 at Wed May  5 16:37:26 2021.
