 Gaussian 16, Revision A.03,
 Gaussian 16:  EM64L-G16RevA.03 25-Dec-2016

 -------------
 #p 6-31g* mp2
 -------------

 ------------------------------------------------------
 Input file generated by CHIRIPA (05-May-2021 14:51:13)
 ------------------------------------------------------
 Symbolic Z-matrix:
 Charge =  0 Multiplicity = 1

                         Standard orientation:
 ---------------------------------------------------------------------
 Center     Atomic      Atomic             Coordinates (Angstroms)
 Number     Number       Type             X           Y           Z
 ---------------------------------------------------------------------
      1          6           0       -3.401672    0.908602   -0.404649
      2          6           0       -3.839579    1.803533    0.755232
      3          6           0       -3.979439    3.271038    0.349447
      4          1           0       -2.444050    1.274037   -0.800077
      5          1           0       -4.131076    0.996129   -1.221780
      6          1           0       -3.110297    1.713283    1.570473
      7          1           0       -4.796174    1.435810    1.148069
      8          1           0       -4.721766    3.381250   -0.447676
      9          1           0       -3.026310    3.660300   -0.022871
     10          1           0       -4.293303    3.892847    1.193664
     11          6           0       -3.257452   -0.561371   -0.014640
     12          6           0       -2.819545   -1.456302   -1.174521
     13          6           0       -2.679685   -2.923807   -0.768736
     14          1           0       -2.528048   -0.648898    0.802491
     15          1           0       -4.215073   -0.926806    0.380788
     16          1           0       -1.862950   -1.088579   -1.567358
     17          1           0       -3.548827   -1.366052   -1.989762
     18          1           0       -3.632814   -3.313069   -0.396417
     19          1           0       -1.937357   -3.034020    0.028387
     20          1           0       -2.365821   -3.545616   -1.612953
     21          6           0        3.067282   -0.720150    0.674339
     22          6           0        1.599126   -1.070672    0.430129
     23          6           0        1.088955   -2.165611    1.367482
     24          1           0        3.678912   -1.624431    0.551340
     25          1           0        3.191544   -0.398263    1.717575
     26          1           0        1.477419   -1.390481   -0.612716
     27          1           0        0.990942   -0.165411    0.553534
     28          1           0        1.181466   -1.852156    2.412369
     29          1           0        1.670707   -3.084187    1.239491
     30          1           0        0.037359   -2.400521    1.175588
     31          6           0        3.591842    0.372919   -0.255050
     32          6           0        5.059998    0.723441   -0.010840
     33          6           0        5.570168    1.818380   -0.948193
     34          1           0        3.467580    0.051032   -1.298286
     35          1           0        2.980212    1.277201   -0.132051
     36          1           0        5.668183   -0.181820   -0.134246
     37          1           0        5.181705    1.043250    1.032005
     38          1           0        4.988417    2.736957   -0.820203
     39          1           0        5.477658    1.504926   -1.993080
     40          1           0        6.621765    2.053290   -0.756300
 ---------------------------------------------------------------------

 SCF Done:  E(RHF) =  -470.733345614     A.U. after   11 cycles
 E2 =    -0.1582875163D+01 EUMP2 =    -0.47231622077710D+03

 The electronic state is 1-A.
 Alpha  occ. eigenvalues --  -11.21673 -11.21632 -11.21603 -11.21589 -11.21451
 Alpha  occ. eigenvalues --  -11.21401 -11.21391 -11.21342 -11.21125 -11.21095
 Alpha  occ. eigenvalues --  -11.21075 -11.21062  -1.08479  -1.08424  -1.03588
 Alpha  occ. eigenvalues --   -1.03518  -0.96040  -0.95966  -0.87062  -0.86978
 Alpha  occ. eigenvalues --   -0.79658  -0.79571  -0.78289  -0.78238  -0.65109
 Alpha  occ. eigenvalues --   -0.65065  -0.60997  -0.60961  -0.59424  -0.59304
 Alpha  occ. eigenvalues --   -0.57684  -0.57542  -0.55338  -0.55244  -0.52767
 Alpha  occ. eigenvalues --   -0.52671  -0.52487  -0.52330  -0.49972  -0.49906
 Alpha  occ. eigenvalues --   -0.48000  -0.47867  -0.46682  -0.46599  -0.45848
 Alpha  occ. eigenvalues --   -0.45773  -0.45753  -0.45682  -0.43809  -0.43777
 Alpha virt. eigenvalues --    0.20058   0.23122   0.23507   0.25242   0.26219
 Alpha virt. eigenvalues --    0.26464   0.26550   0.27669   0.28075   0.28932
 Alpha virt. eigenvalues --    0.30224   0.31071   0.31601   0.31816   0.32184

 Mulliken charges:
               1
     1  C   -0.298421
     2  C   -0.299643
     3  C   -0.475693
     4  H    0.149867
     5  H    0.149575
     6  H    0.151758
     7  H    0.151993
     8  H    0.155249
     9  H    0.155076
    10  H    0.160220
    11  C   -0.299683
    12  C   -0.300118
    13  C   -0.481616
    14  H    0.150465
    15  H    0.149648
    16  H    0.153258
    17  H    0.151933
    18  H    0.155380
    19  H    0.160176
    20  H    0.160385
    21  C   -0.298495
    22  C   -0.299728
    23  C   -0.483398
    24  H    0.149994
    25  H    0.149708
    26  H    0.152487
    27  H    0.151349
    28  H    0.155456
    29  H    0.155887
    30  H    0.166681
    31  C   -0.298294
    32  C   -0.299695
    33  C   -0.475742
    34  H    0.149618
    35  H    0.149476
    36  H    0.152067
    37  H    0.152000
    38  H    0.155184
    39  H    0.155248
    40  H    0.160386
 Sum of Mulliken charges =  -0.00000

 Dipole moment (field-independent basis, Debye):
    X=              0.0169    Y=             -0.0057    Z=             -0.0029  Tot=              0.0181
 Quadrupole moment (field-independent basis, Debye-Ang):
   XX=            -83.9708   YY=            -86.0559   ZZ=            -84.6551
   XY=             -0.3109   XZ=              0.3390   YZ=              1.1507

 Normal termination of Gaussian 16 at Thu May  6 07:09:43 2021.
