 Gaussian 16, Revision A.03,
 Gaussian 16:  EM64L-G16RevA.03 25-Dec-2016

 -------------
 #p 6-31g* mp2
 -------------

 ------------------------------------------------------
 Input file generated by CHIRIPA (05-May-2021 14:53:14)
 ------------------------------------------------------
 Symbolic Z-matrix:
 Charge =  0 Multiplicity = 1

                         Standard orientation:
 ---------------------------------------------------------------------
 Center     Atomic      Atomic             Coordinates (Angstroms)
 Number     Number       Type             X           Y           Z
 ---------------------------------------------------------------------
      1          6           0        3.818735   -0.175071    0.616937
      2          6           0        5.092641    0.646946    0.418350
      3          6           0        5.716037    1.099530    1.739084
      4          1           0        3.089806    0.421037    1.182854
      5          1           0        4.050373   -1.054016    1.234347
      6          1           0        4.858960    1.523347   -0.199656
      7          1           0        5.818551    0.048882   -0.147326
      8          1           0        5.977172    0.235062    2.358038
      9          1           0        5.012129    1.717905    2.305411
     10          1           0        6.625497    1.685545    1.573766
     11          6           0        3.183838   -0.634802   -0.694276
     12          6           0        1.909932   -1.456820   -0.495688
     13          6           0        1.286536   -1.909404   -1.816422
     14          1           0        2.952200    0.244142   -1.311686
     15          1           0        3.912767   -1.230911   -1.260193
     16          1           0        1.184022   -0.858755    0.069987
     17          1           0        2.143613   -2.333221    0.122317
     18          1           0        1.990444   -2.527779   -2.382750
     19          1           0        1.025401   -1.044936   -2.435377
     20          1           0        0.377076   -2.495419   -1.651105
     21          6           0       -4.082336   -1.265364    1.461919
     22          6           0       -4.445966    0.082522    1.375332
     23          6           0       -3.706944    0.967938    0.585121
     24          6           0       -2.605162    0.469272   -0.108202
     25          6           0       -2.217676   -0.868188   -0.042283
     26          6           0       -2.971310   -1.735588    0.754083
     27          1           0       -4.662103   -1.946179    2.078165
     28          1           0       -5.308326    0.450494    1.923944
     29          1           0       -3.966225    2.016254    0.500131
     30          1           0       -1.353004   -1.205599   -0.600777
     31          1           0       -2.686581   -2.781868    0.819446
     32          7           0       -1.815057    1.397086   -0.948021
     33          8           0       -0.848630    0.932937   -1.549038
     34          8           0       -2.177160    2.570888   -0.989351
 ---------------------------------------------------------------------

 SCF Done:  E(RHF) =  -669.535607185     A.U. after   15 cycles
 E2 =    -0.2092781332D+01 EUMP2 =    -0.67162838851630D+03

 The electronic state is 1-A.
 Alpha  occ. eigenvalues --  -20.60912 -20.60896 -15.85942 -11.31219 -11.27795
 Alpha  occ. eigenvalues --  -11.27726 -11.27528 -11.26797 -11.26774 -11.21248
 Alpha  occ. eigenvalues --  -11.21203 -11.20974 -11.20860 -11.20749 -11.20689
 Alpha  occ. eigenvalues --   -1.59971  -1.39528  -1.19393  -1.08807  -1.08004
 Alpha  occ. eigenvalues --   -1.04785  -1.03157  -0.95717  -0.95549  -0.86629
 Alpha  occ. eigenvalues --   -0.86184  -0.82493  -0.79227  -0.77825  -0.77548
 Alpha  occ. eigenvalues --   -0.72185  -0.71285  -0.70517  -0.65066  -0.64851
 Alpha  occ. eigenvalues --   -0.64553  -0.62205  -0.60466  -0.58999  -0.57254
 Alpha  occ. eigenvalues --   -0.55291  -0.54827  -0.53119  -0.52909  -0.52299
 Alpha  occ. eigenvalues --   -0.52013  -0.49522  -0.48918  -0.48879  -0.47549
 Alpha  occ. eigenvalues --   -0.46235  -0.45392  -0.45261  -0.44890  -0.43422
 Alpha  occ. eigenvalues --   -0.37377  -0.36378
 Alpha virt. eigenvalues --    0.04953   0.11212   0.16472   0.20684   0.23380
 Alpha virt. eigenvalues --    0.24211   0.26750   0.27119   0.27804   0.27995
 Alpha virt. eigenvalues --    0.29581   0.31210   0.31748   0.31937   0.32163

 Mulliken charges:
               1
     1  C   -0.298283
     2  C   -0.299944
     3  C   -0.475544
     4  H    0.150680
     5  H    0.146050
     6  H    0.155071
     7  H    0.150758
     8  H    0.153340
     9  H    0.155319
    10  H    0.159681
    11  C   -0.299751
    12  C   -0.300843
    13  C   -0.483880
    14  H    0.160872
    15  H    0.147231
    16  H    0.153301
    17  H    0.145332
    18  H    0.154985
    19  H    0.182041
    20  H    0.140076
    21  C   -0.170094
    22  C   -0.219242
    23  C   -0.169697
    24  C    0.154227
    25  C   -0.178552
    26  C   -0.223383
    27  H    0.225804
    28  H    0.223537
    29  H    0.275506
    30  H    0.295678
    31  H    0.224060
    32  N    0.491389
    33  O   -0.466480
    34  O   -0.459246
 Sum of Mulliken charges =  -0.00000

 Dipole moment (field-independent basis, Debye):
    X=             -2.8284    Y=             -3.0658    Z=              2.8378  Tot=              5.0450
 Quadrupole moment (field-independent basis, Debye-Ang):
   XX=            -79.0168   YY=            -95.2679   ZZ=            -96.3888
   XY=              4.3073   XZ=             -9.3791   YZ=              2.2628

 Normal termination of Gaussian 16 at Thu May  6 15:25:28 2021.
