 Gaussian 16, Revision A.03,
 Gaussian 16:  EM64L-G16RevA.03 25-Dec-2016

 -------------
 #p 6-31g* mp2
 -------------

 ------------------------------------------------------
 Input file generated by CHIRIPA (05-May-2021 14:57:26)
 ------------------------------------------------------
 Symbolic Z-matrix:
 Charge =  0 Multiplicity = 1

                         Standard orientation:
 ---------------------------------------------------------------------
 Center     Atomic      Atomic             Coordinates (Angstroms)
 Number     Number       Type             X           Y           Z
 ---------------------------------------------------------------------
      1          6           0        1.590141   -1.072469    0.993460
      2          6           0        1.518707    0.023413    0.127168
      3          6           0        2.683179    0.584417   -0.405586
      4          6           0        3.907830    0.021838   -0.049181
      5          6           0        4.011748   -1.069900    0.811400
      6          6           0        2.834241   -1.614672    1.332213
      7          1           0        0.680488   -1.501966    1.402678
      8          1           0        0.553899    0.446564   -0.137660
      9          1           0        2.656772    1.432915   -1.078470
     10          1           0        4.988014   -1.469918    1.056978
     11          1           0        2.892746   -2.465737    2.004753
     12          7           0        5.147505    0.607156   -0.606864
     13          8           0        6.214184    0.093118   -0.277322
     14          8           0        5.029009    1.568883   -1.362957
     15          6           0       -3.687370    2.482188    0.711806
     16          6           0       -2.584958    1.660583    0.969054
     17          6           0       -2.582936    0.325069    0.555600
     18          6           0       -3.705078   -0.158124   -0.115678
     19          6           0       -4.818656    0.635421   -0.386819
     20          6           0       -4.798742    1.967890    0.035882
     21          1           0       -3.680420    3.518464    1.036580
     22          1           0       -1.720479    2.057291    1.493786
     23          1           0       -1.742914   -0.333082    0.741658
     24          1           0       -5.665935    0.211493   -0.912007
     25          1           0       -5.656296    2.603643   -0.165272
     26          7           0       -3.714549   -1.570362   -0.558279
     27          8           0       -4.715379   -1.972019   -1.147895
     28          8           0       -2.720963   -2.248875   -0.307193
 ---------------------------------------------------------------------

 SCF Done:  E(RHF) =  -868.337318360     A.U. after   16 cycles
 E2 =    -0.2600286272D+01 EUMP2 =    -0.87093760463180D+03

 The electronic state is 1-A.
 Alpha  occ. eigenvalues --  -20.61641 -20.61609 -20.60859 -20.60851 -15.86683
 Alpha  occ. eigenvalues --  -15.85914 -11.32117 -11.31301 -11.28800 -11.28601
 Alpha  occ. eigenvalues --  -11.28342 -11.27918 -11.27861 -11.27733 -11.27645
 Alpha  occ. eigenvalues --  -11.27613 -11.26964 -11.26857  -1.60696  -1.59933
 Alpha  occ. eigenvalues --   -1.40253  -1.39486  -1.20272  -1.19487  -1.09631
 Alpha  occ. eigenvalues --   -1.08881  -1.05699  -1.04900  -0.96473  -0.95708
 Alpha  occ. eigenvalues --   -0.87078  -0.86310  -0.83312  -0.82541  -0.78381
 Alpha  occ. eigenvalues --   -0.77582  -0.72901  -0.72135  -0.72017  -0.71386
 Alpha  occ. eigenvalues --   -0.71256  -0.70588  -0.65927  -0.65702  -0.65146
 Alpha  occ. eigenvalues --   -0.64943  -0.63059  -0.62210  -0.56133  -0.55406
 Alpha  occ. eigenvalues --   -0.54000  -0.53779  -0.53216  -0.52984  -0.49670
 Alpha  occ. eigenvalues --   -0.49642  -0.48893  -0.48884  -0.45643  -0.44886
 Alpha  occ. eigenvalues --   -0.38204  -0.37461  -0.37296  -0.36502
 Alpha virt. eigenvalues --    0.04138   0.04967   0.10338   0.11130   0.15581
 Alpha virt. eigenvalues --    0.16448   0.18426   0.22033   0.24960   0.26404
 Alpha virt. eigenvalues --    0.27438   0.29087   0.30312   0.31014   0.32032

 Mulliken charges:
               1
     1  C   -0.172767
     2  C   -0.223005
     3  C   -0.170934
     4  C    0.158521
     5  C   -0.170280
     6  C   -0.218255
     7  H    0.229913
     8  H    0.218920
     9  H    0.275368
    10  H    0.276514
    11  H    0.226025
    12  N    0.488088
    13  O   -0.459614
    14  O   -0.460809
    15  C   -0.169905
    16  C   -0.221659
    17  C   -0.178308
    18  C    0.159907
    19  C   -0.169279
    20  C   -0.217593
    21  H    0.229567
    22  H    0.224991
    23  H    0.270796
    24  H    0.278645
    25  H    0.227414
    26  N    0.487869
    27  O   -0.455486
    28  O   -0.464644
 Sum of Mulliken charges =  -0.00000

 Dipole moment (field-independent basis, Debye):
    X=             -4.5734    Y=              2.9352    Z=              3.5002  Tot=              6.4639
 Quadrupole moment (field-independent basis, Debye-Ang):
   XX=           -132.2043   YY=           -104.6534   ZZ=           -104.6754
   XY=            -30.2664   XZ=              5.9308   YZ=             -2.8930

 Normal termination of Gaussian 16 at Thu May  6 05:11:32 2021.
