 Gaussian 16, Revision A.03,
 Gaussian 16:  EM64L-G16RevA.03 25-Dec-2016

 -------------
 #p 6-31g* mp2
 -------------

 ------------------------------------------------------
 Input file generated by CHIRIPA (05-May-2021 14:57:27)
 ------------------------------------------------------
 Symbolic Z-matrix:
 Charge =  0 Multiplicity = 1

                         Standard orientation:
 ---------------------------------------------------------------------
 Center     Atomic      Atomic             Coordinates (Angstroms)
 Number     Number       Type             X           Y           Z
 ---------------------------------------------------------------------
      1          6           0       -3.444433   -2.309276   -0.160036
      2          6           0       -4.430444   -1.610414    0.544161
      3          6           0       -4.417347   -0.213051    0.586026
      4          6           0       -3.398947    0.456480   -0.090642
      5          6           0       -2.402541   -0.211388   -0.800866
      6          6           0       -2.435407   -1.608768   -0.829123
      7          1           0       -3.462285   -3.394788   -0.187272
      8          1           0       -5.215276   -2.151810    1.064712
      9          1           0       -5.168315    0.353067    1.123591
     10          1           0       -1.632932    0.355984   -1.309991
     11          1           0       -1.668361   -2.148885   -1.376809
     12          7           0       -3.374617    1.935814   -0.053525
     13          8           0       -2.466640    2.502301   -0.657931
     14          8           0       -4.263985    2.500818    0.579272
     15          6           0        5.600277    1.017729   -0.057607
     16          6           0        5.041500    0.737174    1.193624
     17          6           0        3.824501    0.056032    1.291130
     18          6           0        3.190527   -0.331618    0.111683
     19          6           0        3.721803   -0.066783   -1.149626
     20          6           0        4.939810    0.615565   -1.223183
     21          1           0        6.546062    1.547324   -0.124051
     22          1           0        5.552201    1.048295    2.100504
     23          1           0        3.369460   -0.174125    2.246840
     24          1           0        3.189256   -0.389629   -2.035956
     25          1           0        5.371411    0.832088   -2.196263
     26          7           0        1.901612   -1.053350    0.202232
     27          8           0        1.362882   -1.384143   -0.851800
     28          8           0        1.454495   -1.274584    1.325521
 ---------------------------------------------------------------------

 SCF Done:  E(RHF) =  -868.340372918     A.U. after   15 cycles
 E2 =    -0.2598602838D+01 EUMP2 =    -0.87093897575574D+03

 The electronic state is 1-A.
 Alpha  occ. eigenvalues --  -20.61419 -20.61370 -20.59902 -20.59897 -15.86418
 Alpha  occ. eigenvalues --  -15.84941 -11.31498 -11.30016 -11.28048 -11.28021
 Alpha  occ. eigenvalues --  -11.27729 -11.26993 -11.26977 -11.26595 -11.26430
 Alpha  occ. eigenvalues --  -11.26216 -11.25604 -11.25306  -1.60450  -1.58981
 Alpha  occ. eigenvalues --   -1.40014  -1.38543  -1.19643  -1.18142  -1.09093
 Alpha  occ. eigenvalues --   -1.07603  -1.05007  -1.03474  -0.95977  -0.94491
 Alpha  occ. eigenvalues --   -0.86420  -0.84906  -0.82826  -0.81315  -0.77899
 Alpha  occ. eigenvalues --   -0.76395  -0.72660  -0.71744  -0.71173  -0.70756
 Alpha  occ. eigenvalues --   -0.70294  -0.69281  -0.65306  -0.65012  -0.63791
 Alpha  occ. eigenvalues --   -0.63467  -0.62361  -0.60824  -0.55522  -0.54036
 Alpha  occ. eigenvalues --   -0.53344  -0.53100  -0.51849  -0.51562  -0.49413
 Alpha  occ. eigenvalues --   -0.49369  -0.47939  -0.47898  -0.45482  -0.44013
 Alpha  occ. eigenvalues --   -0.37604  -0.36592  -0.36129  -0.35039
 Alpha virt. eigenvalues --    0.04610   0.06094   0.11066   0.12587   0.16159
 Alpha virt. eigenvalues --    0.17669   0.21205   0.22701   0.27137   0.28006
 Alpha virt. eigenvalues --    0.28732   0.29440   0.30815   0.32181   0.32355

 Mulliken charges:
               1
     1  C   -0.171578
     2  C   -0.218418
     3  C   -0.173422
     4  C    0.157831
     5  C   -0.170093
     6  C   -0.211716
     7  H    0.222837
     8  H    0.218659
     9  H    0.270896
    10  H    0.274721
    11  H    0.237526
    12  N    0.488343
    13  O   -0.464037
    14  O   -0.464289
    15  C   -0.169530
    16  C   -0.218279
    17  C   -0.169522
    18  C    0.158496
    19  C   -0.169877
    20  C   -0.218128
    21  H    0.227283
    22  H    0.225091
    23  H    0.276445
    24  H    0.273946
    25  H    0.224711
    26  N    0.490465
    27  O   -0.472538
    28  O   -0.455821
 Sum of Mulliken charges =  -0.00000

 Dipole moment (field-independent basis, Debye):
    X=              4.9558    Y=             -2.7736    Z=             -0.4394  Tot=              5.6962
 Quadrupole moment (field-independent basis, Debye-Ang):
   XX=            -73.3204   YY=           -112.9185   ZZ=            -98.7420
   XY=             25.2082   XZ=             -2.1830   YZ=              1.1519

 Normal termination of Gaussian 16 at Thu May  6 21:26:22 2021.
