 Gaussian 16, Revision A.03,
 Gaussian 16:  EM64L-G16RevA.03 25-Dec-2016

 -------------
 #p 6-31g* mp2
 -------------

 ------------------------------------------------------
 Input file generated by CHIRIPA (05-May-2021 14:55:24)
 ------------------------------------------------------
 Symbolic Z-matrix:
 Charge =  0 Multiplicity = 1

                         Standard orientation:
 ---------------------------------------------------------------------
 Center     Atomic      Atomic             Coordinates (Angstroms)
 Number     Number       Type             X           Y           Z
 ---------------------------------------------------------------------
      1          6           0       -6.034546   -0.918377   -0.076137
      2          6           0       -4.861079   -1.676334   -0.005449
      3          6           0       -3.612267   -1.049256    0.036868
      4          6           0       -3.573632    0.343900    0.006644
      5          6           0       -4.724987    1.126674   -0.063609
      6          6           0       -5.962881    0.478246   -0.104940
      7          1           0       -7.000412   -1.413799   -0.108627
      8          1           0       -4.913704   -2.761124    0.017061
      9          1           0       -2.688103   -1.611686    0.091746
     10          1           0       -4.640595    2.206423   -0.084561
     11          1           0       -6.872565    1.069439   -0.159821
     12          7           0       -2.257350    1.019060    0.050922
     13          8           0       -2.250273    2.247803    0.023039
     14          8           0       -1.257650    0.306724    0.112671
     15          6           0        4.231709   -0.578620   -0.345393
     16          6           0        3.038807   -0.752855    0.595144
     17          6           0        1.805594   -1.315603   -0.112170
     18          1           0        3.945269    0.086930   -1.171190
     19          1           0        4.478188   -1.549350   -0.797417
     20          1           0        2.795527    0.217647    1.046316
     21          1           0        3.328180   -1.417915    1.418901
     22          1           0        2.025100   -2.295702   -0.547860
     23          1           0        1.489420   -0.650848   -0.922562
     24          1           0        0.964747   -1.432065    0.578680
     25          6           0        5.472153   -0.016900    0.347066
     26          6           0        6.665055    0.157335   -0.593472
     27          6           0        7.898269    0.720084    0.113842
     28          1           0        5.225675    0.953830    0.799089
     29          1           0        5.758594   -0.682451    1.172863
     30          1           0        6.375683    0.822395   -1.417229
     31          1           0        6.908336   -0.813166   -1.044644
     32          1           0        8.214443    0.055327    0.924234
     33          1           0        7.678763    1.700182    0.549533
     34          1           0        8.739116    0.836545   -0.577007
 ---------------------------------------------------------------------

 SCF Done:  E(RHF) =  -669.535624917     A.U. after   15 cycles
 E2 =    -0.2090875950D+01 EUMP2 =    -0.67162650086635D+03

 The electronic state is 1-A.
 Alpha  occ. eigenvalues --  -20.60865 -20.60858 -15.85904 -11.31251 -11.27819
 Alpha  occ. eigenvalues --  -11.27815 -11.27562 -11.26832 -11.26822 -11.20992
 Alpha  occ. eigenvalues --  -11.20638 -11.20557 -11.20485 -11.20422 -11.19606
 Alpha  occ. eigenvalues --   -1.59936  -1.39491  -1.19424  -1.08824  -1.07578
 Alpha  occ. eigenvalues --   -1.04824  -1.02612  -0.95669  -0.95046  -0.86225
 Alpha  occ. eigenvalues --   -0.86072  -0.82495  -0.78713  -0.77547  -0.77365
 Alpha  occ. eigenvalues --   -0.72136  -0.71253  -0.70533  -0.65081  -0.64827
 Alpha  occ. eigenvalues --   -0.64210  -0.62171  -0.60001  -0.58456  -0.56651
 Alpha  occ. eigenvalues --   -0.55328  -0.54335  -0.53155  -0.52915  -0.51719
 Alpha  occ. eigenvalues --   -0.51489  -0.49088  -0.48883  -0.48790  -0.47016
 Alpha  occ. eigenvalues --   -0.45753  -0.44960  -0.44871  -0.44790  -0.42861
 Alpha  occ. eigenvalues --   -0.37405  -0.36427
 Alpha virt. eigenvalues --    0.04977   0.11228   0.16464   0.21282   0.23677
 Alpha virt. eigenvalues --    0.25173   0.27103   0.27470   0.27831   0.28324
 Alpha virt. eigenvalues --    0.29149   0.30691   0.31881   0.32318   0.32585

 Mulliken charges:
               1
     1  C   -0.170687
     2  C   -0.218592
     3  C   -0.170788
     4  C    0.157608
     5  C   -0.170828
     6  C   -0.218580
     7  H    0.225831
     8  H    0.223784
     9  H    0.276086
    10  H    0.275706
    11  H    0.223639
    12  N    0.494057
    13  O   -0.460062
    14  O   -0.464693
    15  C   -0.297905
    16  C   -0.300285
    17  C   -0.472613
    18  H    0.150627
    19  H    0.145756
    20  H    0.157546
    21  H    0.145474
    22  H    0.142009
    23  H    0.164073
    24  H    0.167503
    25  C   -0.297779
    26  C   -0.299047
    27  C   -0.475280
    28  H    0.150334
    29  H    0.147462
    30  H    0.151900
    31  H    0.150212
    32  H    0.153981
    33  H    0.155189
    34  H    0.158364
 Sum of Mulliken charges =  -0.00000

 Dipole moment (field-independent basis, Debye):
    X=             -4.9317    Y=             -2.2731    Z=             -0.1517  Tot=              5.4325
 Quadrupole moment (field-independent basis, Debye-Ang):
   XX=            -63.1167   YY=            -92.0992   ZZ=            -95.8541
   XY=              4.4238   XZ=              0.3831   YZ=             -0.6697

 Normal termination of Gaussian 16 at Thu May  6 00:01:29 2021.
