 Gaussian 16, Revision A.03,
 Gaussian 16:  EM64L-G16RevA.03 25-Dec-2016

 -------------
 #p 6-31g* mp2
 -------------

 ------------------------------------------------------
 Input file generated by CHIRIPA (05-May-2021 14:57:25)
 ------------------------------------------------------
 Symbolic Z-matrix:
 Charge =  0 Multiplicity = 1

                         Standard orientation:
 ---------------------------------------------------------------------
 Center     Atomic      Atomic             Coordinates (Angstroms)
 Number     Number       Type             X           Y           Z
 ---------------------------------------------------------------------
      1          6           0       -4.961699    1.254216   -1.673378
      2          6           0       -5.137985    1.574718   -0.323296
      3          6           0       -4.456796    0.864625    0.669830
      4          6           0       -3.603256   -0.164566    0.275462
      5          6           0       -3.406599   -0.507696   -1.061279
      6          6           0       -4.098092    0.215863   -2.037419
      7          1           0       -5.494865    1.811063   -2.438265
      8          1           0       -5.808036    2.380622   -0.037648
      9          1           0       -4.574724    1.091741    1.722412
     10          1           0       -2.731941   -1.316271   -1.315168
     11          1           0       -3.959242   -0.035245   -3.085136
     12          7           0       -2.876658   -0.923437    1.317849
     13          8           0       -2.130359   -1.825756    0.944357
     14          8           0       -3.067207   -0.601552    2.488626
     15          6           0        2.741905   -2.220191   -0.648805
     16          6           0        4.108242   -1.986635   -0.836145
     17          6           0        4.662698   -0.738475   -0.537446
     18          6           0        3.817858    0.257953   -0.050962
     19          6           0        2.452733    0.056059    0.146431
     20          6           0        1.919960   -1.199899   -0.158979
     21          1           0        2.319612   -3.192821   -0.883447
     22          1           0        4.748971   -2.777149   -1.216408
     23          1           0        5.717109   -0.530483   -0.673000
     24          1           0        1.839280    0.863685    0.526999
     25          1           0        0.858493   -1.378432   -0.012494
     26          7           0        4.393358    1.583451    0.268809
     27          8           0        3.627728    2.444753    0.696132
     28          8           0        5.599168    1.735975    0.086067
 ---------------------------------------------------------------------

 SCF Done:  E(RHF) =  -868.339661108     A.U. after   16 cycles
 E2 =    -0.2598491464D+01 EUMP2 =    -0.87093815257258D+03

 The electronic state is 1-A.
 Alpha  occ. eigenvalues --  -20.61667 -20.61585 -20.60364 -20.60358 -15.86649
 Alpha  occ. eigenvalues --  -15.85410 -11.31794 -11.30664 -11.28372 -11.28300
 Alpha  occ. eigenvalues --  -11.28010 -11.27304 -11.27262 -11.27232 -11.27156
 Alpha  occ. eigenvalues --  -11.26889 -11.26242 -11.26037  -1.60682  -1.59441
 Alpha  occ. eigenvalues --   -1.40246  -1.38998  -1.19941  -1.18807  -1.09371
 Alpha  occ. eigenvalues --   -1.08219  -1.05310  -1.04178  -0.96244  -0.95081
 Alpha  occ. eigenvalues --   -0.86718  -0.85576  -0.83086  -0.81906  -0.78168
 Alpha  occ. eigenvalues --   -0.76972  -0.72872  -0.71989  -0.71632  -0.71041
 Alpha  occ. eigenvalues --   -0.70762  -0.69915  -0.65596  -0.65305  -0.64450
 Alpha  occ. eigenvalues --   -0.64142  -0.62665  -0.61513  -0.55804  -0.54678
 Alpha  occ. eigenvalues --   -0.53648  -0.53397  -0.52534  -0.52241  -0.49645
 Alpha  occ. eigenvalues --   -0.49599  -0.48394  -0.48378  -0.45684  -0.44429
 Alpha  occ. eigenvalues --   -0.37898  -0.36902  -0.36786  -0.35784
 Alpha virt. eigenvalues --    0.04310   0.05533   0.10751   0.11869   0.15825
 Alpha virt. eigenvalues --    0.17066   0.20812   0.22112   0.26598   0.27304
 Alpha virt. eigenvalues --    0.28413   0.28881   0.30323   0.31372   0.32390

 Mulliken charges:
               1
     1  C   -0.169707
     2  C   -0.218043
     3  C   -0.170085
     4  C    0.157658
     5  C   -0.171867
     6  C   -0.217824
     7  H    0.228260
     8  H    0.226293
     9  H    0.277466
    10  H    0.271356
    11  H    0.224883
    12  N    0.488933
    13  O   -0.470154
    14  O   -0.453515
    15  C   -0.172352
    16  C   -0.218596
    17  C   -0.172564
    18  C    0.158351
    19  C   -0.172638
    20  C   -0.225820
    21  H    0.226125
    22  H    0.221228
    23  H    0.273486
    24  H    0.274660
    25  H    0.240088
    26  N    0.488119
    27  O   -0.461536
    28  O   -0.462205
 Sum of Mulliken charges =  -0.00000

 Dipole moment (field-independent basis, Debye):
    X=             -5.0205    Y=             -1.9304    Z=             -4.7587  Tot=              7.1817
 Quadrupole moment (field-independent basis, Debye-Ang):
   XX=            -97.2650   YY=           -107.1606   ZZ=           -104.6476
   XY=            -31.5173   XZ=              5.3830   YZ=              4.0198

 Normal termination of Gaussian 16 at Wed May  5 16:25:54 2021.
