 Gaussian 16, Revision A.03,
 Gaussian 16:  EM64L-G16RevA.03 25-Dec-2016

 -------------
 #p 6-31g* mp2
 -------------

 ------------------------------------------------------
 Input file generated by CHIRIPA (05-May-2021 14:55:25)
 ------------------------------------------------------
 Symbolic Z-matrix:
 Charge =  0 Multiplicity = 1

                         Standard orientation:
 ---------------------------------------------------------------------
 Center     Atomic      Atomic             Coordinates (Angstroms)
 Number     Number       Type             X           Y           Z
 ---------------------------------------------------------------------
      1          6           0        5.197828    0.201942    1.437341
      2          6           0        5.221418   -0.887753    0.560683
      3          6           0        4.134484   -1.146653   -0.279611
      4          6           0        3.035316   -0.291563   -0.216830
      5          6           0        2.981844    0.802164    0.645836
      6          6           0        4.080087    1.041942    1.477049
      7          1           0        6.046577    0.395635    2.086574
      8          1           0        6.088132   -1.541789    0.527698
      9          1           0        4.126302   -1.983167   -0.967793
     10          1           0        2.103763    1.436424    0.656089
     11          1           0        4.058996    1.888957    2.156877
     12          7           0        1.878641   -0.555527   -1.101605
     13          8           0        0.922174    0.212763   -1.027191
     14          8           0        1.950408   -1.525715   -1.852753
     15          6           0       -4.499307   -0.054371    0.646017
     16          6           0       -5.623264   -0.952956    0.129055
     17          6           0       -6.354283   -1.690237    1.251471
     18          1           0       -3.782904   -0.663878    1.213657
     19          1           0       -4.918260    0.675028    1.353018
     20          1           0       -5.202541   -1.679553   -0.577814
     21          1           0       -6.336972   -0.341271   -0.437583
     22          1           0       -6.800642   -0.978257    1.953219
     23          1           0       -5.659764   -2.324143    1.812191
     24          1           0       -7.153688   -2.326810    0.859567
     25          6           0       -3.759125    0.689402   -0.464236
     26          6           0       -2.635167    1.587986    0.052726
     27          6           0       -1.904147    2.325269   -1.069690
     28          1           0       -3.340172   -0.039997   -1.171236
     29          1           0       -4.475526    1.298909   -1.031877
     30          1           0       -1.921459    0.976302    0.619364
     31          1           0       -3.055891    2.314584    0.759596
     32          1           0       -2.598667    2.959174   -1.630409
     33          1           0       -1.457789    1.613289   -1.771437
     34          1           0       -1.104743    2.961840   -0.677786
 ---------------------------------------------------------------------

 SCF Done:  E(RHF) =  -669.536038139     A.U. after   15 cycles
 E2 =    -0.2091108088D+01 EUMP2 =    -0.67162714622748D+03

 The electronic state is 1-A.
 Alpha  occ. eigenvalues --  -20.60943 -20.60938 -15.85978 -11.31293 -11.27857
 Alpha  occ. eigenvalues --  -11.27852 -11.27594 -11.26863 -11.26853 -11.20951
 Alpha  occ. eigenvalues --  -11.20624 -11.20553 -11.20507 -11.20381 -11.19688
 Alpha  occ. eigenvalues --   -1.60009  -1.39564  -1.19462  -1.08869  -1.07552
 Alpha  occ. eigenvalues --   -1.04857  -1.02616  -0.95716  -0.95059  -0.86259
 Alpha  occ. eigenvalues --   -0.86083  -0.82544  -0.78719  -0.77596  -0.77352
 Alpha  occ. eigenvalues --   -0.72213  -0.71322  -0.70571  -0.65122  -0.64861
 Alpha  occ. eigenvalues --   -0.64165  -0.62205  -0.59976  -0.58485  -0.56689
 Alpha  occ. eigenvalues --   -0.55363  -0.54313  -0.53190  -0.52949  -0.51782
 Alpha  occ. eigenvalues --   -0.51499  -0.49128  -0.48956  -0.48800  -0.47025
 Alpha  occ. eigenvalues --   -0.45746  -0.45011  -0.44888  -0.44739  -0.42895
 Alpha  occ. eigenvalues --   -0.37442  -0.36459
 Alpha virt. eigenvalues --    0.04924   0.11196   0.16419   0.21183   0.23675
 Alpha virt. eigenvalues --    0.24857   0.27094   0.27478   0.27949   0.28431
 Alpha virt. eigenvalues --    0.29144   0.30875   0.31863   0.32476   0.32565

 Mulliken charges:
               1
     1  C   -0.170568
     2  C   -0.218617
     3  C   -0.170582
     4  C    0.157568
     5  C   -0.171013
     6  C   -0.218575
     7  H    0.226009
     8  H    0.223790
     9  H    0.275788
    10  H    0.276257
    11  H    0.223950
    12  N    0.493528
    13  O   -0.464858
    14  O   -0.459534
    15  C   -0.297607
    16  C   -0.299350
    17  C   -0.475195
    18  H    0.149125
    19  H    0.146095
    20  H    0.153513
    21  H    0.150618
    22  H    0.153414
    23  H    0.154377
    24  H    0.158642
    25  C   -0.299244
    26  C   -0.298481
    27  C   -0.475244
    28  H    0.156724
    29  H    0.146152
    30  H    0.155189
    31  H    0.143431
    32  H    0.145887
    33  H    0.178445
    34  H    0.150369
 Sum of Mulliken charges =  -0.00000

 Dipole moment (field-independent basis, Debye):
    X=              4.3643    Y=              0.8044    Z=              3.0063  Tot=              5.3602
 Quadrupole moment (field-independent basis, Debye-Ang):
   XX=            -70.3213   YY=            -92.8016   ZZ=            -96.5222
   XY=             -1.0761   XZ=              8.5179   YZ=              1.2343

 Normal termination of Gaussian 16 at Wed May  5 19:13:32 2021.
