 Gaussian 16, Revision A.03,
 Gaussian 16:  EM64L-G16RevA.03 25-Dec-2016

 -------------
 #p 6-31g* mp2
 -------------

 ------------------------------------------------------
 Input file generated by CHIRIPA (05-May-2021 14:55:20)
 ------------------------------------------------------
 Symbolic Z-matrix:
 Charge =  0 Multiplicity = 1

                         Standard orientation:
 ---------------------------------------------------------------------
 Center     Atomic      Atomic             Coordinates (Angstroms)
 Number     Number       Type             X           Y           Z
 ---------------------------------------------------------------------
      1          6           0       -0.881568    0.462448    1.088558
      2          6           0       -1.734961    1.446229    0.578246
      3          6           0       -2.984568    1.100477    0.055288
      4          6           0       -3.350372   -0.244688    0.058386
      5          6           0       -2.522372   -1.247912    0.559630
      6          6           0       -1.277300   -0.879117    1.077640
      7          1           0        0.087395    0.739987    1.492883
      8          1           0       -1.430264    2.488896    0.585433
      9          1           0       -3.664873    1.841740   -0.346124
     10          1           0       -2.853857   -2.278981    0.538846
     11          1           0       -0.616603   -1.645267    1.473289
     12          7           0       -4.670875   -0.622917   -0.492628
     13          8           0       -4.969722   -1.815026   -0.478400
     14          8           0       -5.382033    0.279898   -0.928307
     15          6           0        4.148840   -0.494921   -0.007499
     16          6           0        5.517716   -0.988118   -0.477520
     17          6           0        5.781013   -2.446963   -0.103030
     18          1           0        4.077741   -0.613773    1.082347
     19          1           0        3.367538   -1.133028   -0.443139
     20          1           0        6.296129   -0.348422   -0.042230
     21          1           0        5.585636   -0.867901   -1.566350
     22          1           0        5.025818   -3.101705   -0.549789
     23          1           0        5.740346   -2.579274    0.982991
     24          1           0        6.765024   -2.778847   -0.448622
     25          6           0        3.870969    0.961739   -0.374452
     26          6           0        2.502092    1.454936    0.095570
     27          6           0        2.238796    2.913780   -0.278920
     28          1           0        4.652271    1.599845    0.061189
     29          1           0        3.942067    1.080591   -1.464298
     30          1           0        2.434172    1.334719    1.184400
     31          1           0        1.723679    0.815240   -0.339720
     32          1           0        2.279462    3.046092   -1.364941
     33          1           0        2.993990    3.568523    0.167839
     34          1           0        1.254785    3.245666    0.066672
 ---------------------------------------------------------------------

 SCF Done:  E(RHF) =  -669.534686559     A.U. after   15 cycles
 E2 =    -0.2092498872D+01 EUMP2 =    -0.67162718543119D+03

 The electronic state is 1-A.
 Alpha  occ. eigenvalues --  -20.60718 -20.60713 -15.85773 -11.31120 -11.27703
 Alpha  occ. eigenvalues --  -11.27699 -11.27335 -11.26691 -11.26679 -11.22787
 Alpha  occ. eigenvalues --  -11.22296 -11.22255 -11.22223 -11.22184 -11.21635
 Alpha  occ. eigenvalues --   -1.59795  -1.39349  -1.19297  -1.09336  -1.08683
 Alpha  occ. eigenvalues --   -1.04700  -1.04432  -0.96855  -0.95522  -0.87869
 Alpha  occ. eigenvalues --   -0.86093  -0.82382  -0.80546  -0.79141  -0.77414
 Alpha  occ. eigenvalues --   -0.71990  -0.71119  -0.70391  -0.65946  -0.64943
 Alpha  occ. eigenvalues --   -0.64721  -0.62061  -0.61809  -0.60270  -0.58489
 Alpha  occ. eigenvalues --   -0.56106  -0.55175  -0.53578  -0.53281  -0.53027
 Alpha  occ. eigenvalues --   -0.52769  -0.50777  -0.48856  -0.48746  -0.48677
 Alpha  occ. eigenvalues --   -0.47554  -0.46646  -0.46558  -0.44759  -0.44671
 Alpha  occ. eigenvalues --   -0.37222  -0.36315
 Alpha virt. eigenvalues --    0.05103   0.11302   0.16540   0.19648   0.22313
 Alpha virt. eigenvalues --    0.23830   0.25158   0.25537   0.26409   0.27934
 Alpha virt. eigenvalues --    0.28901   0.29491   0.30789   0.31657   0.31973

 Mulliken charges:
               1
     1  C   -0.172077
     2  C   -0.224014
     3  C   -0.170697
     4  C    0.158092
     5  C   -0.170628
     6  C   -0.222745
     7  H    0.236737
     8  H    0.224355
     9  H    0.275426
    10  H    0.275282
    11  H    0.223675
    12  N    0.488047
    13  O   -0.460715
    14  O   -0.460679
    15  C   -0.299525
    16  C   -0.300243
    17  C   -0.476309
    18  H    0.147433
    19  H    0.149540
    20  H    0.153337
    21  H    0.154126
    22  H    0.155710
    23  H    0.154929
    24  H    0.162814
    25  C   -0.297218
    26  C   -0.311150
    27  C   -0.475374
    28  H    0.152020
    29  H    0.153818
    30  H    0.144344
    31  H    0.158152
    32  H    0.161842
    33  H    0.159812
    34  H    0.151882
 Sum of Mulliken charges =  -0.00000

 Dipole moment (field-independent basis, Debye):
    X=              4.9024    Y=              1.3348    Z=              1.8411  Tot=              5.4041
 Quadrupole moment (field-independent basis, Debye-Ang):
   XX=           -125.6669   YY=            -91.7268   ZZ=            -94.3529
   XY=             -6.1559   XZ=             -6.0617   YZ=             -1.2109

 Normal termination of Gaussian 16 at Wed May  5 22:12:01 2021.
