 Gaussian 16, Revision A.03,
 Gaussian 16:  EM64L-G16RevA.03 25-Dec-2016

 -------------
 #p 6-31g* mp2
 -------------

 ------------------------------------------------------
 Input file generated by CHIRIPA (05-May-2021 14:51:10)
 ------------------------------------------------------
 Symbolic Z-matrix:
 Charge =  0 Multiplicity = 1

                         Standard orientation:
 ---------------------------------------------------------------------
 Center     Atomic      Atomic             Coordinates (Angstroms)
 Number     Number       Type             X           Y           Z
 ---------------------------------------------------------------------
      1          6           0       -3.827675   -0.302829   -0.154923
      2          6           0       -5.272682   -0.582637   -0.569225
      3          6           0       -5.602459   -2.075453   -0.592559
      4          1           0       -3.148079   -0.819154   -0.846662
      5          1           0       -3.648595   -0.734431    0.839585
      6          1           0       -5.449385   -0.149435   -1.562064
      7          1           0       -5.948915   -0.065430    0.123467
      8          1           0       -5.453986   -2.518298    0.397615
      9          1           0       -4.951618   -2.602781   -1.297492
     10          1           0       -6.640336   -2.252698   -0.891314
     11          6           0       -3.482796    1.185122   -0.126871
     12          6           0       -2.037789    1.464931    0.287431
     13          6           0       -1.708012    2.957746    0.310764
     14          1           0       -3.661876    1.616724   -1.121379
     15          1           0       -4.162392    1.701447    0.564868
     16          1           0       -1.361556    0.947723   -0.405261
     17          1           0       -1.861086    1.031729    1.280270
     18          1           0       -2.358854    3.485074    1.015698
     19          1           0       -1.856485    3.400592   -0.679410
     20          1           0       -0.670135    3.134992    0.609520
     21          6           0        4.414452   -0.515453    0.179652
     22          6           0        5.154236    0.230811   -0.931111
     23          6           0        6.672290    0.072610   -0.840117
     24          1           0        4.764843   -0.149923    1.154617
     25          1           0        4.676380   -1.581574    0.133014
     26          1           0        4.889915    1.294983   -0.883258
     27          1           0        4.801905   -0.136403   -1.903548
     28          1           0        6.954515   -0.982861   -0.910346
     29          1           0        7.043027    0.456658    0.115740
     30          1           0        7.181238    0.614068   -1.643642
     31          6           0        2.896019   -0.366841    0.102143
     32          6           0        2.156235   -1.113105    1.212906
     33          6           0        0.638182   -0.954903    1.121911
     34          1           0        2.634091    0.699280    0.148780
     35          1           0        2.545628   -0.732371   -0.872823
     36          1           0        2.508566   -0.745891    2.185342
     37          1           0        2.420555   -2.177275    1.165053
     38          1           0        0.267445   -1.338951    0.166054
     39          1           0        0.355955    0.100568    1.192141
     40          1           0        0.129234   -1.496361    1.925437
 ---------------------------------------------------------------------

 SCF Done:  E(RHF) =  -470.732143750     A.U. after   11 cycles
 E2 =    -0.1583290923D+01 EUMP2 =    -0.47231543467257D+03

 The electronic state is 1-A.
 Alpha  occ. eigenvalues --  -11.21594 -11.21567 -11.21535 -11.21480 -11.21389
 Alpha  occ. eigenvalues --  -11.21349 -11.21330 -11.21288 -11.21065 -11.21060
 Alpha  occ. eigenvalues --  -11.21046 -11.20922  -1.08417  -1.08370  -1.03546
 Alpha  occ. eigenvalues --   -1.03443  -0.95981  -0.95913  -0.87026  -0.86906
 Alpha  occ. eigenvalues --   -0.79764  -0.79393  -0.78296  -0.78093  -0.65049
 Alpha  occ. eigenvalues --   -0.65002  -0.60945  -0.60855  -0.59372  -0.59289
 Alpha  occ. eigenvalues --   -0.57706  -0.57425  -0.55248  -0.55204  -0.52704
 Alpha  occ. eigenvalues --   -0.52609  -0.52450  -0.52285  -0.49949  -0.49852
 Alpha  occ. eigenvalues --   -0.48195  -0.47567  -0.46662  -0.46507  -0.45920
 Alpha  occ. eigenvalues --   -0.45725  -0.45615  -0.45406  -0.43755  -0.43728
 Alpha virt. eigenvalues --    0.22005   0.23021   0.23625   0.24859   0.25798
 Alpha virt. eigenvalues --    0.26398   0.26626   0.27436   0.27930   0.29415
 Alpha virt. eigenvalues --    0.30635   0.31367   0.31608   0.31717   0.32353

 Mulliken charges:
               1
     1  C   -0.298136
     2  C   -0.299598
     3  C   -0.475605
     4  H    0.149478
     5  H    0.149852
     6  H    0.151758
     7  H    0.151836
     8  H    0.155168
     9  H    0.155037
    10  H    0.160095
    11  C   -0.297729
    12  C   -0.303487
    13  C   -0.476862
    14  H    0.148932
    15  H    0.149044
    16  H    0.156007
    17  H    0.154443
    18  H    0.155162
    19  H    0.155342
    20  H    0.159058
    21  C   -0.298145
    22  C   -0.299622
    23  C   -0.475691
    24  H    0.149610
    25  H    0.149561
    26  H    0.151870
    27  H    0.151824
    28  H    0.155172
    29  H    0.155174
    30  H    0.160207
    31  C   -0.298162
    32  C   -0.300098
    33  C   -0.478871
    34  H    0.148997
    35  H    0.149169
    36  H    0.151330
    37  H    0.151252
    38  H    0.154193
    39  H    0.163758
    40  H    0.158677
 Sum of Mulliken charges =  -0.00000

 Dipole moment (field-independent basis, Debye):
    X=             -0.0149    Y=              0.0027    Z=              0.0052  Tot=              0.0160
 Quadrupole moment (field-independent basis, Debye-Ang):
   XX=            -86.3053   YY=            -85.3051   ZZ=            -83.4772
   XY=             -0.3012   XZ=             -0.2564   YZ=              0.5118

 Normal termination of Gaussian 16 at Wed May  5 16:42:31 2021.
