 Gaussian 16, Revision A.03,
 Gaussian 16:  EM64L-G16RevA.03 25-Dec-2016

 -------------
 #p 6-31g* mp2
 -------------

 ------------------------------------------------------
 Input file generated by CHIRIPA (05-May-2021 14:53:18)
 ------------------------------------------------------
 Symbolic Z-matrix:
 Charge =  0 Multiplicity = 1

                         Standard orientation:
 ---------------------------------------------------------------------
 Center     Atomic      Atomic             Coordinates (Angstroms)
 Number     Number       Type             X           Y           Z
 ---------------------------------------------------------------------
      1          6           0       -3.682354    0.642562    0.426609
      2          6           0       -3.720850    2.079818   -0.093775
      3          6           0       -4.107531    3.089727    0.987129
      4          1           0       -4.666921    0.381991    0.838525
      5          1           0       -2.968622    0.580641    1.259764
      6          1           0       -4.433272    2.138709   -0.926603
      7          1           0       -2.736132    2.336933   -0.504675
      8          1           0       -3.392243    3.060304    1.815439
      9          1           0       -5.099025    2.860954    1.391113
     10          1           0       -4.128906    4.110715    0.593444
     11          6           0       -3.297330   -0.378653   -0.642319
     12          6           0       -3.258834   -1.815908   -0.121935
     13          6           0       -2.872152   -2.825818   -1.202839
     14          1           0       -4.011061   -0.316731   -1.475474
     15          1           0       -2.312763   -0.118082   -1.054235
     16          1           0       -4.243552   -2.073023    0.288965
     17          1           0       -2.546412   -1.874800    0.710893
     18          1           0       -1.880658   -2.597045   -1.606823
     19          1           0       -3.587441   -2.796394   -2.031149
     20          1           0       -2.850777   -3.846805   -0.809154
     21          6           0        1.336521   -1.855472    1.251827
     22          6           0        2.429192   -1.277886    1.906796
     23          6           0        3.206331   -0.306011    1.269567
     24          6           0        2.860811    0.066325   -0.028614
     25          6           0        1.778211   -0.490637   -0.707630
     26          6           0        1.015085   -1.460700   -0.051000
     27          1           0        0.738264   -2.609744    1.754377
     28          1           0        2.681160   -1.582530    2.918601
     29          1           0        4.057583    0.157463    1.753281
     30          1           0        1.551659   -0.166500   -1.716108
     31          1           0        0.167063   -1.907550   -0.562104
     32          7           0        3.676116    1.094246   -0.713490
     33          8           0        3.350925    1.405007   -1.857307
     34          8           0        4.624905    1.569706   -0.093511
 ---------------------------------------------------------------------

 SCF Done:  E(RHF) =  -669.535536044     A.U. after   15 cycles
 E2 =    -0.2091713314D+01 EUMP2 =    -0.67162724935706D+03

 The electronic state is 1-A.
 Alpha  occ. eigenvalues --  -20.60779 -20.60774 -15.85832 -11.31206 -11.27777
 Alpha  occ. eigenvalues --  -11.27772 -11.27516 -11.26791 -11.26760 -11.22527
 Alpha  occ. eigenvalues --  -11.22162 -11.22089 -11.21936 -11.21861 -11.21312
 Alpha  occ. eigenvalues --   -1.59854  -1.39408  -1.19378  -1.09068  -1.08769
 Alpha  occ. eigenvalues --   -1.04784  -1.04172  -0.96623  -0.95604  -0.87639
 Alpha  occ. eigenvalues --   -0.86179  -0.82438  -0.80249  -0.78825  -0.77487
 Alpha  occ. eigenvalues --   -0.72050  -0.71178  -0.70485  -0.65790  -0.65029
 Alpha  occ. eigenvalues --   -0.64755  -0.62225  -0.61464  -0.60015  -0.58208
 Alpha  occ. eigenvalues --   -0.55945  -0.55268  -0.53317  -0.53111  -0.53077
 Alpha  occ. eigenvalues --   -0.52817  -0.50576  -0.48813  -0.48805  -0.48543
 Alpha  occ. eigenvalues --   -0.47298  -0.46372  -0.46269  -0.44811  -0.44402
 Alpha  occ. eigenvalues --   -0.37357  -0.36382
 Alpha virt. eigenvalues --    0.05041   0.11209   0.16487   0.18901   0.22921
 Alpha virt. eigenvalues --    0.23796   0.25458   0.25991   0.27103   0.28380
 Alpha virt. eigenvalues --    0.28809   0.29926   0.30988   0.31495   0.31983

 Mulliken charges:
               1
     1  C   -0.298650
     2  C   -0.300611
     3  C   -0.476131
     4  H    0.150463
     5  H    0.149850
     6  H    0.152793
     7  H    0.154521
     8  H    0.155729
     9  H    0.154959
    10  H    0.162721
    11  C   -0.298007
    12  C   -0.301824
    13  C   -0.479644
    14  H    0.152711
    15  H    0.146555
    16  H    0.156843
    17  H    0.145974
    18  H    0.147142
    19  H    0.162618
    20  H    0.161937
    21  C   -0.174020
    22  C   -0.218472
    23  C   -0.171088
    24  C    0.158873
    25  C   -0.174034
    26  C   -0.225966
    27  H    0.226485
    28  H    0.223503
    29  H    0.275679
    30  H    0.275847
    31  H    0.235950
    32  N    0.488080
    33  O   -0.460347
    34  O   -0.460439
 Sum of Mulliken charges =  -0.00000

 Dipole moment (field-independent basis, Debye):
    X=             -3.0368    Y=             -3.5621    Z=              2.4185  Tot=              5.2688
 Quadrupole moment (field-independent basis, Debye-Ang):
   XX=           -108.3946   YY=            -96.5043   ZZ=            -92.2264
   XY=            -10.0043   XZ=             10.3607   YZ=              0.0403

 Normal termination of Gaussian 16 at Wed May  5 17:16:29 2021.
