 Gaussian 16, Revision A.03,
 Gaussian 16:  EM64L-G16RevA.03 25-Dec-2016

 -------------
 #p 6-31g* mp2
 -------------

 ------------------------------------------------------
 Input file generated by CHIRIPA (05-May-2021 14:51:07)
 ------------------------------------------------------
 Symbolic Z-matrix:
 Charge =  0 Multiplicity = 1

                         Standard orientation:
 ---------------------------------------------------------------------
 Center     Atomic      Atomic             Coordinates (Angstroms)
 Number     Number       Type             X           Y           Z
 ---------------------------------------------------------------------
      1          6           0       -3.684201    0.052469    0.221730
      2          6           0       -4.158406   -0.851207   -0.916903
      3          6           0       -5.616320   -0.599867   -1.303049
      4          1           0       -4.328999   -0.102987    1.097524
      5          1           0       -3.809716    1.102601   -0.076370
      6          1           0       -4.030744   -1.899322   -0.617280
      7          1           0       -3.512286   -0.693723   -1.790025
      8          1           0       -5.755738    0.436408   -1.627544
      9          1           0       -6.277142   -0.776041   -0.448135
     10          1           0       -5.934507   -1.256531   -2.118776
     11          6           0       -2.228687   -0.186933    0.619089
     12          6           0       -1.754482    0.716743    1.757722
     13          6           0       -0.296568    0.465403    2.143868
     14          1           0       -2.103173   -1.237065    0.917189
     15          1           0       -1.583889   -0.031478   -0.256705
     16          1           0       -2.400603    0.559258    2.630844
     17          1           0       -1.882145    1.764858    1.458099
     18          1           0        0.364254    0.641577    1.288954
     19          1           0       -0.157150   -0.570872    2.468363
     20          1           0        0.021619    1.122066    2.959595
     21          6           0        3.281864   -0.484334   -0.004106
     22          6           0        3.180587   -1.868369   -0.646116
     23          6           0        3.836183   -2.961271    0.198603
     24          1           0        4.340363   -0.238956    0.158111
     25          1           0        2.811959   -0.513089    0.988746
     26          1           0        3.649317   -1.836656   -1.638035
     27          1           0        2.122213   -2.110399   -0.807000
     28          1           0        3.363463   -3.021991    1.184224
     29          1           0        4.899243   -2.746693    0.348468
     30          1           0        3.752171   -3.942453   -0.278981
     31          6           0        2.631024    0.618798   -0.836713
     32          6           0        2.732302    2.002833   -0.194703
     33          6           0        2.076705    3.095735   -1.039422
     34          1           0        3.100929    0.647554   -1.829566
     35          1           0        1.572526    0.373421   -0.998931
     36          1           0        3.790675    2.244864   -0.033819
     37          1           0        2.263571    1.971121    0.797216
     38          1           0        1.013645    2.881157   -1.189287
     39          1           0        2.549426    3.156455   -2.025043
     40          1           0        2.160718    4.076916   -0.561839
 ---------------------------------------------------------------------

 SCF Done:  E(RHF) =  -470.732827407     A.U. after   11 cycles
 E2 =    -0.1583944353D+01 EUMP2 =    -0.47231677176032D+03

 The electronic state is 1-A.
 Alpha  occ. eigenvalues --  -11.21669 -11.21637 -11.21565 -11.21563 -11.21472
 Alpha  occ. eigenvalues --  -11.21406 -11.21395 -11.21311 -11.21123 -11.21096
 Alpha  occ. eigenvalues --  -11.21089 -11.21040  -1.08500  -1.08410  -1.03597
 Alpha  occ. eigenvalues --   -1.03504  -0.96047  -0.95961  -0.87074  -0.86972
 Alpha  occ. eigenvalues --   -0.79664  -0.79568  -0.78304  -0.78224  -0.65306
 Alpha  occ. eigenvalues --   -0.64942  -0.61167  -0.60737  -0.59408  -0.59330
 Alpha  occ. eigenvalues --   -0.57649  -0.57569  -0.55352  -0.55230  -0.52741
 Alpha  occ. eigenvalues --   -0.52660  -0.52451  -0.52385  -0.50130  -0.49779
 Alpha  occ. eigenvalues --   -0.47991  -0.47878  -0.46749  -0.46545  -0.45964
 Alpha  occ. eigenvalues --   -0.45798  -0.45668  -0.45534  -0.43837  -0.43765
 Alpha virt. eigenvalues --    0.19973   0.23057   0.23974   0.25001   0.25503
 Alpha virt. eigenvalues --    0.25986   0.27074   0.27823   0.28465   0.29666
 Alpha virt. eigenvalues --    0.30820   0.31319   0.31699   0.31939   0.32110

 Mulliken charges:
               1
     1  C   -0.298340
     2  C   -0.299755
     3  C   -0.475757
     4  H    0.149963
     5  H    0.149741
     6  H    0.151987
     7  H    0.152052
     8  H    0.155307
     9  H    0.155236
    10  H    0.160421
    11  C   -0.299460
    12  C   -0.299674
    13  C   -0.485389
    14  H    0.149709
    15  H    0.149487
    16  H    0.152327
    17  H    0.152224
    18  H    0.166482
    19  H    0.154930
    20  H    0.160370
    21  C   -0.300745
    22  C   -0.299613
    23  C   -0.475707
    24  H    0.149577
    25  H    0.153343
    26  H    0.151601
    27  H    0.152300
    28  H    0.155301
    29  H    0.155059
    30  H    0.160064
    31  C   -0.301691
    32  C   -0.304521
    33  C   -0.475417
    34  H    0.150595
    35  H    0.149426
    36  H    0.152566
    37  H    0.156277
    38  H    0.153910
    39  H    0.155381
    40  H    0.160432
 Sum of Mulliken charges =  -0.00000

 Dipole moment (field-independent basis, Debye):
    X=             -0.0111    Y=              0.0006    Z=              0.0224  Tot=              0.0250
 Quadrupole moment (field-independent basis, Debye-Ang):
   XX=            -85.1108   YY=            -85.1090   ZZ=            -84.4996
   XY=              0.8339   XZ=             -1.2175   YZ=             -0.0710

 Normal termination of Gaussian 16 at Thu May  6 00:29:40 2021.
