 Gaussian 16, Revision A.03,
 Gaussian 16:  EM64L-G16RevA.03 25-Dec-2016

 -------------
 #p 6-31g* mp2
 -------------

 ------------------------------------------------------
 Input file generated by CHIRIPA (05-May-2021 14:55:24)
 ------------------------------------------------------
 Symbolic Z-matrix:
 Charge =  0 Multiplicity = 1

                         Standard orientation:
 ---------------------------------------------------------------------
 Center     Atomic      Atomic             Coordinates (Angstroms)
 Number     Number       Type             X           Y           Z
 ---------------------------------------------------------------------
      1          6           0       -0.759283    0.284674    2.189165
      2          6           0       -1.837537    1.135235    1.923767
      3          6           0       -2.727620    0.850082    0.884061
      4          6           0       -2.508516   -0.299294    0.126290
      5          6           0       -1.443560   -1.166290    0.366035
      6          6           0       -0.566076   -0.861353    1.410824
      7          1           0       -0.072739    0.513872    2.998808
      8          1           0       -1.990045    2.025954    2.526599
      9          1           0       -3.570605    1.491298    0.656824
     10          1           0       -1.317463   -2.046833   -0.252156
     11          1           0        0.270447   -1.523718    1.614654
     12          7           0       -3.444138   -0.611645   -0.977090
     13          8           0       -3.229215   -1.630469   -1.630116
     14          8           0       -4.374685    0.168273   -1.168002
     15          6           0        3.111682    1.073184   -0.442274
     16          6           0        1.822610    1.833365   -0.755967
     17          6           0        2.035164    3.344672   -0.848510
     18          1           0        3.528067    1.444959    0.503956
     19          1           0        3.856911    1.292680   -1.219353
     20          1           0        1.079576    1.611412    0.020726
     21          1           0        1.409144    1.459604   -1.701464
     22          1           0        2.756882    3.584690   -1.635985
     23          1           0        2.425441    3.737360    0.095990
     24          1           0        1.100873    3.868459   -1.073473
     25          6           0        2.915362   -0.438777   -0.346567
     26          6           0        4.204435   -1.198958   -0.032873
     27          6           0        3.991880   -2.710265    0.059670
     28          1           0        2.170135   -0.658272    0.430512
     29          1           0        2.498978   -0.810551   -1.292797
     30          1           0        4.617901   -0.825197    0.912623
     31          1           0        4.947470   -0.977005   -0.809567
     32          1           0        3.601605   -3.102953   -0.884831
     33          1           0        3.270163   -2.950283    0.847144
     34          1           0        4.926171   -3.234052    0.284631
 ---------------------------------------------------------------------

 SCF Done:  E(RHF) =  -669.534761522     A.U. after   15 cycles
 E2 =    -0.2093663860D+01 EUMP2 =    -0.67162842538271D+03

 The electronic state is 1-A.
 Alpha  occ. eigenvalues --  -20.60809 -20.60803 -15.85862 -11.31256 -11.27825
 Alpha  occ. eigenvalues --  -11.27810 -11.27589 -11.26865 -11.26837 -11.22151
 Alpha  occ. eigenvalues --  -11.21923 -11.21825 -11.21767 -11.21704 -11.21344
 Alpha  occ. eigenvalues --   -1.59883  -1.39436  -1.19439  -1.08922  -1.08811
 Alpha  occ. eigenvalues --   -1.04842  -1.03963  -0.96436  -0.95659  -0.87451
 Alpha  occ. eigenvalues --   -0.86248  -0.82490  -0.80026  -0.78720  -0.77517
 Alpha  occ. eigenvalues --   -0.72082  -0.71205  -0.70546  -0.65619  -0.65090
 Alpha  occ. eigenvalues --   -0.64808  -0.62198  -0.61364  -0.59800  -0.58034
 Alpha  occ. eigenvalues --   -0.55753  -0.55349  -0.53294  -0.53038  -0.52996
 Alpha  occ. eigenvalues --   -0.52802  -0.50388  -0.48847  -0.48833  -0.48334
 Alpha  occ. eigenvalues --   -0.47062  -0.46221  -0.46152  -0.44834  -0.44222
 Alpha  occ. eigenvalues --   -0.37368  -0.36390
 Alpha virt. eigenvalues --    0.04996   0.11096   0.16422   0.19966   0.22888
 Alpha virt. eigenvalues --    0.23453   0.25568   0.26625   0.27479   0.28221
 Alpha virt. eigenvalues --    0.28895   0.29886   0.31314   0.31601   0.31928

 Mulliken charges:
               1
     1  C   -0.173330
     2  C   -0.217997
     3  C   -0.170619
     4  C    0.159126
     5  C   -0.170971
     6  C   -0.214376
     7  H    0.226083
     8  H    0.224066
     9  H    0.275962
    10  H    0.276398
    11  H    0.224728
    12  N    0.488020
    13  O   -0.460085
    14  O   -0.460250
    15  C   -0.297879
    16  C   -0.305764
    17  C   -0.475717
    18  H    0.146314
    19  H    0.151647
    20  H    0.156405
    21  H    0.154650
    22  H    0.156479
    23  H    0.151941
    24  H    0.161360
    25  C   -0.301314
    26  C   -0.299801
    27  C   -0.475290
    28  H    0.143089
    29  H    0.152682
    30  H    0.150573
    31  H    0.155257
    32  H    0.158143
    33  H    0.147114
    34  H    0.163360
 Sum of Mulliken charges =  -0.00000

 Dipole moment (field-independent basis, Debye):
    X=              3.2486    Y=              1.0935    Z=              3.8236  Tot=              5.1350
 Quadrupole moment (field-independent basis, Debye-Ang):
   XX=           -110.3545   YY=            -93.5852   ZZ=            -93.1260
   XY=             -6.4258   XZ=            -10.4995   YZ=              0.2776

 Normal termination of Gaussian 16 at Thu May  6 17:40:54 2021.
