 Gaussian 16, Revision A.03,
 Gaussian 16:  EM64L-G16RevA.03 25-Dec-2016

 -------------
 #p 6-31g* mp2
 -------------

 ------------------------------------------------------
 Input file generated by CHIRIPA (05-May-2021 14:51:12)
 ------------------------------------------------------
 Symbolic Z-matrix:
 Charge =  0 Multiplicity = 1

                         Standard orientation:
 ---------------------------------------------------------------------
 Center     Atomic      Atomic             Coordinates (Angstroms)
 Number     Number       Type             X           Y           Z
 ---------------------------------------------------------------------
      1          6           0        3.470508   -0.131779    0.261780
      2          6           0        4.839054   -0.696025   -0.121226
      3          6           0        5.019710   -2.152002    0.309226
      4          1           0        3.338779   -0.213114    1.349428
      5          1           0        2.685680   -0.750299   -0.195245
      6          1           0        5.621086   -0.075807    0.335253
      7          1           0        4.967619   -0.613162   -1.208065
      8          1           0        4.260781   -2.788572   -0.157043
      9          1           0        4.917961   -2.248164    1.395044
     10          1           0        6.004855   -2.535234    0.025533
     11          6           0        3.274832    1.322862   -0.161846
     12          6           0        1.906286    1.887107    0.221160
     13          6           0        1.725630    3.343084   -0.209291
     14          1           0        4.059660    1.941382    0.295180
     15          1           0        3.406561    1.404196   -1.249493
     16          1           0        1.777721    1.804244    1.308000
     17          1           0        1.124254    1.266890   -0.235318
     18          1           0        1.827379    3.439246   -1.295110
     19          1           0        2.484559    3.979654    0.256977
     20          1           0        0.740485    3.726317    0.074401
     21          6           0       -3.835344    0.004810    0.044604
     22          6           0       -5.317702   -0.369528    0.066224
     23          6           0       -6.230688    0.842156    0.256147
     24          1           0       -3.578923    0.515420    0.982938
     25          1           0       -3.658784    0.728331   -0.763319
     26          1           0       -5.491159   -1.093179    0.872980
     27          1           0       -5.570578   -0.879477   -0.872191
     28          1           0       -6.086847    1.563728   -0.554560
     29          1           0       -6.006976    1.348811    1.200527
     30          1           0       -7.285851    0.551750    0.268604
     31          6           0       -2.909997   -1.195893   -0.144538
     32          6           0       -1.427638   -0.821555   -0.166158
     33          6           0       -0.514652   -2.033239   -0.356082
     34          1           0       -3.086556   -1.919413    0.663385
     35          1           0       -3.166416   -1.706502   -1.082872
     36          1           0       -1.174761   -0.311605    0.772256
     37          1           0       -1.254181   -0.097903   -0.972915
     38          1           0       -0.738363   -2.539893   -1.300462
     39          1           0       -0.658492   -2.754810    0.454625
     40          1           0        0.540511   -1.742833   -0.368538
 ---------------------------------------------------------------------

 SCF Done:  E(RHF) =  -470.733148914     A.U. after   11 cycles
 E2 =    -0.1583444863D+01 EUMP2 =    -0.47231659377688D+03

 The electronic state is 1-A.
 Alpha  occ. eigenvalues --  -11.21610 -11.21605 -11.21601 -11.21554 -11.21411
 Alpha  occ. eigenvalues --  -11.21402 -11.21352 -11.21341 -11.21074 -11.21067
 Alpha  occ. eigenvalues --  -11.21062 -11.21049  -1.08451  -1.08412  -1.03546
 Alpha  occ. eigenvalues --   -1.03507  -0.95998  -0.95960  -0.87022  -0.86968
 Alpha  occ. eigenvalues --   -0.79674  -0.79508  -0.78302  -0.78195  -0.65086
 Alpha  occ. eigenvalues --   -0.65057  -0.60948  -0.60898  -0.59393  -0.59316
 Alpha  occ. eigenvalues --   -0.57648  -0.57544  -0.55272  -0.55263  -0.52757
 Alpha  occ. eigenvalues --   -0.52637  -0.52451  -0.52328  -0.49930  -0.49912
 Alpha  occ. eigenvalues --   -0.48081  -0.47752  -0.46664  -0.46583  -0.45850
 Alpha  occ. eigenvalues --   -0.45754  -0.45704  -0.45612  -0.43782  -0.43743
 Alpha virt. eigenvalues --    0.20914   0.23079   0.23850   0.24103   0.25901
 Alpha virt. eigenvalues --    0.26534   0.26952   0.27398   0.28139   0.29075
 Alpha virt. eigenvalues --    0.30341   0.31234   0.31641   0.31912   0.32394

 Mulliken charges:
               1
     1  C   -0.307019
     2  C   -0.298904
     3  C   -0.475863
     4  H    0.149641
     5  H    0.157162
     6  H    0.152044
     7  H    0.151847
     8  H    0.155368
     9  H    0.155198
    10  H    0.160276
    11  C   -0.297578
    12  C   -0.305893
    13  C   -0.475579
    14  H    0.149564
    15  H    0.149274
    16  H    0.151331
    17  H    0.159513
    18  H    0.154832
    19  H    0.155031
    20  H    0.160404
    21  C   -0.298285
    22  C   -0.299645
    23  C   -0.475707
    24  H    0.149739
    25  H    0.149472
    26  H    0.151958
    27  H    0.151929
    28  H    0.155187
    29  H    0.155190
    30  H    0.160271
    31  C   -0.298542
    32  C   -0.300181
    33  C   -0.484731
    34  H    0.149660
    35  H    0.149556
    36  H    0.153881
    37  H    0.151542
    38  H    0.154884
    39  H    0.155762
    40  H    0.167412
 Sum of Mulliken charges =  -0.00000

 Dipole moment (field-independent basis, Debye):
    X=             -0.0058    Y=             -0.0039    Z=              0.0083  Tot=              0.0109
 Quadrupole moment (field-independent basis, Debye-Ang):
   XX=            -85.3926   YY=            -86.4342   ZZ=            -82.9933
   XY=              0.9808   XZ=              0.4108   YZ=              0.2988

 Normal termination of Gaussian 16 at Wed May  5 21:32:50 2021.
