 Gaussian 16, Revision A.03,
 Gaussian 16:  EM64L-G16RevA.03 25-Dec-2016

 -------------
 #p 6-31g* mp2
 -------------

 ------------------------------------------------------
 Input file generated by CHIRIPA (05-May-2021 14:53:15)
 ------------------------------------------------------
 Symbolic Z-matrix:
 Charge =  0 Multiplicity = 1

                         Standard orientation:
 ---------------------------------------------------------------------
 Center     Atomic      Atomic             Coordinates (Angstroms)
 Number     Number       Type             X           Y           Z
 ---------------------------------------------------------------------
      1          6           0        3.938805   -0.285223    0.231314
      2          6           0        5.442425   -0.562828    0.224458
      3          6           0        5.779973   -2.000395    0.621015
      4          1           0        3.538306   -0.494529    1.232682
      5          1           0        3.441076   -0.982789   -0.456481
      6          1           0        5.937334    0.135969    0.911018
      7          1           0        5.839426   -0.352653   -0.776958
      8          1           0        5.312665   -2.710241   -0.069161
      9          1           0        5.411130   -2.218843    1.628405
     10          1           0        6.860042   -2.176967    0.609479
     11          6           0        3.585512    1.147755   -0.163001
     12          6           0        2.081892    1.425360   -0.156144
     13          6           0        1.744345    2.862927   -0.552701
     14          1           0        4.083242    1.845321    0.524795
     15          1           0        3.986011    1.357062   -1.164368
     16          1           0        1.684892    1.215185    0.845272
     17          1           0        1.586984    0.726563   -0.842704
     18          1           0        2.113187    3.081375   -1.560092
     19          1           0        2.211652    3.572773    0.137475
     20          1           0        0.664276    3.039499   -0.541166
     21          6           0       -3.493605    2.069227    0.491939
     22          6           0       -2.342219    1.758013   -0.238800
     23          6           0       -2.025139    0.428330   -0.531977
     24          6           0       -2.885588   -0.569545   -0.076824
     25          6           0       -4.040046   -0.291425    0.653357
     26          6           0       -4.337356    1.045319    0.934904
     27          1           0       -3.732241    3.104899    0.715169
     28          1           0       -1.685119    2.551133   -0.584090
     29          1           0       -1.140221    0.159207   -1.095811
     30          1           0       -4.675781   -1.103750    0.984096
     31          1           0       -5.232212    1.284057    1.502602
     32          7           0       -2.560374   -1.980958   -0.381041
     33          8           0       -3.334720   -2.841764    0.031317
     34          8           0       -1.537284   -2.199693   -1.026082
 ---------------------------------------------------------------------

 SCF Done:  E(RHF) =  -669.535420386     A.U. after   15 cycles
 E2 =    -0.2091584236D+01 EUMP2 =    -0.67162700462169D+03

 The electronic state is 1-A.
 Alpha  occ. eigenvalues --  -20.60746 -20.60741 -15.85800 -11.31154 -11.27734
 Alpha  occ. eigenvalues --  -11.27716 -11.27474 -11.26746 -11.26722 -11.22091
 Alpha  occ. eigenvalues --  -11.21835 -11.21633 -11.21571 -11.21375 -11.20942
 Alpha  occ. eigenvalues --   -1.59821  -1.39375  -1.19331  -1.08729  -1.08623
 Alpha  occ. eigenvalues --   -1.04736  -1.03778  -0.96233  -0.95563  -0.87253
 Alpha  occ. eigenvalues --   -0.86132  -0.82398  -0.79857  -0.78377  -0.77446
 Alpha  occ. eigenvalues --   -0.72019  -0.71144  -0.70442  -0.65249  -0.64985
 Alpha  occ. eigenvalues --   -0.64763  -0.62155  -0.61158  -0.59630  -0.57823
 Alpha  occ. eigenvalues --   -0.55496  -0.55234  -0.53157  -0.53048  -0.52811
 Alpha  occ. eigenvalues --   -0.52495  -0.50148  -0.48777  -0.48773  -0.48155
 Alpha  occ. eigenvalues --   -0.46871  -0.45928  -0.45814  -0.44783  -0.44015
 Alpha  occ. eigenvalues --   -0.37314  -0.36329
 Alpha virt. eigenvalues --    0.05078   0.11296   0.16513   0.19493   0.22927
 Alpha virt. eigenvalues --    0.23947   0.25472   0.26090   0.26884   0.28240
 Alpha virt. eigenvalues --    0.29177   0.29313   0.31300   0.31596   0.32499

 Mulliken charges:
               1
     1  C   -0.299819
     2  C   -0.300011
     3  C   -0.476113
     4  H    0.150832
     5  H    0.155193
     6  H    0.150816
     7  H    0.151850
     8  H    0.158060
     9  H    0.155783
    10  H    0.159926
    11  C   -0.298594
    12  C   -0.303235
    13  C   -0.478693
    14  H    0.149714
    15  H    0.150497
    16  H    0.155103
    17  H    0.152725
    18  H    0.158588
    19  H    0.159088
    20  H    0.148518
    21  C   -0.171492
    22  C   -0.223765
    23  C   -0.173994
    24  C    0.158253
    25  C   -0.170639
    26  C   -0.218739
    27  H    0.225885
    28  H    0.229683
    29  H    0.279117
    30  H    0.275483
    31  H    0.223277
    32  N    0.487971
    33  O   -0.460594
    34  O   -0.460673
 Sum of Mulliken charges =  -0.00000

 Dipole moment (field-independent basis, Debye):
    X=             -1.0092    Y=              4.8982    Z=              1.0979  Tot=              5.1201
 Quadrupole moment (field-independent basis, Debye-Ang):
   XX=            -84.7147   YY=           -101.6423   ZZ=            -93.5292
   XY=            -12.1426   XZ=             -5.4976   YZ=             -1.1833

 Normal termination of Gaussian 16 at Thu May  6 17:10:27 2021.
