 Gaussian 16, Revision A.03,
 Gaussian 16:  EM64L-G16RevA.03 25-Dec-2016

 -------------
 #p 6-31g* mp2
 -------------

 ------------------------------------------------------
 Input file generated by CHIRIPA (05-May-2021 14:57:22)
 ------------------------------------------------------
 Symbolic Z-matrix:
 Charge =  0 Multiplicity = 1

                         Standard orientation:
 ---------------------------------------------------------------------
 Center     Atomic      Atomic             Coordinates (Angstroms)
 Number     Number       Type             X           Y           Z
 ---------------------------------------------------------------------
      1          6           0       -1.202160   -1.540035    0.390982
      2          6           0       -1.278728   -0.705914   -0.729242
      3          6           0       -2.454597   -0.005219   -1.013679
      4          6           0       -3.539603   -0.162705   -0.152720
      5          6           0       -3.494323   -0.986207    0.971150
      6          6           0       -2.308251   -1.677277    1.236113
      7          1           0       -0.284753   -2.080613    0.604375
      8          1           0       -0.421297   -0.597411   -1.387333
      9          1           0       -2.541233    0.647193   -1.874069
     10          1           0       -4.365641   -1.074148    1.608715
     11          1           0       -2.251655   -2.324368    2.106811
     12          7           0       -4.789843    0.573995   -0.443532
     13          8           0       -5.731729    0.418178    0.330554
     14          8           0       -4.804222    1.293287   -1.440050
     15          6           0        2.329299    2.433048    0.964746
     16          6           0        1.802312    1.202527    1.370485
     17          6           0        2.350769    0.005554    0.900382
     18          6           0        3.430635    0.076372    0.021653
     19          6           0        3.977944    1.286775   -0.401037
     20          6           0        3.413522    2.471177    0.081836
     21          1           0        1.897044    3.358004    1.334894
     22          1           0        0.960325    1.169879    2.056077
     23          1           0        1.962432   -0.960835    1.198218
     24          1           0        4.817640    1.287326   -1.085382
     25          1           0        3.824846    3.425373   -0.234971
     26          7           0        4.019712   -1.184157   -0.482785
     27          8           0        4.970771   -1.094755   -1.256175
     28          8           0        3.519218   -2.237692   -0.095220
 ---------------------------------------------------------------------

 SCF Done:  E(RHF) =  -868.338077875     A.U. after   16 cycles
 E2 =    -0.2600483966D+01 EUMP2 =    -0.87093856184109D+03

 The electronic state is 1-A.
 Alpha  occ. eigenvalues --  -20.61625 -20.61586 -20.61060 -20.61055 -15.86657
 Alpha  occ. eigenvalues --  -15.86112 -11.31997 -11.31517 -11.28601 -11.28471
 Alpha  occ. eigenvalues --  -11.28167 -11.28068 -11.28041 -11.27801 -11.27509
 Alpha  occ. eigenvalues --  -11.27470 -11.27111 -11.27053  -1.60682  -1.60135
 Alpha  occ. eigenvalues --   -1.40239  -1.39687  -1.20135  -1.19681  -1.09514
 Alpha  occ. eigenvalues --   -1.09074  -1.05524  -1.05073  -0.96369  -0.95900
 Alpha  occ. eigenvalues --   -0.86915  -0.86464  -0.83196  -0.82722  -0.78276
 Alpha  occ. eigenvalues --   -0.77762  -0.72869  -0.72327  -0.72012  -0.71461
 Alpha  occ. eigenvalues --   -0.71281  -0.70729  -0.65769  -0.65503  -0.65319
 Alpha  occ. eigenvalues --   -0.65049  -0.62880  -0.62405  -0.56005  -0.55549
 Alpha  occ. eigenvalues --   -0.53898  -0.53575  -0.53386  -0.53139  -0.49642
 Alpha  occ. eigenvalues --   -0.49612  -0.49088  -0.49082  -0.45649  -0.45083
 Alpha  occ. eigenvalues --   -0.38082  -0.37814  -0.37081  -0.36583
 Alpha virt. eigenvalues --    0.04203   0.04753   0.10469   0.10960   0.15784
 Alpha virt. eigenvalues --    0.16137   0.19666   0.21645   0.25239   0.27040
 Alpha virt. eigenvalues --    0.27166   0.28957   0.30076   0.30941   0.32168

 Mulliken charges:
               1
     1  C   -0.181452
     2  C   -0.217369
     3  C   -0.172702
     4  C    0.158512
     5  C   -0.171886
     6  C   -0.220357
     7  H    0.231685
     8  H    0.228219
     9  H    0.276257
    10  H    0.276179
    11  H    0.224716
    12  N    0.487886
    13  O   -0.459828
    14  O   -0.459888
    15  C   -0.171318
    16  C   -0.216222
    17  C   -0.178455
    18  C    0.157768
    19  C   -0.171295
    20  C   -0.217897
    21  H    0.229861
    22  H    0.227500
    23  H    0.269011
    24  H    0.277620
    25  H    0.226883
    26  N    0.488004
    27  O   -0.455989
    28  O   -0.465442
 Sum of Mulliken charges =  -0.00000

 Dipole moment (field-independent basis, Debye):
    X=              2.4158    Y=              2.0314    Z=              2.7528  Tot=              4.1881
 Quadrupole moment (field-independent basis, Debye-Ang):
   XX=           -147.6630   YY=           -101.8047   ZZ=           -101.0839
   XY=             27.1859   XZ=             -2.3577   YZ=             -2.8645

 Normal termination of Gaussian 16 at Wed May  5 22:37:02 2021.
