 Gaussian 16, Revision A.03,
 Gaussian 16:  EM64L-G16RevA.03 25-Dec-2016

 -------------
 #p 6-31g* mp2
 -------------

 ------------------------------------------------------
 Input file generated by CHIRIPA (05-May-2021 14:53:13)
 ------------------------------------------------------
 Symbolic Z-matrix:
 Charge =  0 Multiplicity = 1

                         Standard orientation:
 ---------------------------------------------------------------------
 Center     Atomic      Atomic             Coordinates (Angstroms)
 Number     Number       Type             X           Y           Z
 ---------------------------------------------------------------------
      1          6           0       -4.817945    0.054060    0.465149
      2          6           0       -5.548906    0.871627   -0.600340
      3          6           0       -7.025047    1.091011   -0.267662
      4          1           0       -5.317803   -0.917524    0.579653
      5          1           0       -4.904354    0.566077    1.433533
      6          1           0       -5.459966    0.358923   -1.566694
      7          1           0       -5.047135    1.841302   -0.712457
      8          1           0       -7.130674    1.623203    0.683240
      9          1           0       -7.545851    0.132400   -0.175851
     10          1           0       -7.528320    1.677684   -1.042511
     11          6           0       -3.341301   -0.173690    0.146746
     12          6           0       -2.610340   -0.991256    1.212234
     13          6           0       -1.134199   -1.210641    0.879557
     14          1           0       -3.254892   -0.685707   -0.821638
     15          1           0       -2.841443    0.797894    0.032242
     16          1           0       -3.112111   -1.960932    1.324351
     17          1           0       -2.699280   -0.478553    2.178589
     18          1           0       -0.613395   -0.252030    0.787745
     19          1           0       -1.028571   -1.742833   -0.071346
     20          1           0       -0.630926   -1.797314    1.654406
     21          6           0        4.644229    1.923528    0.609882
     22          6           0        3.577778    2.200198   -0.251894
     23          6           0        2.763901    1.168194   -0.728464
     24          6           0        3.046346   -0.134712   -0.321091
     25          6           0        4.101457   -0.442342    0.536461
     26          6           0        4.902210    0.605465    1.000620
     27          1           0        5.271371    2.731352    0.975272
     28          1           0        3.375077    3.222869   -0.557018
     29          1           0        1.931743    1.354167   -1.396555
     30          1           0        4.278754   -1.471843    0.823011
     31          1           0        5.729744    0.387642    1.669789
     32          7           0        2.191677   -1.235613   -0.819044
     33          8           0        2.461420   -2.374988   -0.445278
     34          8           0        1.268229   -0.938279   -1.573678
 ---------------------------------------------------------------------

 SCF Done:  E(RHF) =  -669.535781462     A.U. after   15 cycles
 E2 =    -0.2091768673D+01 EUMP2 =    -0.67162755013505D+03

 The electronic state is 1-A.
 Alpha  occ. eigenvalues --  -20.60827 -20.60810 -15.85844 -11.31220 -11.27786
 Alpha  occ. eigenvalues --  -11.27779 -11.27530 -11.26804 -11.26794 -11.21188
 Alpha  occ. eigenvalues --  -11.20867 -11.20798 -11.20741 -11.20677 -11.19886
 Alpha  occ. eigenvalues --   -1.59874  -1.39432  -1.19388  -1.08784  -1.07818
 Alpha  occ. eigenvalues --   -1.04792  -1.02872  -0.95625  -0.95300  -0.86320
 Alpha  occ. eigenvalues --   -0.86190  -0.82456  -0.78963  -0.77619  -0.77497
 Alpha  occ. eigenvalues --   -0.72078  -0.71176  -0.70498  -0.65044  -0.64797
 Alpha  occ. eigenvalues --   -0.64456  -0.62140  -0.60272  -0.58712  -0.56911
 Alpha  occ. eigenvalues --   -0.55297  -0.54586  -0.53121  -0.52885  -0.52004
 Alpha  occ. eigenvalues --   -0.51724  -0.49303  -0.48831  -0.48781  -0.47280
 Alpha  occ. eigenvalues --   -0.45990  -0.45259  -0.45072  -0.44621  -0.43140
 Alpha  occ. eigenvalues --   -0.37364  -0.36395
 Alpha virt. eigenvalues --    0.05018   0.11236   0.16485   0.21378   0.23436
 Alpha virt. eigenvalues --    0.24978   0.27140   0.27353   0.27980   0.28219
 Alpha virt. eigenvalues --    0.28777   0.30919   0.31875   0.32350   0.32544

 Mulliken charges:
               1
     1  C   -0.297825
     2  C   -0.299067
     3  C   -0.475321
     4  H    0.149391
     5  H    0.147133
     6  H    0.152872
     7  H    0.149960
     8  H    0.153899
     9  H    0.155153
    10  H    0.158853
    11  C   -0.297006
    12  C   -0.300573
    13  C   -0.479135
    14  H    0.154009
    15  H    0.146032
    16  H    0.150917
    17  H    0.146124
    18  H    0.144962
    19  H    0.178606
    20  H    0.156629
    21  C   -0.170763
    22  C   -0.218556
    23  C   -0.171566
    24  C    0.159374
    25  C   -0.170882
    26  C   -0.218535
    27  H    0.225673
    28  H    0.223506
    29  H    0.275837
    30  H    0.275716
    31  H    0.223554
    32  N    0.489666
    33  O   -0.460055
    34  O   -0.458582
 Sum of Mulliken charges =  -0.00000

 Dipole moment (field-independent basis, Debye):
    X=              3.1922    Y=              3.7686    Z=              1.6187  Tot=              5.1974
 Quadrupole moment (field-independent basis, Debye-Ang):
   XX=            -77.1786   YY=            -93.1709   ZZ=            -95.1739
   XY=             10.2610   XZ=              6.6893   YZ=             -2.9132

 Normal termination of Gaussian 16 at Thu May  6 05:45:18 2021.
