 Gaussian 16, Revision A.03,
 Gaussian 16:  EM64L-G16RevA.03 25-Dec-2016

 -------------
 #p 6-31g* mp2
 -------------

 ------------------------------------------------------
 Input file generated by CHIRIPA (05-May-2021 14:53:16)
 ------------------------------------------------------
 Symbolic Z-matrix:
 Charge =  0 Multiplicity = 1

                         Standard orientation:
 ---------------------------------------------------------------------
 Center     Atomic      Atomic             Coordinates (Angstroms)
 Number     Number       Type             X           Y           Z
 ---------------------------------------------------------------------
      1          6           0        3.485788   -0.412396    0.301291
      2          6           0        2.857241   -1.779894    0.031361
      3          6           0        1.447948   -1.907443    0.610514
      4          1           0        3.516146   -0.237457    1.385459
      5          1           0        2.841568    0.369800   -0.123615
      6          1           0        3.503154   -2.559360    0.455443
      7          1           0        2.828551   -1.951680   -1.052283
      8          1           0        0.784301   -1.151018    0.179243
      9          1           0        1.462737   -1.762150    1.695535
     10          1           0        1.017512   -2.892713    0.405996
     11          6           0        4.894751   -0.269549   -0.271548
     12          6           0        5.523299    1.097949   -0.001617
     13          6           0        6.932592    1.225498   -0.580770
     14          1           0        5.538971   -1.051744    0.153359
     15          1           0        4.864394   -0.444488   -1.355716
     16          1           0        5.551988    1.269735    1.082026
     17          1           0        4.877386    1.877415   -0.425700
     18          1           0        6.917803    1.080205   -1.665792
     19          1           0        7.596239    0.469073   -0.149500
     20          1           0        7.363028    2.210769   -0.376253
     21          6           0       -2.925148    2.750177    0.262696
     22          6           0       -1.923374    1.855431    0.653081
     23          6           0       -2.105588    0.477161    0.505710
     24          6           0       -3.307339    0.026261   -0.038138
     25          6           0       -4.324280    0.892527   -0.436516
     26          6           0       -4.120297    2.266721   -0.279901
     27          1           0       -2.775144    3.819266    0.380767
     28          1           0       -0.994189    2.228043    1.074768
     29          1           0       -1.346679   -0.237749    0.799615
     30          1           0       -5.239822    0.491094   -0.853712
     31          1           0       -4.900031    2.959262   -0.583951
     32          7           0       -3.511765   -1.430694   -0.199047
     33          8           0       -4.579557   -1.802614   -0.680848
     34          8           0       -2.600331   -2.173149    0.159683
 ---------------------------------------------------------------------

 SCF Done:  E(RHF) =  -669.535549073     A.U. after   15 cycles
 E2 =    -0.2091124209D+01 EUMP2 =    -0.67162667328224D+03

 The electronic state is 1-A.
 Alpha  occ. eigenvalues --  -20.60730 -20.60723 -15.85780 -11.31148 -11.27728
 Alpha  occ. eigenvalues --  -11.27680 -11.27475 -11.26749 -11.26732 -11.21797
 Alpha  occ. eigenvalues --  -11.21633 -11.21570 -11.21507 -11.21227 -11.21047
 Alpha  occ. eigenvalues --   -1.59804  -1.39356  -1.19326  -1.08723  -1.08570
 Alpha  occ. eigenvalues --   -1.04731  -1.03632  -0.96081  -0.95554  -0.87098
 Alpha  occ. eigenvalues --   -0.86126  -0.82385  -0.79704  -0.78402  -0.77425
 Alpha  occ. eigenvalues --   -0.71999  -0.71127  -0.70442  -0.65205  -0.64979
 Alpha  occ. eigenvalues --   -0.64738  -0.62108  -0.61016  -0.59426  -0.57691
 Alpha  occ. eigenvalues --   -0.55424  -0.55201  -0.53063  -0.52915  -0.52705
 Alpha  occ. eigenvalues --   -0.52433  -0.50029  -0.48761  -0.48750  -0.48013
 Alpha  occ. eigenvalues --   -0.46739  -0.45934  -0.45865  -0.44758  -0.43870
 Alpha  occ. eigenvalues --   -0.37313  -0.36333
 Alpha virt. eigenvalues --    0.05079   0.11280   0.16585   0.20942   0.22773
 Alpha virt. eigenvalues --    0.24135   0.25743   0.26621   0.27418   0.27850
 Alpha virt. eigenvalues --    0.29270   0.30613   0.31371   0.31639   0.32090

 Mulliken charges:
               1
     1  C   -0.297956
     2  C   -0.300637
     3  C   -0.477369
     4  H    0.148072
     5  H    0.144672
     6  H    0.153562
     7  H    0.154224
     8  H    0.147265
     9  H    0.151985
    10  H    0.175264
    11  C   -0.298204
    12  C   -0.299460
    13  C   -0.475739
    14  H    0.150872
    15  H    0.150766
    16  H    0.151274
    17  H    0.149957
    18  H    0.155768
    19  H    0.156054
    20  H    0.159905
    21  C   -0.170637
    22  C   -0.221359
    23  C   -0.178826
    24  C    0.157505
    25  C   -0.170488
    26  C   -0.218797
    27  H    0.225436
    28  H    0.223888
    29  H    0.288057
    30  H    0.275459
    31  H    0.223287
    32  N    0.487313
    33  O   -0.460714
    34  O   -0.460401
 Sum of Mulliken charges =  -0.00000

 Dipole moment (field-independent basis, Debye):
    X=              0.7600    Y=              5.0004    Z=              0.5487  Tot=              5.0875
 Quadrupole moment (field-independent basis, Debye-Ang):
   XX=            -96.4347   YY=            -94.4880   ZZ=            -94.2376
   XY=            -18.6689   XZ=              0.7559   YZ=             -0.7770

 Normal termination of Gaussian 16 at Thu May  6 17:11:55 2021.
