 Gaussian 16, Revision A.03,
 Gaussian 16:  EM64L-G16RevA.03 25-Dec-2016

 -------------
 #p 6-31g* mp2
 -------------

 ------------------------------------------------------
 Input file generated by CHIRIPA (05-May-2021 14:57:24)
 ------------------------------------------------------
 Symbolic Z-matrix:
 Charge =  0 Multiplicity = 1

                         Standard orientation:
 ---------------------------------------------------------------------
 Center     Atomic      Atomic             Coordinates (Angstroms)
 Number     Number       Type             X           Y           Z
 ---------------------------------------------------------------------
      1          6           0        1.802700    1.854655    1.275983
      2          6           0        1.677357    0.475124    1.470165
      3          6           0        2.557849   -0.412787    0.844949
      4          6           0        3.556580    0.115678    0.028524
      5          6           0        3.707212    1.485036   -0.184685
      6          6           0        2.815443    2.354327    0.450634
      7          1           0        1.114333    2.537173    1.765590
      8          1           0        0.891800    0.084240    2.110597
      9          1           0        2.483532   -1.485275    0.977859
     10          1           0        4.500322    1.844839   -0.828841
     11          1           0        2.915167    3.425216    0.298004
     12          7           0        4.494687   -0.814458   -0.638711
     13          8           0        5.366105   -0.323677   -1.353136
     14          8           0        4.340794   -2.016666   -0.434632
     15          6           0       -1.250265   -1.517253    0.283283
     16          6           0       -2.471547   -2.074988    0.675613
     17          6           0       -3.669960   -1.392294    0.446961
     18          6           0       -3.609988   -0.148297   -0.179268
     19          6           0       -2.408956    0.433734   -0.581827
     20          6           0       -1.222916   -0.266877   -0.343079
     21          1           0       -0.324114   -2.054545    0.464827
     22          1           0       -2.495814   -3.045882    1.162255
     23          1           0       -4.629345   -1.800829    0.740390
     24          1           0       -2.416658    1.403308   -1.064825
     25          1           0       -0.275909    0.168705   -0.648848
     26          7           0       -4.872145    0.583925   -0.426676
     27          8           0       -4.792384    1.678420   -0.980167
     28          8           0       -5.917287    0.049478   -0.062418
 ---------------------------------------------------------------------

 SCF Done:  E(RHF) =  -868.336648646     A.U. after   16 cycles
 E2 =    -0.2602480533D+01 EUMP2 =    -0.87093912917895D+03

 The electronic state is 1-A.
 Alpha  occ. eigenvalues --  -20.61623 -20.61607 -20.61167 -20.61160 -15.86675
 Alpha  occ. eigenvalues --  -15.86216 -11.32214 -11.31650 -11.28809 -11.28689
 Alpha  occ. eigenvalues --  -11.28426 -11.28176 -11.28164 -11.27956 -11.27781
 Alpha  occ. eigenvalues --  -11.27737 -11.27249 -11.27117  -1.60690  -1.60239
 Alpha  occ. eigenvalues --   -1.40239  -1.39791  -1.20383  -1.19808  -1.09723
 Alpha  occ. eigenvalues --   -1.09204  -1.05809  -1.05192  -0.96530  -0.96032
 Alpha  occ. eigenvalues --   -0.87171  -0.86584  -0.83361  -0.82844  -0.78406
 Alpha  occ. eigenvalues --   -0.77875  -0.72883  -0.72433  -0.72020  -0.71564
 Alpha  occ. eigenvalues --   -0.71434  -0.70930  -0.65999  -0.65777  -0.65439
 Alpha  occ. eigenvalues --   -0.65192  -0.63115  -0.62544  -0.56211  -0.55726
 Alpha  occ. eigenvalues --   -0.54275  -0.53912  -0.53457  -0.53123  -0.49655
 Alpha  occ. eigenvalues --   -0.49634  -0.49195  -0.49186  -0.45608  -0.45181
 Alpha  occ. eigenvalues --   -0.38444  -0.37911  -0.37344  -0.36641
 Alpha virt. eigenvalues --    0.04069   0.04619   0.09821   0.11229   0.15509
 Alpha virt. eigenvalues --    0.16057   0.19545   0.21561   0.24961   0.26996
 Alpha virt. eigenvalues --    0.27104   0.29125   0.30125   0.30626   0.32125

 Mulliken charges:
               1
     1  C   -0.174899
     2  C   -0.223198
     3  C   -0.181730
     4  C    0.160876
     5  C   -0.171164
     6  C   -0.218247
     7  H    0.231630
     8  H    0.229109
     9  H    0.272441
    10  H    0.279183
    11  H    0.228449
    12  N    0.488121
    13  O   -0.456319
    14  O   -0.460465
    15  C   -0.179112
    16  C   -0.218188
    17  C   -0.171686
    18  C    0.159630
    19  C   -0.174593
    20  C   -0.221669
    21  H    0.223288
    22  H    0.225321
    23  H    0.276884
    24  H    0.275078
    25  H    0.232530
    26  N    0.487877
    27  O   -0.460237
    28  O   -0.458914
 Sum of Mulliken charges =  -0.00000

 Dipole moment (field-independent basis, Debye):
    X=              1.2835    Y=              0.8638    Z=              3.2040  Tot=              3.5580
 Quadrupole moment (field-independent basis, Debye-Ang):
   XX=           -158.1588   YY=            -97.6490   ZZ=           -104.4448
   XY=             24.8448   XZ=              1.8690   YZ=             -2.8481

 Normal termination of Gaussian 16 at Thu May  6 17:59:38 2021.
