 Gaussian 16, Revision A.03,
 Gaussian 16:  EM64L-G16RevA.03 25-Dec-2016

 -------------
 #p 6-31g* mp2
 -------------

 ------------------------------------------------------
 Input file generated by CHIRIPA (05-May-2021 14:53:11)
 ------------------------------------------------------
 Symbolic Z-matrix:
 Charge =  0 Multiplicity = 1

                         Standard orientation:
 ---------------------------------------------------------------------
 Center     Atomic      Atomic             Coordinates (Angstroms)
 Number     Number       Type             X           Y           Z
 ---------------------------------------------------------------------
      1          6           0        3.976375   -0.520699   -0.039744
      2          6           0        4.357028    0.960208   -0.041818
      3          6           0        5.842902    1.189037    0.236766
      4          1           0        4.240435   -0.959254    0.932308
      5          1           0        4.577177   -1.047601   -0.793936
      6          1           0        3.754701    1.484411    0.711196
      7          1           0        4.091855    1.395334   -1.013911
      8          1           0        6.457842    0.691698   -0.520270
      9          1           0        6.118771    0.781282    1.214638
     10          1           0        6.093076    2.254511    0.230644
     11          6           0        2.494147   -0.765601   -0.316785
     12          6           0        2.113495   -2.246507   -0.314712
     13          6           0        0.627620   -2.475336   -0.593296
     14          1           0        1.893345   -0.238698    0.437407
     15          1           0        2.230088   -0.327045   -1.288838
     16          1           0        2.378667   -2.681633    0.657381
     17          1           0        2.715822   -2.770711   -1.067725
     18          1           0        0.351751   -2.067581   -1.571168
     19          1           0        0.012680   -1.977998    0.163741
     20          1           0        0.377446   -3.540811   -0.587173
     21          6           0       -3.552875   -1.792762    0.355092
     22          6           0       -4.025120   -0.903617   -0.615952
     23          6           0       -3.464500    0.370633   -0.744565
     24          6           0       -2.428423    0.724354    0.118404
     25          6           0       -1.936082   -0.139092    1.095826
     26          6           0       -2.511699   -1.408339    1.206381
     27          1           0       -3.994204   -2.780687    0.447988
     28          1           0       -4.833593   -1.199455   -1.278444
     29          1           0       -3.810832    1.078773   -1.487538
     30          1           0       -1.128915    0.184359    1.741797
     31          1           0       -2.142928   -2.096787    1.961426
     32          7           0       -1.826981    2.070698   -0.008194
     33          8           0       -0.915243    2.358228    0.764268
     34          8           0       -2.278697    2.812938   -0.877486
 ---------------------------------------------------------------------

 SCF Done:  E(RHF) =  -669.534236553     A.U. after   15 cycles
 E2 =    -0.2093180807D+01 EUMP2 =    -0.67162741735987D+03

 The electronic state is 1-A.
 Alpha  occ. eigenvalues --  -20.60804 -20.60799 -15.85855 -11.31226 -11.27790
 Alpha  occ. eigenvalues --  -11.27780 -11.27519 -11.26808 -11.26795 -11.21601
 Alpha  occ. eigenvalues --  -11.21228 -11.21200 -11.21132 -11.21097 -11.20743
 Alpha  occ. eigenvalues --   -1.59875  -1.39429  -1.19404  -1.08789  -1.08249
 Alpha  occ. eigenvalues --   -1.04827  -1.03366  -0.95835  -0.95624  -0.86859
 Alpha  occ. eigenvalues --   -0.86203  -0.82469  -0.79434  -0.78035  -0.77508
 Alpha  occ. eigenvalues --   -0.72075  -0.71195  -0.70505  -0.65064  -0.64889
 Alpha  occ. eigenvalues --   -0.64815  -0.62172  -0.60782  -0.59214  -0.57452
 Alpha  occ. eigenvalues --   -0.55300  -0.55205  -0.53292  -0.52905  -0.52517
 Alpha  occ. eigenvalues --   -0.52106  -0.49769  -0.48833  -0.48828  -0.47732
 Alpha  occ. eigenvalues --   -0.46472  -0.45583  -0.45500  -0.44818  -0.43620
 Alpha  occ. eigenvalues --   -0.37368  -0.36281
 Alpha virt. eigenvalues --    0.04998   0.11171   0.16426   0.20898   0.23057
 Alpha virt. eigenvalues --    0.24424   0.26111   0.27260   0.27515   0.28387
 Alpha virt. eigenvalues --    0.28922   0.30728   0.31656   0.31852   0.32134

 Mulliken charges:
               1
     1  C   -0.298268
     2  C   -0.300496
     3  C   -0.475837
     4  H    0.147476
     5  H    0.148392
     6  H    0.157445
     7  H    0.154087
     8  H    0.153603
     9  H    0.153611
    10  H    0.161589
    11  C   -0.299069
    12  C   -0.299415
    13  C   -0.479252
    14  H    0.151126
    15  H    0.152140
    16  H    0.148394
    17  H    0.151798
    18  H    0.156523
    19  H    0.156737
    20  H    0.154486
    21  C   -0.169929
    22  C   -0.218147
    23  C   -0.171424
    24  C    0.160642
    25  C   -0.172453
    26  C   -0.216646
    27  H    0.225955
    28  H    0.223666
    29  H    0.275663
    30  H    0.275796
    31  H    0.224501
    32  N    0.488269
    33  O   -0.460800
    34  O   -0.460161
 Sum of Mulliken charges =  -0.00000

 Dipole moment (field-independent basis, Debye):
    X=             -2.2167    Y=             -4.6260    Z=              0.4288  Tot=              5.1476
 Quadrupole moment (field-independent basis, Debye-Ang):
   XX=            -84.0362   YY=           -102.5094   ZZ=            -91.2025
   XY=              9.4912   XZ=              0.9787   YZ=             -1.2256

 Normal termination of Gaussian 16 at Thu May  6 02:27:48 2021.
