 Gaussian 16, Revision A.03,
 Gaussian 16:  EM64L-G16RevA.03 25-Dec-2016

 -------------
 #p 6-31g* mp2
 -------------

 ------------------------------------------------------
 Input file generated by CHIRIPA (05-May-2021 14:55:22)
 ------------------------------------------------------
 Symbolic Z-matrix:
 Charge =  0 Multiplicity = 1

                         Standard orientation:
 ---------------------------------------------------------------------
 Center     Atomic      Atomic             Coordinates (Angstroms)
 Number     Number       Type             X           Y           Z
 ---------------------------------------------------------------------
      1          6           0        5.715185    1.534007   -0.296149
      2          6           0        5.850184    0.216968   -0.747485
      3          6           0        4.778603   -0.676733   -0.660531
      4          6           0        3.581016   -0.217718   -0.114290
      5          6           0        3.415420    1.088356    0.344012
      6          6           0        4.500376    1.964738    0.247202
      7          1           0        6.552810    2.221529   -0.367525
      8          1           0        6.792441   -0.120306   -1.169910
      9          1           0        4.855678   -1.701746   -1.002330
     10          1           0        2.463698    1.395459    0.760343
     11          1           0        4.392658    2.987001    0.598513
     12          7           0        2.439502   -1.154672   -0.017018
     13          8           0        1.394923   -0.725703    0.468243
     14          8           0        2.610976   -2.300284   -0.427878
     15          6           0       -4.305860    0.255899    0.699584
     16          6           0       -3.075614   -0.651599    0.669159
     17          6           0       -2.047089   -0.289251    1.740902
     18          1           0       -3.987578    1.298953    0.566616
     19          1           0       -4.772782    0.195729    1.692438
     20          1           0       -2.611947   -0.590797   -0.323782
     21          1           0       -3.396881   -1.692633    0.802022
     22          1           0       -2.487706   -0.368152    2.740017
     23          1           0       -1.698313    0.739945    1.607816
     24          1           0       -1.175880   -0.950518    1.701137
     25          6           0       -5.343168   -0.093861   -0.365962
     26          6           0       -6.573414    0.813638   -0.335536
     27          6           0       -7.601939    0.451289   -1.407279
     28          1           0       -4.876245   -0.033691   -1.358816
     29          1           0       -5.661450   -1.136915   -0.232994
     30          1           0       -6.252147    1.854671   -0.468400
     31          1           0       -7.037081    0.752836    0.657405
     32          1           0       -7.950715   -0.577907   -1.274194
     33          1           0       -7.161322    0.530190   -2.406395
     34          1           0       -8.473148    1.112556   -1.367515
 ---------------------------------------------------------------------

 SCF Done:  E(RHF) =  -669.535989310     A.U. after   15 cycles
 E2 =    -0.2090656993D+01 EUMP2 =    -0.67162664630270D+03

 The electronic state is 1-A.
 Alpha  occ. eigenvalues --  -20.60909 -20.60903 -15.85948 -11.31275 -11.27840
 Alpha  occ. eigenvalues --  -11.27835 -11.27580 -11.26849 -11.26839 -11.21081
 Alpha  occ. eigenvalues --  -11.20709 -11.20635 -11.20545 -11.20434 -11.19603
 Alpha  occ. eigenvalues --   -1.59976  -1.39531  -1.19445  -1.08849  -1.07643
 Alpha  occ. eigenvalues --   -1.04842  -1.02659  -0.95692  -0.95098  -0.86243
 Alpha  occ. eigenvalues --   -0.86123  -0.82522  -0.78761  -0.77573  -0.77424
 Alpha  occ. eigenvalues --   -0.72176  -0.71291  -0.70553  -0.65101  -0.64845
 Alpha  occ. eigenvalues --   -0.64286  -0.62189  -0.60070  -0.58497  -0.56672
 Alpha  occ. eigenvalues --   -0.55347  -0.54416  -0.53174  -0.52935  -0.51741
 Alpha  occ. eigenvalues --   -0.51537  -0.49100  -0.48923  -0.48901  -0.47047
 Alpha  occ. eigenvalues --   -0.45825  -0.44973  -0.44942  -0.44884  -0.42886
 Alpha  occ. eigenvalues --   -0.37426  -0.36444
 Alpha virt. eigenvalues --    0.04955   0.11211   0.16451   0.21324   0.23583
 Alpha virt. eigenvalues --    0.25183   0.27213   0.27392   0.28076   0.28249
 Alpha virt. eigenvalues --    0.29024   0.30921   0.32077   0.32462   0.32663

 Mulliken charges:
               1
     1  C   -0.170626
     2  C   -0.218620
     3  C   -0.170552
     4  C    0.157634
     5  C   -0.170923
     6  C   -0.218569
     7  H    0.225914
     8  H    0.223726
     9  H    0.275804
    10  H    0.276121
    11  H    0.223799
    12  N    0.492641
    13  O   -0.463959
    14  O   -0.459527
    15  C   -0.297307
    16  C   -0.298811
    17  C   -0.480481
    18  H    0.146313
    19  H    0.146926
    20  H    0.155010
    21  H    0.150125
    22  H    0.145670
    23  H    0.147430
    24  H    0.186768
    25  C   -0.297571
    26  C   -0.298871
    27  C   -0.475240
    28  H    0.148984
    29  H    0.149233
    30  H    0.150285
    31  H    0.150887
    32  H    0.154924
    33  H    0.154572
    34  H    0.158290
 Sum of Mulliken charges =  -0.00000

 Dipole moment (field-independent basis, Debye):
    X=              4.3489    Y=              3.2110    Z=             -0.3726  Tot=              5.4186
 Quadrupole moment (field-independent basis, Debye-Ang):
   XX=            -66.5203   YY=            -93.4914   ZZ=            -94.9288
   XY=              9.3018   XZ=             -3.8483   YZ=              0.8266

 Normal termination of Gaussian 16 at Thu May  6 19:11:03 2021.
