 Gaussian 16, Revision A.03,
 Gaussian 16:  EM64L-G16RevA.03 25-Dec-2016

 -------------
 #p 6-31g* mp2
 -------------

 ------------------------------------------------------
 Input file generated by CHIRIPA (05-May-2021 14:51:09)
 ------------------------------------------------------
 Symbolic Z-matrix:
 Charge =  0 Multiplicity = 1

                         Standard orientation:
 ---------------------------------------------------------------------
 Center     Atomic      Atomic             Coordinates (Angstroms)
 Number     Number       Type             X           Y           Z
 ---------------------------------------------------------------------
      1          6           0       -2.212954   -1.465178    0.444690
      2          6           0       -0.699450   -1.632160    0.583997
      3          6           0       -0.310397   -2.933966    1.285235
      4          1           0       -2.672357   -1.497523    1.442110
      5          1           0       -2.619164   -2.319472   -0.114389
      6          1           0       -0.296029   -0.777108    1.141451
      7          1           0       -0.243576   -1.599222   -0.413856
      8          1           0       -0.685444   -3.798600    0.728145
      9          1           0       -0.738195   -2.971815    2.292289
     10          1           0        0.775954   -3.032918    1.374177
     11          6           0       -2.617587   -0.168514   -0.254355
     12          6           0       -4.131092   -0.001532   -0.393662
     13          6           0       -4.520145    1.300273   -1.094900
     14          1           0       -2.211377    0.685780    0.304725
     15          1           0       -2.158184   -0.136170   -1.251775
     16          1           0       -4.586965   -0.034470    0.604191
     17          1           0       -4.534512   -0.856584   -0.951115
     18          1           0       -4.092347    1.338122   -2.101953
     19          1           0       -4.145097    2.164907   -0.537810
     20          1           0       -5.606495    1.399226   -1.183842
     21          6           0        1.805809    1.177646    0.190861
     22          6           0        2.020814    2.680571    0.372451
     23          6           0        0.792683    3.388453    0.945507
     24          1           0        0.944458    1.014270   -0.471201
     25          1           0        1.543735    0.732012    1.160460
     26          1           0        2.283759    3.123012   -0.596942
     27          1           0        2.881872    2.840390    1.034004
     28          1           0        0.531234    2.974291    1.924647
     29          1           0       -0.070278    3.258519    0.284434
     30          1           0        0.968318    4.461870    1.067106
     31          6           0        3.024732    0.456047   -0.381196
     32          6           0        2.809728   -1.046879   -0.562785
     33          6           0        4.037858   -1.754760   -1.135842
     34          1           0        3.286806    0.901681   -1.350795
     35          1           0        3.886084    0.619422    0.280866
     36          1           0        1.948669   -1.206697   -1.224339
     37          1           0        2.546782   -1.489320    0.406607
     38          1           0        4.900819   -1.624827   -0.474769
     39          1           0        4.299308   -1.340599   -2.114982
     40          1           0        3.862224   -2.828178   -1.257441
 ---------------------------------------------------------------------

 SCF Done:  E(RHF) =  -470.731070463     A.U. after   11 cycles
 E2 =    -0.1585791706D+01 EUMP2 =    -0.47231686216914D+03

 The electronic state is 1-A.
 Alpha  occ. eigenvalues --  -11.21584 -11.21583 -11.21558 -11.21386 -11.21375
 Alpha  occ. eigenvalues --  -11.21359 -11.21299 -11.21272 -11.21093 -11.21065
 Alpha  occ. eigenvalues --  -11.21058 -11.20985  -1.08480  -1.08316  -1.03555
 Alpha  occ. eigenvalues --   -1.03441  -0.95978  -0.95933  -0.87007  -0.86936
 Alpha  occ. eigenvalues --   -0.79685  -0.79557  -0.78576  -0.77782  -0.65158
 Alpha  occ. eigenvalues --   -0.64923  -0.60968  -0.60858  -0.59510  -0.59168
 Alpha  occ. eigenvalues --   -0.57616  -0.57520  -0.55270  -0.55219  -0.52707
 Alpha  occ. eigenvalues --   -0.52598  -0.52493  -0.52290  -0.49927  -0.49879
 Alpha  occ. eigenvalues --   -0.47998  -0.47986  -0.46689  -0.46528  -0.46337
 Alpha  occ. eigenvalues --   -0.45876  -0.45261  -0.44950  -0.43765  -0.43706
 Alpha virt. eigenvalues --    0.21319   0.22452   0.23603   0.23994   0.24758
 Alpha virt. eigenvalues --    0.26116   0.26882   0.27797   0.28507   0.29632
 Alpha virt. eigenvalues --    0.30070   0.31209   0.31395   0.31842   0.32299

 Mulliken charges:
               1
     1  C   -0.297623
     2  C   -0.305292
     3  C   -0.478904
     4  H    0.148814
     5  H    0.148632
     6  H    0.158222
     7  H    0.155206
     8  H    0.154589
     9  H    0.154352
    10  H    0.161868
    11  C   -0.300031
    12  C   -0.299451
    13  C   -0.475784
    14  H    0.151266
    15  H    0.148231
    16  H    0.152103
    17  H    0.151907
    18  H    0.154770
    19  H    0.155239
    20  H    0.160297
    21  C   -0.301936
    22  C   -0.298989
    23  C   -0.476853
    24  H    0.153892
    25  H    0.150807
    26  H    0.151771
    27  H    0.151586
    28  H    0.154226
    29  H    0.156110
    30  H    0.160520
    31  C   -0.297847
    32  C   -0.304837
    33  C   -0.475285
    34  H    0.149094
    35  H    0.149096
    36  H    0.154390
    37  H    0.155975
    38  H    0.154890
    39  H    0.154930
    40  H    0.160049
 Sum of Mulliken charges =  -0.00000

 Dipole moment (field-independent basis, Debye):
    X=              0.0252    Y=              0.0173    Z=             -0.0057  Tot=              0.0311
 Quadrupole moment (field-independent basis, Debye-Ang):
   XX=            -85.7149   YY=            -85.9421   ZZ=            -83.4898
   XY=              0.7868   XZ=              0.4347   YZ=              0.4809

 Normal termination of Gaussian 16 at Wed May  5 18:09:14 2021.
