 Gaussian 16, Revision A.03,
 Gaussian 16:  EM64L-G16RevA.03 25-Dec-2016

 -------------
 #p 6-31g* mp2
 -------------

 ------------------------------------------------------
 Input file generated by CHIRIPA (05-May-2021 14:53:18)
 ------------------------------------------------------
 Symbolic Z-matrix:
 Charge =  0 Multiplicity = 1

                         Standard orientation:
 ---------------------------------------------------------------------
 Center     Atomic      Atomic             Coordinates (Angstroms)
 Number     Number       Type             X           Y           Z
 ---------------------------------------------------------------------
      1          6           0       -3.385014    0.805616   -0.490905
      2          6           0       -2.307100    1.480170    0.358251
      3          6           0       -1.565215    2.584069   -0.395942
      4          1           0       -2.921931    0.386690   -1.394785
      5          1           0       -4.102823    1.565009   -0.830710
      6          1           0       -1.592307    0.719514    0.697500
      7          1           0       -2.772773    1.897372    1.260309
      8          1           0       -2.261735    3.363704   -0.720950
      9          1           0       -1.074562    2.179154   -1.286956
     10          1           0       -0.799237    3.052794    0.229705
     11          6           0       -4.135462   -0.300155    0.249247
     12          6           0       -5.213375   -0.974709   -0.599909
     13          6           0       -5.955261   -2.078607    0.154285
     14          1           0       -3.417653   -1.059548    0.589053
     15          1           0       -4.598545    0.118771    1.153128
     16          1           0       -4.747703   -1.391911   -1.501966
     17          1           0       -5.928169   -0.214053   -0.939158
     18          1           0       -6.445914   -1.673693    1.045298
     19          1           0       -5.258741   -2.858243    0.479292
     20          1           0       -6.721239   -2.547333   -0.471362
     21          6           0        2.199530    2.199764    0.367226
     22          6           0        3.328426    1.898126   -0.401623
     23          6           0        3.746584    0.573469   -0.559662
     24          6           0        3.009048   -0.429199    0.068022
     25          6           0        1.880065   -0.160615    0.840388
     26          6           0        1.480221    1.171244    0.984689
     27          1           0        1.881810    3.231587    0.484660
     28          1           0        3.888983    2.694846   -0.882308
     29          1           0        4.616800    0.311762   -1.149284
     30          1           0        1.341614   -0.976337    1.307386
     31          1           0        0.603114    1.402546    1.582374
     32          7           0        3.442039   -1.835367   -0.092016
     33          8           0        2.775096   -2.700558    0.471251
     34          8           0        4.440161   -2.045704   -0.777690
 ---------------------------------------------------------------------

 SCF Done:  E(RHF) =  -669.534391798     A.U. after   15 cycles
 E2 =    -0.2092889176D+01 EUMP2 =    -0.67162728097352D+03

 The electronic state is 1-A.
 Alpha  occ. eigenvalues --  -20.60761 -20.60756 -15.85814 -11.31172 -11.27738
 Alpha  occ. eigenvalues --  -11.27730 -11.27462 -11.26752 -11.26699 -11.22440
 Alpha  occ. eigenvalues --  -11.21975 -11.21944 -11.21881 -11.21775 -11.21260
 Alpha  occ. eigenvalues --   -1.59837  -1.39390  -1.19345  -1.08967  -1.08733
 Alpha  occ. eigenvalues --   -1.04758  -1.04072  -0.96526  -0.95573  -0.87544
 Alpha  occ. eigenvalues --   -0.86140  -0.82415  -0.80173  -0.78738  -0.77458
 Alpha  occ. eigenvalues --   -0.72033  -0.71160  -0.70462  -0.65623  -0.65001
 Alpha  occ. eigenvalues --   -0.64784  -0.62202  -0.61402  -0.59890  -0.58113
 Alpha  occ. eigenvalues --   -0.55786  -0.55254  -0.53333  -0.53016  -0.52952
 Alpha  occ. eigenvalues --   -0.52736  -0.50432  -0.48791  -0.48787  -0.48483
 Alpha  occ. eigenvalues --   -0.47181  -0.46279  -0.46169  -0.44798  -0.44332
 Alpha  occ. eigenvalues --   -0.37287  -0.36325
 Alpha virt. eigenvalues --    0.05054   0.11247   0.16467   0.20041   0.22649
 Alpha virt. eigenvalues --    0.24190   0.25435   0.26111   0.26554   0.27955
 Alpha virt. eigenvalues --    0.28741   0.30301   0.30885   0.31681   0.32092

 Mulliken charges:
               1
     1  C   -0.298670
     2  C   -0.303630
     3  C   -0.474239
     4  H    0.153143
     5  H    0.151142
     6  H    0.147098
     7  H    0.152210
     8  H    0.158521
     9  H    0.162015
    10  H    0.146415
    11  C   -0.299103
    12  C   -0.300265
    13  C   -0.476265
    14  H    0.150517
    15  H    0.149504
    16  H    0.153870
    17  H    0.152054
    18  H    0.154949
    19  H    0.156951
    20  H    0.161664
    21  C   -0.170553
    22  C   -0.219250
    23  C   -0.171150
    24  C    0.158345
    25  C   -0.174160
    26  C   -0.215769
    27  H    0.225651
    28  H    0.223437
    29  H    0.275491
    30  H    0.275047
    31  H    0.228071
    32  N    0.488102
    33  O   -0.460672
    34  O   -0.460470
 Sum of Mulliken charges =  -0.00000

 Dipole moment (field-independent basis, Debye):
    X=             -1.6589    Y=              4.9205    Z=              0.4725  Tot=              5.2141
 Quadrupole moment (field-independent basis, Debye-Ang):
   XX=           -100.7782   YY=            -99.4823   ZZ=            -93.6743
   XY=             16.2199   XZ=             -0.7366   YZ=             -0.4542

 Normal termination of Gaussian 16 at Wed May  5 20:28:08 2021.
