 Gaussian 16, Revision A.03,
 Gaussian 16:  EM64L-G16RevA.03 25-Dec-2016

 -------------
 #p 6-31g* mp2
 -------------

 ------------------------------------------------------
 Input file generated by CHIRIPA (05-May-2021 14:51:10)
 ------------------------------------------------------
 Symbolic Z-matrix:
 Charge =  0 Multiplicity = 1

                         Standard orientation:
 ---------------------------------------------------------------------
 Center     Atomic      Atomic             Coordinates (Angstroms)
 Number     Number       Type             X           Y           Z
 ---------------------------------------------------------------------
      1          6           0        2.400579   -1.137592   -0.633589
      2          6           0        1.105296   -1.922682   -0.424162
      3          6           0        0.912862   -3.032376   -1.458253
      4          1           0        2.399919   -0.703994   -1.643013
      5          1           0        3.252137   -1.830766   -0.591714
      6          1           0        0.256534   -1.228026   -0.465041
      7          1           0        1.108954   -2.354302    0.584950
      8          1           0        1.740353   -3.747853   -1.414057
      9          1           0        0.883089   -2.615177   -2.470014
     10          1           0       -0.019188   -3.580817   -1.289868
     11          6           0        2.607113   -0.024765    0.392417
     12          6           0        3.902396    0.760326    0.182989
     13          6           0        4.094829    1.870019    1.217080
     14          1           0        1.755555    0.668410    0.350541
     15          1           0        2.607773   -0.458363    1.401841
     16          1           0        3.898737    1.191946   -0.826123
     17          1           0        4.751158    0.065670    0.223868
     18          1           0        4.124603    1.452821    2.228841
     19          1           0        3.267339    2.585496    1.172884
     20          1           0        5.026880    2.418461    1.048695
     21          6           0       -2.598762    0.099481    0.705728
     22          6           0       -2.889767   -1.336388    0.268025
     23          6           0       -3.077218   -2.288178    1.449867
     24          1           0       -1.696778    0.109221    1.332844
     25          1           0       -3.423129    0.456791    1.338296
     26          1           0       -2.065757   -1.690403   -0.364665
     27          1           0       -3.791054   -1.342686   -0.358280
     28          1           0       -3.911927   -1.961865    2.078661
     29          1           0       -2.176826   -2.311558    2.072240
     30          1           0       -3.284222   -3.309129    1.114205
     31          6           0       -2.408930    1.062876   -0.464555
     32          6           0       -2.117925    2.498744   -0.026853
     33          6           0       -1.930474    3.450534   -1.208695
     34          1           0       -1.584562    0.705565   -1.097124
     35          1           0       -3.310913    1.053135   -1.091671
     36          1           0       -1.216637    2.505042    0.599452
     37          1           0       -2.941935    2.852760    0.605837
     38          1           0       -2.830866    3.473913   -1.831069
     39          1           0       -1.095765    3.124221   -1.837489
     40          1           0       -1.723469    4.471485   -0.873033
 ---------------------------------------------------------------------

 SCF Done:  E(RHF) =  -470.733072526     A.U. after   11 cycles
 E2 =    -0.1584154633D+01 EUMP2 =    -0.47231722715964D+03

 The electronic state is 1-A.
 Alpha  occ. eigenvalues --  -11.21658 -11.21653 -11.21643 -11.21545 -11.21475
 Alpha  occ. eigenvalues --  -11.21430 -11.21415 -11.21352 -11.21136 -11.21113
 Alpha  occ. eigenvalues --  -11.21110 -11.21045  -1.08520  -1.08425  -1.03616
 Alpha  occ. eigenvalues --   -1.03513  -0.96042  -0.95987  -0.87054  -0.87004
 Alpha  occ. eigenvalues --   -0.79686  -0.79581  -0.78348  -0.78227  -0.65352
 Alpha  occ. eigenvalues --   -0.64894  -0.61126  -0.60838  -0.59428  -0.59311
 Alpha  occ. eigenvalues --   -0.57668  -0.57572  -0.55325  -0.55278  -0.52733
 Alpha  occ. eigenvalues --   -0.52677  -0.52463  -0.52411  -0.50013  -0.49904
 Alpha  occ. eigenvalues --   -0.48027  -0.47874  -0.46840  -0.46574  -0.46055
 Alpha  occ. eigenvalues --   -0.45833  -0.45717  -0.45376  -0.43845  -0.43792
 Alpha virt. eigenvalues --    0.19511   0.22365   0.23654   0.24869   0.25637
 Alpha virt. eigenvalues --    0.26443   0.26768   0.27471   0.28544   0.30078
 Alpha virt. eigenvalues --    0.30766   0.30939   0.31498   0.31795   0.32451

 Mulliken charges:
               1
     1  C   -0.297575
     2  C   -0.308240
     3  C   -0.477310
     4  H    0.149557
     5  H    0.149924
     6  H    0.159590
     7  H    0.152181
     8  H    0.155843
     9  H    0.155313
    10  H    0.161646
    11  C   -0.299213
    12  C   -0.299664
    13  C   -0.475780
    14  H    0.149232
    15  H    0.149781
    16  H    0.152099
    17  H    0.152239
    18  H    0.155258
    19  H    0.155192
    20  H    0.160526
    21  C   -0.299574
    22  C   -0.305629
    23  C   -0.475729
    24  H    0.151013
    25  H    0.149970
    26  H    0.158701
    27  H    0.151631
    28  H    0.155033
    29  H    0.155714
    30  H    0.159748
    31  C   -0.300882
    32  C   -0.300141
    33  C   -0.475679
    34  H    0.150091
    35  H    0.150130
    36  H    0.152005
    37  H    0.152412
    38  H    0.155446
    39  H    0.154686
    40  H    0.160450
 Sum of Mulliken charges =  -0.00000

 Dipole moment (field-independent basis, Debye):
    X=              0.0168    Y=             -0.0098    Z=             -0.0008  Tot=              0.0195
 Quadrupole moment (field-independent basis, Debye-Ang):
   XX=            -83.6053   YY=            -85.6378   ZZ=            -85.4239
   XY=             -0.9542   XZ=              0.2444   YZ=             -0.3440

 Normal termination of Gaussian 16 at Wed May  5 15:12:01 2021.
