 Gaussian 16, Revision A.03,
 Gaussian 16:  EM64L-G16RevA.03 25-Dec-2016

 -------------
 #p 6-31g* mp2
 -------------

 ------------------------------------------------------
 Input file generated by CHIRIPA (05-May-2021 14:53:15)
 ------------------------------------------------------
 Symbolic Z-matrix:
 Charge =  0 Multiplicity = 1

                         Standard orientation:
 ---------------------------------------------------------------------
 Center     Atomic      Atomic             Coordinates (Angstroms)
 Number     Number       Type             X           Y           Z
 ---------------------------------------------------------------------
      1          6           0        1.704361    1.334247   -0.213321
      2          6           0        1.292461    2.634140    0.478488
      3          6           0       -0.069838    3.146897    0.010497
      4          1           0        1.725093    1.495235   -1.299874
      5          1           0        0.939013    0.568546   -0.025336
      6          1           0        2.059042    3.396764    0.290407
      7          1           0        1.272894    2.470092    1.563533
      8          1           0       -0.850458    2.406468    0.212976
      9          1           0       -0.059843    3.338405   -1.067383
     10          1           0       -0.344627    4.076958    0.517781
     11          6           0        3.064053    0.809083    0.244029
     12          6           0        3.475953   -0.490811   -0.447780
     13          6           0        4.838253   -1.003567    0.020211
     14          1           0        3.829402    1.574784    0.056044
     15          1           0        3.043322    0.648095    1.330582
     16          1           0        3.495521   -0.326762   -1.532825
     17          1           0        2.709372   -1.253435   -0.259699
     18          1           0        4.828258   -1.195076    1.098091
     19          1           0        5.618873   -0.263138   -0.182268
     20          1           0        5.113041   -1.933628   -0.487073
     21          6           0       -0.085937   -2.619623    0.167657
     22          6           0       -0.424899   -2.092665   -1.082919
     23          6           0       -1.407830   -1.104750   -1.194360
     24          6           0       -2.034429   -0.664924   -0.029364
     25          6           0       -1.718823   -1.170304    1.230904
     26          6           0       -0.732840   -2.157575    1.318548
     27          1           0        0.678813   -3.386809    0.244985
     28          1           0        0.075836   -2.449599   -1.978412
     29          1           0       -1.689753   -0.679466   -2.149908
     30          1           0       -2.235451   -0.794494    2.105706
     31          1           0       -0.471642   -2.565002    2.291083
     32          7           0       -3.076629    0.380597   -0.134745
     33          8           0       -3.613914    0.751198    0.906704
     34          8           0       -3.336488    0.809677   -1.256797
 ---------------------------------------------------------------------

 SCF Done:  E(RHF) =  -669.534926945     A.U. after   15 cycles
 E2 =    -0.2095375337D+01 EUMP2 =    -0.67163030228148D+03

 The electronic state is 1-A.
 Alpha  occ. eigenvalues --  -20.60862 -20.60855 -15.85908 -11.31312 -11.27892
 Alpha  occ. eigenvalues --  -11.27850 -11.27630 -11.26916 -11.26878 -11.21991
 Alpha  occ. eigenvalues --  -11.21572 -11.21519 -11.21452 -11.21302 -11.20723
 Alpha  occ. eigenvalues --   -1.59940  -1.39488  -1.19503  -1.08890  -1.08535
 Alpha  occ. eigenvalues --   -1.04891  -1.03625  -0.96049  -0.95711  -0.87062
 Alpha  occ. eigenvalues --   -0.86285  -0.82531  -0.79717  -0.78334  -0.77574
 Alpha  occ. eigenvalues --   -0.72127  -0.71288  -0.70591  -0.65200  -0.65134
 Alpha  occ. eigenvalues --   -0.64879  -0.62228  -0.61031  -0.59463  -0.57661
 Alpha  occ. eigenvalues --   -0.55390  -0.55353  -0.53361  -0.52973  -0.52723
 Alpha  occ. eigenvalues --   -0.52431  -0.49998  -0.48890  -0.48881  -0.48028
 Alpha  occ. eigenvalues --   -0.46786  -0.45855  -0.45651  -0.44875  -0.43853
 Alpha  occ. eigenvalues --   -0.37441  -0.36467
 Alpha virt. eigenvalues --    0.04913   0.11112   0.16317   0.20970   0.22841
 Alpha virt. eigenvalues --    0.24005   0.26253   0.26766   0.27612   0.27714
 Alpha virt. eigenvalues --    0.28241   0.30875   0.31104   0.31553   0.32068

 Mulliken charges:
               1
     1  C   -0.305242
     2  C   -0.300202
     3  C   -0.473623
     4  H    0.146973
     5  H    0.158548
     6  H    0.150907
     7  H    0.150246
     8  H    0.153958
     9  H    0.156740
    10  H    0.163289
    11  C   -0.296599
    12  C   -0.302111
    13  C   -0.475535
    14  H    0.150300
    15  H    0.147994
    16  H    0.150639
    17  H    0.146978
    18  H    0.154141
    19  H    0.157864
    20  H    0.157216
    21  C   -0.171034
    22  C   -0.215664
    23  C   -0.171299
    24  C    0.156134
    25  C   -0.172894
    26  C   -0.218935
    27  H    0.226929
    28  H    0.225133
    29  H    0.276494
    30  H    0.276426
    31  H    0.224296
    32  N    0.490186
    33  O   -0.459889
    34  O   -0.458365
 Sum of Mulliken charges =  -0.00000

 Dipole moment (field-independent basis, Debye):
    X=              3.5058    Y=             -3.6656    Z=              0.3448  Tot=              5.0839
 Quadrupole moment (field-independent basis, Debye-Ang):
   XX=           -111.4984   YY=            -90.2575   ZZ=            -89.3281
   XY=              5.8469   XZ=             -2.1064   YZ=             -0.6182

 Normal termination of Gaussian 16 at Wed May  5 23:32:56 2021.
