 Gaussian 16, Revision A.03,
 Gaussian 16:  EM64L-G16RevA.03 25-Dec-2016

 -------------
 #p 6-31g* mp2
 -------------

 ------------------------------------------------------
 Input file generated by CHIRIPA (05-May-2021 14:51:12)
 ------------------------------------------------------
 Symbolic Z-matrix:
 Charge =  0 Multiplicity = 1

                         Standard orientation:
 ---------------------------------------------------------------------
 Center     Atomic      Atomic             Coordinates (Angstroms)
 Number     Number       Type             X           Y           Z
 ---------------------------------------------------------------------
      1          6           0        2.023031    1.258281   -0.346735
      2          6           0        2.300513    2.156136    0.859435
      3          6           0        1.629534    3.525179    0.744095
      4          1           0        2.370219    1.762687   -1.258864
      5          1           0        0.937474    1.127592   -0.455734
      6          1           0        3.385278    2.283966    0.966951
      7          1           0        1.952798    1.649451    1.768820
      8          1           0        0.543436    3.416027    0.659953
      9          1           0        1.984055    4.054146   -0.146472
     10          1           0        1.841027    4.150735    1.616912
     11          6           0        2.687108   -0.113801   -0.246130
     12          6           0        2.409627   -1.011657   -1.452299
     13          6           0        3.080606   -2.380699   -1.336960
     14          1           0        3.772666    0.016888   -0.137131
     15          1           0        2.339921   -0.618208    0.665999
     16          1           0        2.757341   -0.504972   -2.361684
     17          1           0        1.324861   -1.139486   -1.559816
     18          1           0        2.726084   -2.909667   -0.446393
     19          1           0        4.166703   -2.271547   -1.252818
     20          1           0        2.869112   -3.006255   -2.209777
     21          6           0       -2.570656    0.084818   -0.027958
     22          6           0       -3.980275    0.035736   -0.618339
     23          6           0       -4.397234    1.357631   -1.263733
     24          1           0       -2.519975    0.890414    0.717288
     25          1           0       -1.857318    0.347640   -0.821349
     26          1           0       -4.690572   -0.228271    0.175636
     27          1           0       -4.027659   -0.769961   -1.362128
     28          1           0       -3.711520    1.623564   -2.074706
     29          1           0       -4.378200    2.168332   -0.528205
     30          1           0       -5.408112    1.300242   -1.679295
     31          6           0       -2.139483   -1.229298    0.620823
     32          6           0       -0.729864   -1.180215    1.211203
     33          6           0       -0.312906   -2.502110    1.856598
     34          1           0       -2.852822   -1.492119    1.414214
     35          1           0       -2.190164   -2.034893   -0.124424
     36          1           0       -0.682481   -0.374518    1.954994
     37          1           0       -0.019568   -0.916208    0.417229
     38          1           0       -0.331940   -3.312812    1.121069
     39          1           0       -0.998619   -2.768044    2.667572
     40          1           0        0.697972   -2.444722    2.272160
 ---------------------------------------------------------------------

 SCF Done:  E(RHF) =  -470.732000908     A.U. after   11 cycles
 E2 =    -0.1585736095D+01 EUMP2 =    -0.47231773700278D+03

 The electronic state is 1-A.
 Alpha  occ. eigenvalues --  -11.21654 -11.21638 -11.21607 -11.21566 -11.21478
 Alpha  occ. eigenvalues --  -11.21414 -11.21366 -11.21302 -11.21159 -11.21104
 Alpha  occ. eigenvalues --  -11.21085 -11.21038  -1.08561  -1.08374  -1.03612
 Alpha  occ. eigenvalues --   -1.03508  -0.96050  -0.95968  -0.87062  -0.86986
 Alpha  occ. eigenvalues --   -0.79674  -0.79593  -0.78369  -0.78208  -0.65542
 Alpha  occ. eigenvalues --   -0.64777  -0.61214  -0.60682  -0.59396  -0.59336
 Alpha  occ. eigenvalues --   -0.57678  -0.57561  -0.55325  -0.55267  -0.52736
 Alpha  occ. eigenvalues --   -0.52672  -0.52477  -0.52384  -0.50097  -0.49813
 Alpha  occ. eigenvalues --   -0.47977  -0.47908  -0.46714  -0.46631  -0.46233
 Alpha  occ. eigenvalues --   -0.45822  -0.45706  -0.45186  -0.43846  -0.43769
 Alpha virt. eigenvalues --    0.19903   0.22433   0.23207   0.24320   0.25117
 Alpha virt. eigenvalues --    0.26174   0.27063   0.27722   0.29242   0.30430
 Alpha virt. eigenvalues --    0.30796   0.30895   0.31611   0.32022   0.32198

 Mulliken charges:
               1
     1  C   -0.302507
     2  C   -0.299712
     3  C   -0.476065
     4  H    0.149475
     5  H    0.154009
     6  H    0.151697
     7  H    0.152514
     8  H    0.155769
     9  H    0.155022
    10  H    0.159927
    11  C   -0.305949
    12  C   -0.302011
    13  C   -0.476747
    14  H    0.151384
    15  H    0.154650
    16  H    0.152740
    17  H    0.151630
    18  H    0.156760
    19  H    0.155494
    20  H    0.160033
    21  C   -0.301049
    22  C   -0.299627
    23  C   -0.475867
    24  H    0.149570
    25  H    0.150887
    26  H    0.152310
    27  H    0.152163
    28  H    0.155464
    29  H    0.155261
    30  H    0.160493
    31  C   -0.297506
    32  C   -0.312061
    33  C   -0.477309
    34  H    0.149709
    35  H    0.149496
    36  H    0.151552
    37  H    0.166446
    38  H    0.155715
    39  H    0.155892
    40  H    0.160347
 Sum of Mulliken charges =  -0.00000

 Dipole moment (field-independent basis, Debye):
    X=             -0.0146    Y=             -0.0108    Z=              0.0010  Tot=              0.0182
 Quadrupole moment (field-independent basis, Debye-Ang):
   XX=            -84.2905   YY=            -86.4303   ZZ=            -84.0494
   XY=              0.9752   XZ=             -0.9053   YZ=              0.4892

 Normal termination of Gaussian 16 at Thu May  6 02:19:03 2021.
