 Gaussian 16, Revision A.03,
 Gaussian 16:  EM64L-G16RevA.03 25-Dec-2016

 -------------
 #p 6-31g* mp2
 -------------

 ------------------------------------------------------
 Input file generated by CHIRIPA (05-May-2021 14:53:14)
 ------------------------------------------------------
 Symbolic Z-matrix:
 Charge =  0 Multiplicity = 1

                         Standard orientation:
 ---------------------------------------------------------------------
 Center     Atomic      Atomic             Coordinates (Angstroms)
 Number     Number       Type             X           Y           Z
 ---------------------------------------------------------------------
      1          6           0       -3.461520    0.585570    0.013605
      2          6           0       -3.655104    2.037696    0.451599
      3          6           0       -2.368531    2.858901    0.361337
      4          1           0       -2.684401    0.121869    0.636512
      5          1           0       -3.086072    0.568280   -1.018933
      6          1           0       -4.031389    2.052209    1.482528
      7          1           0       -4.431988    2.497937   -0.172297
      8          1           0       -1.992608    2.874205   -0.666791
      9          1           0       -1.589733    2.425944    0.997436
     10          1           0       -2.529670    3.893759    0.679085
     11          6           0       -4.738817   -0.248143    0.098252
     12          6           0       -4.545232   -1.700269   -0.339742
     13          6           0       -5.831805   -2.521474   -0.249481
     14          1           0       -5.114264   -0.230853    1.130790
     15          1           0       -5.515935    0.215558   -0.524655
     16          1           0       -3.768348   -2.160510    0.284154
     17          1           0       -4.168948   -1.714782   -1.370671
     18          1           0       -6.610604   -2.088517   -0.885580
     19          1           0       -6.207728   -2.536778    0.778648
     20          1           0       -5.670667   -3.556332   -0.567228
     21          6           0        0.817139    0.659261   -0.259513
     22          6           0        1.087514   -0.628058    0.216125
     23          6           0        2.405746   -1.076957    0.339827
     24          6           0        3.433937   -0.208285   -0.022829
     25          6           0        3.196760    1.079894   -0.499937
     26          6           0        1.870767    1.507632   -0.615398
     27          1           0       -0.209909    0.999757   -0.352407
     28          1           0        0.271247   -1.289079    0.493259
     29          1           0        2.643477   -2.068620    0.705213
     30          1           0        4.031472    1.716011   -0.768322
     31          1           0        1.663768    2.507897   -0.985084
     32          7           0        4.833598   -0.672314    0.103767
     33          8           0        5.721694    0.112257   -0.222382
     34          8           0        5.016054   -1.811803    0.526745
 ---------------------------------------------------------------------

 SCF Done:  E(RHF) =  -669.535249914     A.U. after   15 cycles
 E2 =    -0.2092142679D+01 EUMP2 =    -0.67162739259298D+03

 The electronic state is 1-A.
 Alpha  occ. eigenvalues --  -20.60674 -20.60669 -15.85728 -11.31063 -11.27636
 Alpha  occ. eigenvalues --  -11.27632 -11.27242 -11.26623 -11.26611 -11.22770
 Alpha  occ. eigenvalues --  -11.22665 -11.22469 -11.22439 -11.22340 -11.21748
 Alpha  occ. eigenvalues --   -1.59751  -1.39305  -1.19228  -1.09525  -1.08616
 Alpha  occ. eigenvalues --   -1.04632  -1.04576  -0.97049  -0.95460  -0.88063
 Alpha  occ. eigenvalues --   -0.86023  -0.82312  -0.80661  -0.79345  -0.77359
 Alpha  occ. eigenvalues --   -0.71945  -0.71075  -0.70326  -0.66140  -0.64873
 Alpha  occ. eigenvalues --   -0.64637  -0.61989  -0.61950  -0.60437  -0.58675
 Alpha  occ. eigenvalues --   -0.56346  -0.55144  -0.53691  -0.53436  -0.52952
 Alpha  occ. eigenvalues --   -0.52717  -0.50980  -0.48931  -0.48703  -0.48688
 Alpha  occ. eigenvalues --   -0.47681  -0.46844  -0.46766  -0.44828  -0.44718
 Alpha  occ. eigenvalues --   -0.37183  -0.36247
 Alpha virt. eigenvalues --    0.05155   0.11403   0.16578   0.19667   0.22290
 Alpha virt. eigenvalues --    0.23409   0.24558   0.25948   0.26451   0.28228
 Alpha virt. eigenvalues --    0.29660   0.30138   0.30453   0.31048   0.31409

 Mulliken charges:
               1
     1  C   -0.303919
     2  C   -0.298255
     3  C   -0.486279
     4  H    0.143823
     5  H    0.148716
     6  H    0.156921
     7  H    0.156804
     8  H    0.150721
     9  H    0.155692
    10  H    0.168876
    11  C   -0.298508
    12  C   -0.300272
    13  C   -0.476355
    14  H    0.152693
    15  H    0.153263
    16  H    0.149164
    17  H    0.152863
    18  H    0.157036
    19  H    0.156765
    20  H    0.162680
    21  C   -0.178875
    22  C   -0.222926
    23  C   -0.170670
    24  C    0.157968
    25  C   -0.170667
    26  C   -0.222459
    27  H    0.242286
    28  H    0.223208
    29  H    0.274950
    30  H    0.275049
    31  H    0.223364
    32  N    0.488041
    33  O   -0.460818
    34  O   -0.460879
 Sum of Mulliken charges =  -0.00000

 Dipole moment (field-independent basis, Debye):
    X=             -5.3005    Y=              1.6914    Z=             -0.4209  Tot=              5.5798
 Quadrupole moment (field-independent basis, Debye-Ang):
   XX=           -128.0969   YY=            -91.7455   ZZ=            -93.9852
   XY=              7.5402   XZ=             -1.9352   YZ=             -1.8272

 Normal termination of Gaussian 16 at Thu May  6 10:31:47 2021.
