 Gaussian 16, Revision A.03,
 Gaussian 16:  EM64L-G16RevA.03 25-Dec-2016

 -------------
 #p 6-31g* mp2
 -------------

 ------------------------------------------------------
 Input file generated by CHIRIPA (05-May-2021 14:51:07)
 ------------------------------------------------------
 Symbolic Z-matrix:
 Charge =  0 Multiplicity = 1

                         Standard orientation:
 ---------------------------------------------------------------------
 Center     Atomic      Atomic             Coordinates (Angstroms)
 Number     Number       Type             X           Y           Z
 ---------------------------------------------------------------------
      1          6           0       -4.274318   -0.064299    0.069846
      2          6           0       -4.847133    1.259772   -0.436814
      3          6           0       -6.349097    1.186779   -0.713527
      4          1           0       -4.474325   -0.850441   -0.671047
      5          1           0       -4.803287   -0.357506    0.987242
      6          1           0       -4.316300    1.551093   -1.352218
      7          1           0       -4.645570    2.042893    0.305285
      8          1           0       -6.895995    0.920190    0.196657
      9          1           0       -6.564854    0.425596   -1.470263
     10          1           0       -6.737754    2.144023   -1.074761
     11          6           0       -2.773840   -0.007188    0.350977
     12          6           0       -2.201025   -1.331259    0.857636
     13          6           0       -0.699061   -1.258265    1.134349
     14          1           0       -2.244871    0.286020   -0.566419
     15          1           0       -2.573832    0.778954    1.091870
     16          1           0       -2.402588   -2.114380    0.115537
     17          1           0       -2.731858   -1.622580    1.773040
     18          1           0       -0.483304   -0.497082    1.891086
     19          1           0       -0.152163   -0.991677    0.224166
     20          1           0       -0.310404   -2.215509    1.495583
     21          6           0        3.237134   -0.620985    0.053791
     22          6           0        3.014550   -1.668176   -1.037919
     23          6           0        2.440134   -2.976517   -0.493783
     24          1           0        3.914575   -1.032112    0.814707
     25          1           0        2.282760   -0.420908    0.560282
     26          1           0        3.968788   -1.865202   -1.543120
     27          1           0        2.337713   -1.254440   -1.796424
     28          1           0        1.475413   -2.800696   -0.006953
     29          1           0        3.115756   -3.414929    0.247790
     30          1           0        2.288956   -3.710908   -1.291076
     31          6           0        3.811024    0.692472   -0.474613
     32          6           0        4.033608    1.739663    0.617097
     33          6           0        4.608025    3.048004    0.072961
     34          1           0        4.765397    0.492394   -0.981104
     35          1           0        3.133583    1.103598   -1.235529
     36          1           0        4.710445    1.325926    1.375602
     37          1           0        3.079370    1.936689    1.122298
     38          1           0        3.932402    3.486415   -0.668612
     39          1           0        5.572745    2.872183   -0.413869
     40          1           0        4.759201    3.782393    0.870254
 ---------------------------------------------------------------------

 SCF Done:  E(RHF) =  -470.732095936     A.U. after   11 cycles
 E2 =    -0.1583681975D+01 EUMP2 =    -0.47231577791110D+03

 The electronic state is 1-A.
 Alpha  occ. eigenvalues --  -11.21685 -11.21644 -11.21548 -11.21512 -11.21471
 Alpha  occ. eigenvalues --  -11.21407 -11.21315 -11.21225 -11.21187 -11.21103
 Alpha  occ. eigenvalues --  -11.21032 -11.20859  -1.08501  -1.08343  -1.03623
 Alpha  occ. eigenvalues --   -1.03434  -0.96082  -0.95878  -0.87110  -0.86897
 Alpha  occ. eigenvalues --   -0.79736  -0.79470  -0.78324  -0.78132  -0.65175
 Alpha  occ. eigenvalues --   -0.64958  -0.61163  -0.60736  -0.59471  -0.59240
 Alpha  occ. eigenvalues --   -0.57719  -0.57468  -0.55463  -0.55078  -0.52833
 Alpha  occ. eigenvalues --   -0.52601  -0.52519  -0.52224  -0.50081  -0.49758
 Alpha  occ. eigenvalues --   -0.48003  -0.47812  -0.46779  -0.46464  -0.45934
 Alpha  occ. eigenvalues --   -0.45782  -0.45683  -0.45439  -0.43806  -0.43691
 Alpha virt. eigenvalues --    0.21525   0.22984   0.23842   0.24817   0.26026
 Alpha virt. eigenvalues --    0.26582   0.27046   0.27425   0.28070   0.29321
 Alpha virt. eigenvalues --    0.30612   0.31078   0.31596   0.31865   0.32446

 Mulliken charges:
               1
     1  C   -0.298361
     2  C   -0.299698
     3  C   -0.475750
     4  H    0.149869
     5  H    0.149748
     6  H    0.151935
     7  H    0.151994
     8  H    0.155273
     9  H    0.155276
    10  H    0.160394
    11  C   -0.298814
    12  C   -0.300545
    13  C   -0.481332
    14  H    0.149529
    15  H    0.149744
    16  H    0.152720
    17  H    0.152465
    18  H    0.155773
    19  H    0.158641
    20  H    0.163698
    21  C   -0.305207
    22  C   -0.298967
    23  C   -0.484102
    24  H    0.149145
    25  H    0.157792
    26  H    0.151656
    27  H    0.149930
    28  H    0.165476
    29  H    0.153996
    30  H    0.158718
    31  C   -0.297750
    32  C   -0.299550
    33  C   -0.475629
    34  H    0.149230
    35  H    0.148878
    36  H    0.151836
    37  H    0.151864
    38  H    0.155023
    39  H    0.155093
    40  H    0.160008
 Sum of Mulliken charges =  -0.00000

 Dipole moment (field-independent basis, Debye):
    X=             -0.0882    Y=              0.0041    Z=              0.0483  Tot=              0.1006
 Quadrupole moment (field-independent basis, Debye-Ang):
   XX=            -85.3980   YY=            -85.7371   ZZ=            -83.9621
   XY=             -0.5843   XZ=             -0.1241   YZ=              0.4041

 Normal termination of Gaussian 16 at Thu May  6 09:59:12 2021.
