 Gaussian 16, Revision A.03,
 Gaussian 16:  EM64L-G16RevA.03 25-Dec-2016

 -------------
 #p 6-31g* mp2
 -------------

 ------------------------------------------------------
 Input file generated by CHIRIPA (05-May-2021 14:53:12)
 ------------------------------------------------------
 Symbolic Z-matrix:
 Charge =  0 Multiplicity = 1

                         Standard orientation:
 ---------------------------------------------------------------------
 Center     Atomic      Atomic             Coordinates (Angstroms)
 Number     Number       Type             X           Y           Z
 ---------------------------------------------------------------------
      1          6           0       -4.270597   -0.283091   -0.504772
      2          6           0       -5.294949    0.838066   -0.326744
      3          6           0       -6.090442    1.119930   -1.601709
      4          1           0       -3.581163   -0.015598   -1.317221
      5          1           0       -4.789834   -1.197436   -0.823770
      6          1           0       -4.774103    1.749656   -0.006839
      7          1           0       -5.981907    0.567959    0.485505
      8          1           0       -6.635568    0.225870   -1.921231
      9          1           0       -5.420902    1.414281   -2.416372
     10          1           0       -6.816857    1.924770   -1.451996
     11          6           0       -3.467460   -0.576531    0.761163
     12          6           0       -2.443107   -1.697688    0.583135
     13          6           0       -1.647614   -1.979552    1.858101
     14          1           0       -2.948222    0.337814    1.080161
     15          1           0       -4.156893   -0.844024    1.573613
     16          1           0       -1.756149   -1.427581   -0.229113
     17          1           0       -2.963953   -2.609278    0.263230
     18          1           0       -2.317154   -2.273903    2.672763
     19          1           0       -1.102488   -1.085492    2.177623
     20          1           0       -0.921199   -2.784392    1.708388
     21          6           0        1.206795    1.772079    0.902627
     22          6           0        0.870705    0.628000    0.171430
     23          6           0        1.868536   -0.175214   -0.388684
     24          6           0        3.198231    0.196934   -0.197098
     25          6           0        3.564956    1.330754    0.526267
     26          6           0        2.550479    2.119193    1.077404
     27          1           0        0.425192    2.390296    1.334250
     28          1           0       -0.171981    0.355994    0.034082
     29          1           0        1.636465   -1.066263   -0.959292
     30          1           0        4.613176    1.576262    0.646174
     31          1           0        2.814440    3.007138    1.644785
     32          7           0        4.263400   -0.645571   -0.785314
     33          8           0        5.427418   -0.296059   -0.602167
     34          8           0        3.914095   -1.639486   -1.418366
 ---------------------------------------------------------------------

 SCF Done:  E(RHF) =  -669.535232780     A.U. after   15 cycles
 E2 =    -0.2092079782D+01 EUMP2 =    -0.67162731256213D+03

 The electronic state is 1-A.
 Alpha  occ. eigenvalues --  -20.60754 -20.60749 -15.85807 -11.31178 -11.27746
 Alpha  occ. eigenvalues --  -11.27739 -11.27493 -11.26765 -11.26725 -11.22586
 Alpha  occ. eigenvalues --  -11.22343 -11.22281 -11.22153 -11.21838 -11.21614
 Alpha  occ. eigenvalues --   -1.59829  -1.39382  -1.19350  -1.09286  -1.08745
 Alpha  occ. eigenvalues --   -1.04761  -1.04307  -0.96733  -0.95580  -0.87743
 Alpha  occ. eigenvalues --   -0.86155  -0.82414  -0.80380  -0.79082  -0.77462
 Alpha  occ. eigenvalues --   -0.72026  -0.71152  -0.70462  -0.66069  -0.65003
 Alpha  occ. eigenvalues --   -0.64712  -0.62284  -0.61494  -0.60099  -0.58340
 Alpha  occ. eigenvalues --   -0.56040  -0.55249  -0.53399  -0.53158  -0.53065
 Alpha  occ. eigenvalues --   -0.52818  -0.50682  -0.48798  -0.48780  -0.48656
 Alpha  occ. eigenvalues --   -0.47455  -0.46602  -0.46564  -0.44787  -0.44568
 Alpha  occ. eigenvalues --   -0.37330  -0.36341
 Alpha virt. eigenvalues --    0.05074   0.11213   0.16532   0.18688   0.22810
 Alpha virt. eigenvalues --    0.23845   0.25446   0.25629   0.27179   0.28312
 Alpha virt. eigenvalues --    0.29018   0.30564   0.30920   0.31071   0.31935

 Mulliken charges:
               1
     1  C   -0.298511
     2  C   -0.299717
     3  C   -0.476205
     4  H    0.147603
     5  H    0.153393
     6  H    0.149718
     7  H    0.153798
     8  H    0.157065
     9  H    0.155757
    10  H    0.161969
    11  C   -0.299312
    12  C   -0.304663
    13  C   -0.477937
    14  H    0.141392
    15  H    0.154799
    16  H    0.142580
    17  H    0.159810
    18  H    0.159080
    19  H    0.152886
    20  H    0.165578
    21  C   -0.173240
    22  C   -0.223197
    23  C   -0.173282
    24  C    0.158723
    25  C   -0.171047
    26  C   -0.218263
    27  H    0.225516
    28  H    0.234011
    29  H    0.275481
    30  H    0.275613
    31  H    0.223373
    32  N    0.488101
    33  O   -0.460514
    34  O   -0.460355
 Sum of Mulliken charges =  -0.00000

 Dipole moment (field-independent basis, Debye):
    X=             -3.9340    Y=              2.8766    Z=              2.1029  Tot=              5.3078
 Quadrupole moment (field-independent basis, Debye-Ang):
   XX=           -115.6982   YY=            -91.4817   ZZ=            -96.1267
   XY=             12.2538   XZ=              8.1633   YZ=              1.1224

 Normal termination of Gaussian 16 at Thu May  6 15:19:50 2021.
