 Gaussian 16, Revision A.03,
 Gaussian 16:  EM64L-G16RevA.03 25-Dec-2016

 -------------
 #p 6-31g* mp2
 -------------

 ------------------------------------------------------
 Input file generated by CHIRIPA (05-May-2021 14:57:24)
 ------------------------------------------------------
 Symbolic Z-matrix:
 Charge =  0 Multiplicity = 1

                         Standard orientation:
 ---------------------------------------------------------------------
 Center     Atomic      Atomic             Coordinates (Angstroms)
 Number     Number       Type             X           Y           Z
 ---------------------------------------------------------------------
      1          6           0        1.111315    1.043252    1.419375
      2          6           0        1.300222   -0.342443    1.445570
      3          6           0        2.407485   -0.920075    0.817192
      4          6           0        3.310075   -0.078419    0.168937
      5          6           0        3.149441    1.305628    0.125338
      6          6           0        2.034899    1.861422    0.760505
      7          1           0        0.248339    1.483488    1.910151
      8          1           0        0.584582   -0.980295    1.956500
      9          1           0        2.578066   -1.989793    0.822030
     10          1           0        3.879978    1.915652   -0.391967
     11          1           0        1.890741    2.937889    0.738543
     12          7           0        4.486138   -0.678373   -0.499892
     13          8           0        5.266840    0.084925   -1.064265
     14          8           0        4.604964   -1.900555   -0.447083
     15          6           0       -2.331391    2.350017   -0.640773
     16          6           0       -3.620768    2.105708   -0.156688
     17          6           0       -4.066264    0.796356    0.047475
     18          6           0       -3.192122   -0.249630   -0.244209
     19          6           0       -1.901769   -0.038541   -0.727654
     20          6           0       -1.477511    1.279002   -0.924212
     21          1           0       -1.993567    3.370335   -0.796418
     22          1           0       -4.286066    2.935521    0.064293
     23          1           0       -5.059414    0.578699    0.421233
     24          1           0       -1.261372   -0.886297   -0.938888
     25          1           0       -0.475635    1.465747   -1.300264
     26          7           0       -3.652507   -1.640117   -0.032097
     27          8           0       -2.863134   -2.544278   -0.296712
     28          8           0       -4.794012   -1.799491    0.394757
 ---------------------------------------------------------------------

 SCF Done:  E(RHF) =  -868.337324648     A.U. after   16 cycles
 E2 =    -0.2602122974D+01 EUMP2 =    -0.87093944762184D+03

 The electronic state is 1-A.
 Alpha  occ. eigenvalues --  -20.61375 -20.61361 -20.61159 -20.61144 -15.86422
 Alpha  occ. eigenvalues --  -15.86217 -11.31847 -11.31699 -11.28375 -11.28375
 Alpha  occ. eigenvalues --  -11.28344 -11.28271 -11.28144 -11.28047 -11.27444
 Alpha  occ. eigenvalues --  -11.27376 -11.27351 -11.27221  -1.60447  -1.60231
 Alpha  occ. eigenvalues --   -1.39997  -1.39780  -1.20027  -1.19914  -1.09421
 Alpha  occ. eigenvalues --   -1.09269  -1.05399  -1.05330  -0.96228  -0.96081
 Alpha  occ. eigenvalues --   -0.86825  -0.86680  -0.83042  -0.82894  -0.78081
 Alpha  occ. eigenvalues --   -0.77928  -0.72631  -0.72426  -0.71780  -0.71564
 Alpha  occ. eigenvalues --   -0.71113  -0.70979  -0.65652  -0.65552  -0.65369
 Alpha  occ. eigenvalues --   -0.65301  -0.62733  -0.62646  -0.55922  -0.55804
 Alpha  occ. eigenvalues --   -0.54068  -0.53563  -0.53382  -0.53263  -0.49396
 Alpha  occ. eigenvalues --   -0.49388  -0.49197  -0.49175  -0.45388  -0.45159
 Alpha  occ. eigenvalues --   -0.38397  -0.37951  -0.37004  -0.36520
 Alpha virt. eigenvalues --    0.04308   0.04671   0.10107   0.11117   0.15680
 Alpha virt. eigenvalues --    0.16291   0.20525   0.21244   0.26568   0.26755
 Alpha virt. eigenvalues --    0.27664   0.28056   0.30296   0.30676   0.31803

 Mulliken charges:
               1
     1  C   -0.168162
     2  C   -0.224370
     3  C   -0.171922
     4  C    0.157118
     5  C   -0.171814
     6  C   -0.227936
     7  H    0.229559
     8  H    0.231371
     9  H    0.280634
    10  H    0.276568
    11  H    0.221004
    12  N    0.488096
    13  O   -0.460340
    14  O   -0.457326
    15  C   -0.178098
    16  C   -0.218401
    17  C   -0.172433
    18  C    0.157188
    19  C   -0.174624
    20  C   -0.219744
    21  H    0.224648
    22  H    0.224912
    23  H    0.276991
    24  H    0.277526
    25  H    0.230371
    26  N    0.487627
    27  O   -0.460082
    28  O   -0.458362
 Sum of Mulliken charges =  -0.00000

 Dipole moment (field-independent basis, Debye):
    X=             -2.4981    Y=              6.8660    Z=              1.6520  Tot=              7.4908
 Quadrupole moment (field-independent basis, Debye-Ang):
   XX=           -138.7714   YY=           -103.5828   ZZ=           -104.0401
   XY=             -9.1546   XZ=              7.1298   YZ=             -1.7780

 Normal termination of Gaussian 16 at Thu May  6 11:21:12 2021.
