 Gaussian 16, Revision A.03,
 Gaussian 16:  EM64L-G16RevA.03 25-Dec-2016

 -------------
 #p 6-31g* mp2
 -------------

 ------------------------------------------------------
 Input file generated by CHIRIPA (05-May-2021 14:53:14)
 ------------------------------------------------------
 Symbolic Z-matrix:
 Charge =  0 Multiplicity = 1

                         Standard orientation:
 ---------------------------------------------------------------------
 Center     Atomic      Atomic             Coordinates (Angstroms)
 Number     Number       Type             X           Y           Z
 ---------------------------------------------------------------------
      1          6           0        3.906912   -0.886479   -0.179886
      2          6           0        2.696305   -1.273290    0.670286
      3          6           0        2.017634   -2.554294    0.184252
      4          1           0        3.588778   -0.761150   -1.223931
      5          1           0        4.631480   -1.712503   -0.170924
      6          1           0        1.974851   -0.446229    0.660849
      7          1           0        3.017322   -1.397525    1.712461
      8          1           0        2.718267   -3.395150    0.210218
      9          1           0        1.669872   -2.438449   -0.847370
     10          1           0        1.154796   -2.812317    0.806180
     11          6           0        4.596043    0.392067    0.293555
     12          6           0        5.806650    0.778879   -0.556617
     13          6           0        6.485321    2.059882   -0.070583
     14          1           0        3.871474    1.218091    0.284593
     15          1           0        4.914177    0.266739    1.337600
     16          1           0        5.485633    0.903114   -1.598792
     17          1           0        6.528104   -0.048183   -0.547180
     18          1           0        6.833082    1.944037    0.961039
     19          1           0        5.784688    2.900739   -0.096549
     20          1           0        7.348159    2.317906   -0.692511
     21          6           0       -2.747014   -2.258273   -0.207351
     22          6           0       -1.727197   -1.303190   -0.141698
     23          6           0       -2.033808    0.057821   -0.051207
     24          6           0       -3.377003    0.430122   -0.028648
     25          6           0       -4.415563   -0.497567   -0.092502
     26          6           0       -4.085583   -1.853127   -0.182587
     27          1           0       -2.499755   -3.313422   -0.277488
     28          1           0       -0.686765   -1.614932   -0.160734
     29          1           0       -1.264145    0.818288    0.000993
     30          1           0       -5.443414   -0.156249   -0.071466
     31          1           0       -4.879666   -2.592648   -0.233430
     32          7           0       -3.713968    1.868079    0.066935
     33          8           0       -4.905179    2.170278    0.085070
     34          8           0       -2.780490    2.665721    0.121908
 ---------------------------------------------------------------------

 SCF Done:  E(RHF) =  -669.535316160     A.U. after   15 cycles
 E2 =    -0.2091411597D+01 EUMP2 =    -0.67162672775666D+03

 The electronic state is 1-A.
 Alpha  occ. eigenvalues --  -20.60720 -20.60714 -15.85771 -11.31118 -11.27684
 Alpha  occ. eigenvalues --  -11.27668 -11.27408 -11.26700 -11.26593 -11.22533
 Alpha  occ. eigenvalues --  -11.22278 -11.22035 -11.21925 -11.21806 -11.21281
 Alpha  occ. eigenvalues --   -1.59795  -1.39349  -1.19281  -1.09039  -1.08680
 Alpha  occ. eigenvalues --   -1.04684  -1.04181  -0.96650  -0.95521  -0.87677
 Alpha  occ. eigenvalues --   -0.86074  -0.82352  -0.80260  -0.78780  -0.77407
 Alpha  occ. eigenvalues --   -0.71990  -0.71118  -0.70396  -0.65703  -0.64931
 Alpha  occ. eigenvalues --   -0.64713  -0.62169  -0.61479  -0.60029  -0.58217
 Alpha  occ. eigenvalues --   -0.55951  -0.55164  -0.53438  -0.53092  -0.53002
 Alpha  occ. eigenvalues --   -0.52632  -0.50558  -0.48747  -0.48742  -0.48561
 Alpha  occ. eigenvalues --   -0.47285  -0.46334  -0.46222  -0.44759  -0.44410
 Alpha  occ. eigenvalues --   -0.37264  -0.36281
 Alpha virt. eigenvalues --    0.05124   0.11328   0.16610   0.19633   0.22747
 Alpha virt. eigenvalues --    0.23879   0.25588   0.26444   0.26769   0.28112
 Alpha virt. eigenvalues --    0.29078   0.30513   0.30966   0.31445   0.31784

 Mulliken charges:
               1
     1  C   -0.298964
     2  C   -0.300638
     3  C   -0.487348
     4  H    0.150473
     5  H    0.151462
     6  H    0.148601
     7  H    0.157395
     8  H    0.164569
     9  H    0.153403
    10  H    0.156168
    11  C   -0.299260
    12  C   -0.300228
    13  C   -0.476286
    14  H    0.151542
    15  H    0.151037
    16  H    0.152717
    17  H    0.152091
    18  H    0.155703
    19  H    0.157108
    20  H    0.161445
    21  C   -0.174449
    22  C   -0.229264
    23  C   -0.174694
    24  C    0.159140
    25  C   -0.171515
    26  C   -0.218322
    27  H    0.225797
    28  H    0.242482
    29  H    0.274945
    30  H    0.275260
    31  H    0.223033
    32  N    0.488073
    33  O   -0.460698
    34  O   -0.460781
 Sum of Mulliken charges =  -0.00000

 Dipole moment (field-independent basis, Debye):
    X=              1.4519    Y=             -5.0740    Z=             -0.3188  Tot=              5.2872
 Quadrupole moment (field-independent basis, Debye-Ang):
   XX=            -97.1683   YY=            -99.8925   ZZ=            -95.3123
   XY=             18.1627   XZ=              1.5334   YZ=             -0.5516

 Normal termination of Gaussian 16 at Thu May  6 02:37:41 2021.
