 Gaussian 16, Revision A.03,
 Gaussian 16:  EM64L-G16RevA.03 25-Dec-2016

 -------------
 #p 6-31g* mp2
 -------------

 ------------------------------------------------------
 Input file generated by CHIRIPA (05-May-2021 14:53:16)
 ------------------------------------------------------
 Symbolic Z-matrix:
 Charge =  0 Multiplicity = 1

                         Standard orientation:
 ---------------------------------------------------------------------
 Center     Atomic      Atomic             Coordinates (Angstroms)
 Number     Number       Type             X           Y           Z
 ---------------------------------------------------------------------
      1          6           0        3.649856    0.450408   -0.048006
      2          6           0        3.399286    1.932924    0.230105
      3          6           0        1.916811    2.256931    0.417405
      4          1           0        3.091713    0.152949   -0.946305
      5          1           0        3.245591   -0.144735    0.782518
      6          1           0        3.805134    2.525176   -0.600039
      7          1           0        3.958243    2.226933    1.127736
      8          1           0        1.502070    1.691290    1.258025
      9          1           0        1.348091    1.991227   -0.479568
     10          1           0        1.760505    3.321986    0.615103
     11          6           0        5.127181    0.110828   -0.237538
     12          6           0        5.377751   -1.371688   -0.515650
     13          6           0        6.860226   -1.695695   -0.702950
     14          1           0        5.531446    0.705970   -1.068063
     15          1           0        5.685324    0.408286    0.660760
     16          1           0        4.818794   -1.665698   -1.413281
     17          1           0        4.971903   -1.963941    0.314495
     18          1           0        7.428946   -1.429992    0.194023
     19          1           0        7.274967   -1.130054   -1.543570
     20          1           0        7.016532   -2.760751   -0.900648
     21          6           0       -1.296288   -0.355167    1.453551
     22          6           0       -2.198304   -1.424190    1.462376
     23          6           0       -3.382824   -1.359837    0.722567
     24          6           0       -3.634667   -0.206090   -0.018200
     25          6           0       -2.755773    0.875569   -0.047292
     26          6           0       -1.577405    0.789283    0.700073
     27          1           0       -0.378515   -0.413677    2.031187
     28          1           0       -1.982597   -2.314233    2.046618
     29          1           0       -4.098612   -2.172821    0.711490
     30          1           0       -2.998324    1.749649   -0.639382
     31          1           0       -0.878720    1.621033    0.691341
     32          7           0       -4.885409   -0.126354   -0.805402
     33          8           0       -5.084046    0.901208   -1.449837
     34          8           0       -5.643419   -1.092928   -0.763071
 ---------------------------------------------------------------------

 SCF Done:  E(RHF) =  -669.535069324     A.U. after   15 cycles
 E2 =    -0.2091540045D+01 EUMP2 =    -0.67162660936916D+03

 The electronic state is 1-A.
 Alpha  occ. eigenvalues --  -20.60689 -20.60684 -15.85740 -11.31082 -11.27649
 Alpha  occ. eigenvalues --  -11.27619 -11.27377 -11.26674 -11.26547 -11.22559
 Alpha  occ. eigenvalues --  -11.22381 -11.22218 -11.22157 -11.22018 -11.21524
 Alpha  occ. eigenvalues --   -1.59765  -1.39319  -1.19245  -1.09201  -1.08647
 Alpha  occ. eigenvalues --   -1.04647  -1.04329  -0.96820  -0.95488  -0.87865
 Alpha  occ. eigenvalues --   -0.86034  -0.82319  -0.80428  -0.78979  -0.77364
 Alpha  occ. eigenvalues --   -0.71960  -0.71088  -0.70368  -0.65827  -0.64896
 Alpha  occ. eigenvalues --   -0.64668  -0.62019  -0.61726  -0.60185  -0.58380
 Alpha  occ. eigenvalues --   -0.56114  -0.55156  -0.53570  -0.53350  -0.52967
 Alpha  occ. eigenvalues --   -0.52547  -0.50763  -0.48792  -0.48717  -0.48613
 Alpha  occ. eigenvalues --   -0.47428  -0.46523  -0.46424  -0.44730  -0.44567
 Alpha  occ. eigenvalues --   -0.37227  -0.36239
 Alpha virt. eigenvalues --    0.05154   0.11373   0.16635   0.20124   0.22260
 Alpha virt. eigenvalues --    0.23672   0.25198   0.25877   0.26730   0.27748
 Alpha virt. eigenvalues --    0.28898   0.29873   0.30802   0.31604   0.31765

 Mulliken charges:
               1
     1  C   -0.298371
     2  C   -0.300314
     3  C   -0.483428
     4  H    0.152394
     5  H    0.144803
     6  H    0.156738
     7  H    0.154640
     8  H    0.146195
     9  H    0.158106
    10  H    0.165002
    11  C   -0.298968
    12  C   -0.300052
    13  C   -0.476132
    14  H    0.151763
    15  H    0.150500
    16  H    0.153376
    17  H    0.150844
    18  H    0.155617
    19  H    0.156471
    20  H    0.161754
    21  C   -0.174238
    22  C   -0.218392
    23  C   -0.171598
    24  C    0.158914
    25  C   -0.173441
    26  C   -0.224370
    27  H    0.224784
    28  H    0.222796
    29  H    0.275089
    30  H    0.275334
    31  H    0.237678
    32  N    0.488004
    33  O   -0.460692
    34  O   -0.460807
 Sum of Mulliken charges =  -0.00000

 Dipole moment (field-independent basis, Debye):
    X=              4.6812    Y=             -0.2309    Z=              2.6994  Tot=              5.4087
 Quadrupole moment (field-independent basis, Debye-Ang):
   XX=           -127.5246   YY=            -90.5232   ZZ=            -94.1602
   XY=              1.9688   XZ=            -10.6193   YZ=             -2.5457

 Normal termination of Gaussian 16 at Thu May  6 01:09:02 2021.
