 Gaussian 16, Revision A.03,
 Gaussian 16:  EM64L-G16RevA.03 25-Dec-2016

 -------------
 #p 6-31g* mp2
 -------------

 ------------------------------------------------------
 Input file generated by CHIRIPA (05-May-2021 14:51:13)
 ------------------------------------------------------
 Symbolic Z-matrix:
 Charge =  0 Multiplicity = 1

                         Standard orientation:
 ---------------------------------------------------------------------
 Center     Atomic      Atomic             Coordinates (Angstroms)
 Number     Number       Type             X           Y           Z
 ---------------------------------------------------------------------
      1          6           0       -3.687468    0.513540    0.290446
      2          6           0       -4.888953    1.184240   -0.376322
      3          6           0       -5.265944    2.511522    0.282462
      4          1           0       -3.911727    0.346541    1.352879
      5          1           0       -2.828548    1.197990    0.256121
      6          1           0       -5.744971    0.498186   -0.341980
      7          1           0       -4.661882    1.349488   -1.437335
      8          1           0       -4.429478    3.216293    0.235299
      9          1           0       -5.518722    2.360154    1.336877
     10          1           0       -6.127204    2.973755   -0.209911
     11          6           0       -3.298481   -0.814351   -0.356949
     12          6           0       -2.096996   -1.485051    0.309819
     13          6           0       -1.720006   -2.812333   -0.348965
     14          1           0       -4.157402   -1.498801   -0.322624
     15          1           0       -3.074223   -0.647352   -1.419383
     16          1           0       -2.324068   -1.650299    1.370832
     17          1           0       -1.240978   -0.798997    0.275477
     18          1           0       -1.467228   -2.660965   -1.403380
     19          1           0       -2.556471   -3.517104   -0.301802
     20          1           0       -0.858745   -3.274566    0.143407
     21          6           0        3.889226    0.709630   -0.303920
     22          6           0        3.699298    2.073350    0.361048
     23          6           0        4.498377    3.181891   -0.324810
     24          1           0        4.957032    0.451370   -0.297843
     25          1           0        3.590466    0.779183   -1.359050
     26          1           0        3.997020    2.000891    1.414958
     27          1           0        2.631797    2.328306    0.353559
     28          1           0        4.196019    3.283199   -1.372148
     29          1           0        5.568998    2.953924   -0.304719
     30          1           0        4.347973    4.148144    0.166711
     31          6           0        3.096723   -0.408819    0.370423
     32          6           0        3.286652   -1.772538   -0.294544
     33          6           0        2.487572   -2.881081    0.391313
     34          1           0        3.395483   -0.478373    1.425554
     35          1           0        2.028917   -0.150559    0.364348
     36          1           0        4.354152   -2.027495   -0.287056
     37          1           0        2.988929   -1.700080   -1.348455
     38          1           0        1.416952   -2.653113    0.371222
     39          1           0        2.789931   -2.982387    1.438652
     40          1           0        2.637976   -3.847334   -0.100207
 ---------------------------------------------------------------------

 SCF Done:  E(RHF) =  -470.733276023     A.U. after   11 cycles
 E2 =    -0.1582592978D+01 EUMP2 =    -0.47231586900093D+03

 The electronic state is 1-A.
 Alpha  occ. eigenvalues --  -11.21648 -11.21622 -11.21614 -11.21596 -11.21434
 Alpha  occ. eigenvalues --  -11.21415 -11.21374 -11.21356 -11.21087 -11.21082
 Alpha  occ. eigenvalues --  -11.21073 -11.21031  -1.08461  -1.08434  -1.03570
 Alpha  occ. eigenvalues --   -1.03518  -0.96035  -0.95952  -0.87066  -0.86955
 Alpha  occ. eigenvalues --   -0.79633  -0.79581  -0.78276  -0.78244  -0.65118
 Alpha  occ. eigenvalues --   -0.65043  -0.61031  -0.60884  -0.59402  -0.59334
 Alpha  occ. eigenvalues --   -0.57719  -0.57507  -0.55351  -0.55207  -0.52799
 Alpha  occ. eigenvalues --   -0.52648  -0.52496  -0.52268  -0.49982  -0.49855
 Alpha  occ. eigenvalues --   -0.47978  -0.47853  -0.46663  -0.46609  -0.45841
 Alpha  occ. eigenvalues --   -0.45791  -0.45749  -0.45664  -0.43813  -0.43767
 Alpha virt. eigenvalues --    0.20828   0.23161   0.23466   0.24995   0.25746
 Alpha virt. eigenvalues --    0.26727   0.26985   0.27138   0.28181   0.28931
 Alpha virt. eigenvalues --    0.30614   0.30940   0.31595   0.31748   0.31999

 Mulliken charges:
               1
     1  C   -0.298264
     2  C   -0.299690
     3  C   -0.475720
     4  H    0.149849
     5  H    0.149295
     6  H    0.152025
     7  H    0.151907
     8  H    0.155165
     9  H    0.155265
    10  H    0.160325
    11  C   -0.298216
    12  C   -0.301447
    13  C   -0.480607
    14  H    0.149909
    15  H    0.149585
    16  H    0.152544
    17  H    0.151913
    18  H    0.154934
    19  H    0.155661
    20  H    0.165476
    21  C   -0.298311
    22  C   -0.299591
    23  C   -0.475711
    24  H    0.149810
    25  H    0.149399
    26  H    0.152067
    27  H    0.151661
    28  H    0.155107
    29  H    0.155257
    30  H    0.160290
    31  C   -0.299285
    32  C   -0.299064
    33  C   -0.483056
    34  H    0.149726
    35  H    0.149947
    36  H    0.151915
    37  H    0.151857
    38  H    0.162890
    39  H    0.154962
    40  H    0.160221
 Sum of Mulliken charges =  -0.00000

 Dipole moment (field-independent basis, Debye):
    X=             -0.0139    Y=             -0.0112    Z=              0.0064  Tot=              0.0189
 Quadrupole moment (field-independent basis, Debye-Ang):
   XX=            -84.1420   YY=            -86.2582   ZZ=            -84.2808
   XY=              0.1148   XZ=              0.4184   YZ=             -0.4582

 Normal termination of Gaussian 16 at Thu May  6 03:58:09 2021.
