 Gaussian 16, Revision A.03,
 Gaussian 16:  EM64L-G16RevA.03 25-Dec-2016

 -------------
 #p 6-31g* mp2
 -------------

 ------------------------------------------------------
 Input file generated by CHIRIPA (05-May-2021 14:53:14)
 ------------------------------------------------------
 Symbolic Z-matrix:
 Charge =  0 Multiplicity = 1

                         Standard orientation:
 ---------------------------------------------------------------------
 Center     Atomic      Atomic             Coordinates (Angstroms)
 Number     Number       Type             X           Y           Z
 ---------------------------------------------------------------------
      1          6           0       -3.191922    0.956505   -0.408513
      2          6           0       -1.720552    1.346689   -0.552781
      3          6           0       -1.531281    2.827672   -0.882417
      4          1           0       -3.721474    1.196737   -1.340612
      5          1           0       -3.651219    1.569981    0.378944
      6          1           0       -1.263819    0.731697   -1.338781
      7          1           0       -1.194402    1.105324    0.379702
      8          1           0       -1.960998    3.455534   -0.095186
      9          1           0       -2.030810    3.079784   -1.823433
     10          1           0       -0.472036    3.084809   -0.981110
     11          6           0       -3.397370   -0.520969   -0.078986
     12          6           0       -4.868740   -0.911152    0.065281
     13          6           0       -5.058011   -2.392135    0.394917
     14          1           0       -2.938073   -1.134444   -0.866444
     15          1           0       -2.867819   -0.761200    0.853113
     16          1           0       -5.394890   -0.669788   -0.867202
     17          1           0       -5.325473   -0.296160    0.851281
     18          1           0       -4.558482   -2.644247    1.335933
     19          1           0       -4.628294   -3.019997   -0.392314
     20          1           0       -6.117256   -2.649273    0.493611
     21          6           0        1.760731    0.822409    2.362865
     22          6           0        2.490664   -0.370775    2.368259
     23          6           0        2.946249   -0.929822    1.170571
     24          6           0        2.652560   -0.266087   -0.019594
     25          6           0        1.927622    0.923998   -0.057706
     26          6           0        1.482032    1.464856    1.152034
     27          1           0        1.410704    1.249626    3.297938
     28          1           0        2.708586   -0.871895    3.307106
     29          1           0        3.513378   -1.852413    1.145860
     30          1           0        1.725992    1.400490   -1.009398
     31          1           0        0.915370    2.391617    1.144816
     32          7           0        3.129578   -0.848296   -1.293911
     33          8           0        2.857662   -0.244085   -2.329106
     34          8           0        3.766348   -1.897820   -1.233398
 ---------------------------------------------------------------------

 SCF Done:  E(RHF) =  -669.534156814     A.U. after   15 cycles
 E2 =    -0.2093575172D+01 EUMP2 =    -0.67162773198676D+03

 The electronic state is 1-A.
 Alpha  occ. eigenvalues --  -20.60768 -20.60763 -15.85820 -11.31181 -11.27737
 Alpha  occ. eigenvalues --  -11.27728 -11.27487 -11.26768 -11.26718 -11.22003
 Alpha  occ. eigenvalues --  -11.21853 -11.21804 -11.21734 -11.21610 -11.21224
 Alpha  occ. eigenvalues --   -1.59843  -1.39396  -1.19357  -1.08792  -1.08731
 Alpha  occ. eigenvalues --   -1.04783  -1.03906  -0.96394  -0.95586  -0.87399
 Alpha  occ. eigenvalues --   -0.86160  -0.82430  -0.79980  -0.78563  -0.77460
 Alpha  occ. eigenvalues --   -0.72039  -0.71165  -0.70468  -0.65452  -0.65012
 Alpha  occ. eigenvalues --   -0.64743  -0.62226  -0.61287  -0.59730  -0.57975
 Alpha  occ. eigenvalues --   -0.55673  -0.55252  -0.53154  -0.53071  -0.52850
 Alpha  occ. eigenvalues --   -0.52771  -0.50305  -0.48797  -0.48793  -0.48293
 Alpha  occ. eigenvalues --   -0.46986  -0.46102  -0.46003  -0.44801  -0.44166
 Alpha  occ. eigenvalues --   -0.37335  -0.36254
 Alpha virt. eigenvalues --    0.05058   0.11190   0.16500   0.19909   0.22815
 Alpha virt. eigenvalues --    0.23860   0.26027   0.26444   0.27192   0.27790
 Alpha virt. eigenvalues --    0.29198   0.30474   0.31013   0.31349   0.31802

 Mulliken charges:
               1
     1  C   -0.297919
     2  C   -0.307580
     3  C   -0.480026
     4  H    0.151574
     5  H    0.147518
     6  H    0.157909
     7  H    0.154524
     8  H    0.154291
     9  H    0.163181
    10  H    0.150082
    11  C   -0.298699
    12  C   -0.299926
    13  C   -0.475887
    14  H    0.153159
    15  H    0.148378
    16  H    0.153152
    17  H    0.150802
    18  H    0.154262
    19  H    0.157137
    20  H    0.160771
    21  C   -0.173107
    22  C   -0.218276
    23  C   -0.171185
    24  C    0.158179
    25  C   -0.168469
    26  C   -0.220173
    27  H    0.225454
    28  H    0.223332
    29  H    0.275494
    30  H    0.276511
    31  H    0.228383
    32  N    0.488276
    33  O   -0.460726
    34  O   -0.460399
 Sum of Mulliken charges =  -0.00000

 Dipole moment (field-independent basis, Debye):
    X=             -1.7567    Y=              1.9817    Z=              4.4420  Tot=              5.1716
 Quadrupole moment (field-independent basis, Debye-Ang):
   XX=           -103.4784   YY=            -94.5217   ZZ=            -93.1247
   XY=              3.8342   XZ=             13.5729   YZ=             -2.9560

 Normal termination of Gaussian 16 at Thu May  6 12:08:35 2021.
