 Gaussian 16, Revision A.03,
 Gaussian 16:  EM64L-G16RevA.03 25-Dec-2016

 -------------
 #p 6-31g* mp2
 -------------

 ------------------------------------------------------
 Input file generated by CHIRIPA (05-May-2021 14:55:21)
 ------------------------------------------------------
 Symbolic Z-matrix:
 Charge =  0 Multiplicity = 1

                         Standard orientation:
 ---------------------------------------------------------------------
 Center     Atomic      Atomic             Coordinates (Angstroms)
 Number     Number       Type             X           Y           Z
 ---------------------------------------------------------------------
      1          6           0       -4.434005   -1.649341   -0.038564
      2          6           0       -4.343739   -0.741683   -1.099002
      3          6           0       -3.489366    0.361974   -1.018157
      4          6           0       -2.736329    0.528081    0.143150
      5          6           0       -2.804214   -0.358718    1.216588
      6          6           0       -3.665310   -1.455304    1.113815
      7          1           0       -5.100314   -2.503941   -0.109883
      8          1           0       -4.939531   -0.889857   -1.995173
      9          1           0       -3.400029    1.080114   -1.824204
     10          1           0       -2.197792   -0.184485    2.097107
     11          1           0       -3.733372   -2.158582    1.938929
     12          7           0       -1.828284    1.692730    0.240344
     13          8           0       -1.175416    1.816676    1.274288
     14          8           0       -1.786619    2.459583   -0.719258
     15          6           0        4.284015    0.053916   -0.193882
     16          6           0        5.618004   -0.590597    0.184354
     17          6           0        6.788691    0.390619    0.117256
     18          1           0        4.359028    0.468618   -1.208446
     19          1           0        4.091383    0.902432    0.477168
     20          1           0        5.807399   -1.438498   -0.486325
     21          1           0        5.539747   -1.003982    1.198062
     22          1           0        6.626131    1.231501    0.799234
     23          1           0        6.895303    0.794515   -0.894723
     24          1           0        7.732446   -0.091037    0.391471
     25          6           0        3.104108   -0.914415   -0.131574
     26          6           0        1.770119   -0.269902   -0.509810
     27          6           0        0.599432   -1.251118   -0.442712
     28          1           0        3.296740   -1.762930   -0.802624
     29          1           0        3.029095   -1.329117    0.882990
     30          1           0        1.848377    0.143482   -1.523519
     31          1           0        1.580724    0.577999    0.160868
     32          1           0        0.492820   -1.655015    0.569266
     33          1           0        0.761992   -2.091999   -1.124690
     34          1           0       -0.344323   -0.769462   -0.716928
 ---------------------------------------------------------------------

 SCF Done:  E(RHF) =  -669.535106921     A.U. after   15 cycles
 E2 =    -0.2093154455D+01 EUMP2 =    -0.67162826137613D+03

 The electronic state is 1-A.
 Alpha  occ. eigenvalues --  -20.60869 -20.60860 -15.85892 -11.31191 -11.27792
 Alpha  occ. eigenvalues --  -11.27769 -11.27528 -11.26799 -11.26786 -11.21198
 Alpha  occ. eigenvalues --  -11.20936 -11.20887 -11.20837 -11.20733 -11.20692
 Alpha  occ. eigenvalues --   -1.59926  -1.39481  -1.19400  -1.08803  -1.07933
 Alpha  occ. eigenvalues --   -1.04790  -1.03074  -0.95642  -0.95565  -0.86592
 Alpha  occ. eigenvalues --   -0.86188  -0.82472  -0.79124  -0.77729  -0.77523
 Alpha  occ. eigenvalues --   -0.72118  -0.71276  -0.70502  -0.65049  -0.64795
 Alpha  occ. eigenvalues --   -0.64557  -0.62139  -0.60460  -0.58960  -0.57184
 Alpha  occ. eigenvalues --   -0.55297  -0.54861  -0.53330  -0.52883  -0.52087
 Alpha  occ. eigenvalues --   -0.51966  -0.49500  -0.48879  -0.48875  -0.47453
 Alpha  occ. eigenvalues --   -0.46138  -0.45293  -0.45219  -0.44818  -0.43345
 Alpha  occ. eigenvalues --   -0.37310  -0.36379
 Alpha virt. eigenvalues --    0.04976   0.11238   0.16461   0.21354   0.23313
 Alpha virt. eigenvalues --    0.24535   0.27027   0.27341   0.27960   0.28095
 Alpha virt. eigenvalues --    0.28455   0.30995   0.31515   0.31859   0.32371

 Mulliken charges:
               1
     1  C   -0.170585
     2  C   -0.217523
     3  C   -0.172792
     4  C    0.154000
     5  C   -0.167761
     6  C   -0.217440
     7  H    0.225812
     8  H    0.223622
     9  H    0.275782
    10  H    0.275230
    11  H    0.223589
    12  N    0.492595
    13  O   -0.460711
    14  O   -0.459634
    15  C   -0.298654
    16  C   -0.299254
    17  C   -0.475542
    18  H    0.149761
    19  H    0.153606
    20  H    0.150085
    21  H    0.150870
    22  H    0.156236
    23  H    0.155027
    24  H    0.158542
    25  C   -0.298040
    26  C   -0.305193
    27  C   -0.476490
    28  H    0.146012
    29  H    0.147615
    30  H    0.152473
    31  H    0.168737
    32  H    0.150599
    33  H    0.151865
    34  H    0.157562
 Sum of Mulliken charges =  -0.00000

 Dipole moment (field-independent basis, Debye):
    X=             -3.3034    Y=             -3.9867    Z=             -0.3010  Tot=              5.1862
 Quadrupole moment (field-independent basis, Debye-Ang):
   XX=            -78.6376   YY=            -99.7390   ZZ=            -89.8736
   XY=              9.0871   XZ=              1.8989   YZ=             -2.1538

 Normal termination of Gaussian 16 at Thu May  6 15:50:13 2021.
