 Gaussian 16, Revision A.03,
 Gaussian 16:  EM64L-G16RevA.03 25-Dec-2016

 -------------
 #p 6-31g* mp2
 -------------

 ------------------------------------------------------
 Input file generated by CHIRIPA (05-May-2021 14:53:18)
 ------------------------------------------------------
 Symbolic Z-matrix:
 Charge =  0 Multiplicity = 1

                         Standard orientation:
 ---------------------------------------------------------------------
 Center     Atomic      Atomic             Coordinates (Angstroms)
 Number     Number       Type             X           Y           Z
 ---------------------------------------------------------------------
      1          6           0       -3.569728    0.282391   -0.404536
      2          6           0       -3.557051   -1.242160   -0.288059
      3          6           0       -4.803796   -1.891385   -0.889665
      4          1           0       -4.466293    0.674481    0.094845
      5          1           0       -3.654705    0.561532   -1.463901
      6          1           0       -3.470729   -1.518338    0.770662
      7          1           0       -2.660313   -1.630652   -0.787610
      8          1           0       -4.891682   -1.644801   -1.952714
      9          1           0       -5.706703   -1.531849   -0.385588
     10          1           0       -4.773941   -2.981392   -0.795575
     11          6           0       -2.329927    0.945908    0.192429
     12          6           0       -2.342603    2.470459    0.075952
     13          6           0       -1.095859    3.119684    0.677558
     14          1           0       -2.244949    0.666767    1.251794
     15          1           0       -1.433361    0.553818   -0.306953
     16          1           0       -3.239341    2.858952    0.575503
     17          1           0       -2.428925    2.746637   -0.982769
     18          1           0       -0.192951    2.760148    0.173481
     19          1           0       -1.007972    2.873101    1.740607
     20          1           0       -1.125713    4.209691    0.583468
     21          6           0        1.046847   -2.468271    0.993952
     22          6           0        0.661169   -1.172208    1.351712
     23          6           0        1.350765   -0.063052    0.852937
     24          6           0        2.426143   -0.287567   -0.005226
     25          6           0        2.834554   -1.566575   -0.380232
     26          6           0        2.130399   -2.660979    0.130643
     27          1           0        0.505497   -3.324161    1.386112
     28          1           0       -0.179944   -1.019542    2.021986
     29          1           0        1.073495    0.951163    1.113527
     30          1           0        3.677101   -1.687071   -1.050316
     31          1           0        2.432155   -3.666382   -0.148915
     32          7           0        3.163894    0.878838   -0.539663
     33          8           0        4.107855    0.654287   -1.294085
     34          8           0        2.784213    1.995533   -0.194013
 ---------------------------------------------------------------------

 SCF Done:  E(RHF) =  -669.535138984     A.U. after   15 cycles
 E2 =    -0.2093995214D+01 EUMP2 =    -0.67162913419746D+03

 The electronic state is 1-A.
 Alpha  occ. eigenvalues --  -20.60828 -20.60822 -15.85861 -11.31165 -11.27732
 Alpha  occ. eigenvalues --  -11.27657 -11.27457 -11.26746 -11.26695 -11.22127
 Alpha  occ. eigenvalues --  -11.21853 -11.21800 -11.21764 -11.21511 -11.21142
 Alpha  occ. eigenvalues --   -1.59892  -1.39447  -1.19338  -1.08843  -1.08740
 Alpha  occ. eigenvalues --   -1.04730  -1.03878  -0.96320  -0.95586  -0.87338
 Alpha  occ. eigenvalues --   -0.86125  -0.82422  -0.79960  -0.78736  -0.77425
 Alpha  occ. eigenvalues --   -0.72080  -0.71209  -0.70444  -0.65480  -0.64986
 Alpha  occ. eigenvalues --   -0.64722  -0.62109  -0.61250  -0.59686  -0.57954
 Alpha  occ. eigenvalues --   -0.55605  -0.55224  -0.53167  -0.53013  -0.52935
 Alpha  occ. eigenvalues --   -0.52509  -0.50263  -0.48839  -0.48835  -0.48243
 Alpha  occ. eigenvalues --   -0.46974  -0.46206  -0.46118  -0.44839  -0.44135
 Alpha  occ. eigenvalues --   -0.37323  -0.36252
 Alpha virt. eigenvalues --    0.05006   0.11223   0.16476   0.20338   0.22741
 Alpha virt. eigenvalues --    0.23837   0.24890   0.26452   0.26853   0.28629
 Alpha virt. eigenvalues --    0.29854   0.30687   0.31363   0.31506   0.31809

 Mulliken charges:
               1
     1  C   -0.297670
     2  C   -0.300422
     3  C   -0.475627
     4  H    0.150696
     5  H    0.152890
     6  H    0.145359
     7  H    0.153061
     8  H    0.157557
     9  H    0.156374
    10  H    0.159087
    11  C   -0.304698
    12  C   -0.298878
    13  C   -0.488955
    14  H    0.138984
    15  H    0.156094
    16  H    0.151833
    17  H    0.155830
    18  H    0.171568
    19  H    0.147298
    20  H    0.166992
    21  C   -0.171679
    22  C   -0.218351
    23  C   -0.175606
    24  C    0.155476
    25  C   -0.171047
    26  C   -0.218895
    27  H    0.225783
    28  H    0.226069
    29  H    0.285597
    30  H    0.275249
    31  H    0.223245
    32  N    0.488698
    33  O   -0.459619
    34  O   -0.462292
 Sum of Mulliken charges =  -0.00000

 Dipole moment (field-independent basis, Debye):
    X=             -2.6000    Y=             -4.0133    Z=              1.7568  Tot=              5.0944
 Quadrupole moment (field-independent basis, Debye-Ang):
   XX=           -106.5212   YY=            -90.8707   ZZ=            -93.5277
   XY=            -12.0377   XZ=              2.4169   YZ=              0.8818

 Normal termination of Gaussian 16 at Thu May  6 02:51:08 2021.
