 Gaussian 16, Revision A.03,
 Gaussian 16:  EM64L-G16RevA.03 25-Dec-2016

 -------------
 #p 6-31g* mp2
 -------------

 ------------------------------------------------------
 Input file generated by CHIRIPA (05-May-2021 14:53:16)
 ------------------------------------------------------
 Symbolic Z-matrix:
 Charge =  0 Multiplicity = 1

                         Standard orientation:
 ---------------------------------------------------------------------
 Center     Atomic      Atomic             Coordinates (Angstroms)
 Number     Number       Type             X           Y           Z
 ---------------------------------------------------------------------
      1          6           0        3.584241   -0.253251    0.174687
      2          6           0        4.313175   -1.337469   -0.619739
      3          6           0        4.688716   -2.546674    0.237341
      4          1           0        4.220385    0.070754    1.009724
      5          1           0        2.677041   -0.683176    0.621394
      6          1           0        5.218004   -0.905278   -1.065957
      7          1           0        3.675300   -1.658795   -1.453094
      8          1           0        3.793715   -3.004280    0.671129
      9          1           0        5.345184   -2.246481    1.060466
     10          1           0        5.208799   -3.309445   -0.350497
     11          6           0        3.202222    0.962043   -0.668431
     12          6           0        2.473288    2.046261    0.125995
     13          6           0        2.097747    3.255466   -0.731085
     14          1           0        4.109422    1.391968   -1.115139
     15          1           0        2.566077    0.638038   -1.503468
     16          1           0        3.111163    2.367587    0.959350
     17          1           0        1.568459    1.614070    0.572213
     18          1           0        1.441278    2.955273   -1.554210
     19          1           0        2.992748    3.713072   -1.164873
     20          1           0        1.577663    4.018237   -0.143247
     21          6           0       -4.791663   -0.346790   -1.140710
     22          6           0       -4.781009    0.223004    0.136688
     23          6           0       -3.600658    0.267198    0.884595
     24          6           0       -2.444006   -0.270113    0.321794
     25          6           0       -2.422579   -0.844501   -0.948210
     26          6           0       -3.614490   -0.877787   -1.678134
     27          1           0       -5.713078   -0.376884   -1.714718
     28          1           0       -5.693720    0.636148    0.556587
     29          1           0       -3.564137    0.702411    1.875894
     30          1           0       -1.496960   -1.248289   -1.340130
     31          1           0       -3.619800   -1.320915   -2.669928
     32          7           0       -1.188303   -0.229100    1.104051
     33          8           0       -0.182618   -0.709271    0.585719
     34          8           0       -1.233545    0.282441    2.220706
 ---------------------------------------------------------------------

 SCF Done:  E(RHF) =  -669.536610796     A.U. after   15 cycles
 E2 =    -0.2092106857D+01 EUMP2 =    -0.67162871765349D+03

 The electronic state is 1-A.
 Alpha  occ. eigenvalues --  -20.61158 -20.61149 -15.86166 -11.31412 -11.27964
 Alpha  occ. eigenvalues --  -11.27958 -11.27687 -11.26951 -11.26941 -11.20515
 Alpha  occ. eigenvalues --  -11.20247 -11.20165 -11.20133 -11.20114 -11.19826
 Alpha  occ. eigenvalues --   -1.60203  -1.39761  -1.19570  -1.08989  -1.07148
 Alpha  occ. eigenvalues --   -1.04954  -1.02405  -0.95844  -0.94872  -0.86358
 Alpha  occ. eigenvalues --   -0.85898  -0.82683  -0.78448  -0.77744  -0.76938
 Alpha  occ. eigenvalues --   -0.72391  -0.71512  -0.70678  -0.65231  -0.64957
 Alpha  occ. eigenvalues --   -0.63745  -0.62301  -0.59807  -0.58248  -0.56482
 Alpha  occ. eigenvalues --   -0.55461  -0.54163  -0.53289  -0.53044  -0.51626
 Alpha  occ. eigenvalues --   -0.51309  -0.49193  -0.49137  -0.48818  -0.46787
 Alpha  occ. eigenvalues --   -0.45517  -0.45156  -0.44536  -0.44187  -0.42605
 Alpha  occ. eigenvalues --   -0.37542  -0.36550
 Alpha virt. eigenvalues --    0.04747   0.11107   0.16253   0.21213   0.24121
 Alpha virt. eigenvalues --    0.25308   0.27152   0.27661   0.28293   0.28806
 Alpha virt. eigenvalues --    0.29298   0.30900   0.32331   0.32455   0.32807

 Mulliken charges:
               1
     1  C   -0.310054
     2  C   -0.297581
     3  C   -0.475396
     4  H    0.144366
     5  H    0.179931
     6  H    0.146525
     7  H    0.147817
     8  H    0.158248
     9  H    0.153587
    10  H    0.154781
    11  C   -0.292980
    12  C   -0.306197
    13  C   -0.475029
    14  H    0.142162
    15  H    0.144846
    16  H    0.148690
    17  H    0.170676
    18  H    0.149484
    19  H    0.151350
    20  H    0.157179
    21  C   -0.170233
    22  C   -0.218626
    23  C   -0.170160
    24  C    0.157986
    25  C   -0.170603
    26  C   -0.218535
    27  H    0.226511
    28  H    0.224287
    29  H    0.276195
    30  H    0.275676
    31  H    0.224311
    32  N    0.491558
    33  O   -0.463304
    34  O   -0.457468
 Sum of Mulliken charges =  -0.00000

 Dipole moment (field-independent basis, Debye):
    X=             -4.8650    Y=             -0.2709    Z=             -2.5617  Tot=              5.5049
 Quadrupole moment (field-independent basis, Debye-Ang):
   XX=            -72.9563   YY=            -95.8614   ZZ=            -94.3015
   XY=              0.8640   XZ=              3.9728   YZ=              3.4670

 Normal termination of Gaussian 16 at Thu May  6 12:12:38 2021.
