 Gaussian 16, Revision A.03,
 Gaussian 16:  EM64L-G16RevA.03 25-Dec-2016

 -------------
 #p 6-31g* mp2
 -------------

 ------------------------------------------------------
 Input file generated by CHIRIPA (05-May-2021 14:51:08)
 ------------------------------------------------------
 Symbolic Z-matrix:
 Charge =  0 Multiplicity = 1

                         Standard orientation:
 ---------------------------------------------------------------------
 Center     Atomic      Atomic             Coordinates (Angstroms)
 Number     Number       Type             X           Y           Z
 ---------------------------------------------------------------------
      1          6           0        3.229479    0.176634    0.123079
      2          6           0        4.232021   -0.064057   -1.006063
      3          6           0        5.096193   -1.304057   -0.774980
      4          1           0        3.773339    0.278652    1.072160
      5          1           0        2.584465   -0.706988    0.225864
      6          1           0        4.874052    0.820308   -1.107604
      7          1           0        3.685725   -0.165323   -1.952595
      8          1           0        4.471472   -2.199579   -0.695185
      9          1           0        5.666552   -1.208348    0.154607
     10          1           0        5.805719   -1.457257   -1.594103
     11          6           0        2.358292    1.412691   -0.093539
     12          6           0        1.355750    1.653382    1.035603
     13          6           0        0.491578    2.893383    0.804520
     14          1           0        3.003306    2.296313   -0.196324
     15          1           0        1.814432    1.310673   -1.042620
     16          1           0        1.902047    1.754648    1.982135
     17          1           0        0.713719    0.769017    1.137144
     18          1           0       -0.078780    2.797673   -0.125067
     19          1           0        1.116299    3.788904    0.724725
     20          1           0       -0.217948    3.046582    1.623643
     21          6           0       -2.077309   -1.040966   -0.111127
     22          6           0       -1.634443   -2.048300    0.950537
     23          6           0       -0.198643   -2.531760    0.744281
     24          1           0       -1.982547   -1.499697   -1.104873
     25          1           0       -1.394168   -0.180423   -0.097674
     26          1           0       -2.319033   -2.906054    0.936025
     27          1           0       -1.730452   -1.587183    1.941884
     28          1           0        0.500218   -1.689781    0.779875
     29          1           0       -0.091707   -3.016146   -0.231697
     30          1           0        0.097283   -3.251069    1.514270
     31          6           0       -3.510463   -0.548359    0.081588
     32          6           0       -3.953329    0.458975   -0.980077
     33          6           0       -5.389128    0.942434   -0.773821
     34          1           0       -4.193603   -1.408903    0.068134
     35          1           0       -3.605225   -0.089628    1.075332
     36          1           0       -3.857320   -0.002142   -1.971423
     37          1           0       -3.268738    1.316729   -0.965566
     38          1           0       -5.496063    1.426821    0.202158
     39          1           0       -6.087989    0.100456   -0.809416
     40          1           0       -5.685055    1.661744   -1.543810
 ---------------------------------------------------------------------

 SCF Done:  E(RHF) =  -470.732775734     A.U. after   11 cycles
 E2 =    -0.1584318661D+01 EUMP2 =    -0.47231709439417D+03

 The electronic state is 1-A.
 Alpha  occ. eigenvalues --  -11.21654 -11.21646 -11.21619 -11.21583 -11.21437
 Alpha  occ. eigenvalues --  -11.21413 -11.21375 -11.21337 -11.21145 -11.21102
 Alpha  occ. eigenvalues --  -11.21079 -11.21042  -1.08489  -1.08426  -1.03577
 Alpha  occ. eigenvalues --   -1.03539  -0.96035  -0.95978  -0.87041  -0.87007
 Alpha  occ. eigenvalues --   -0.79648  -0.79608  -0.78347  -0.78197  -0.65334
 Alpha  occ. eigenvalues --   -0.64888  -0.61082  -0.60832  -0.59398  -0.59342
 Alpha  occ. eigenvalues --   -0.57681  -0.57566  -0.55448  -0.55160  -0.52706
 Alpha  occ. eigenvalues --   -0.52703  -0.52483  -0.52379  -0.50033  -0.49887
 Alpha  occ. eigenvalues --   -0.48021  -0.47930  -0.46858  -0.46599  -0.46022
 Alpha  occ. eigenvalues --   -0.45780  -0.45759  -0.45202  -0.43815  -0.43798
 Alpha virt. eigenvalues --    0.19717   0.22826   0.23769   0.24157   0.25653
 Alpha virt. eigenvalues --    0.26523   0.26959   0.27655   0.28866   0.29309
 Alpha virt. eigenvalues --    0.30781   0.31579   0.31643   0.31882   0.32172

 Mulliken charges:
               1
     1  C   -0.306511
     2  C   -0.299025
     3  C   -0.475940
     4  H    0.149490
     5  H    0.157612
     6  H    0.151751
     7  H    0.152024
     8  H    0.155888
     9  H    0.155064
    10  H    0.160109
    11  C   -0.298094
    12  C   -0.308011
    13  C   -0.476355
    14  H    0.149843
    15  H    0.149885
    16  H    0.152530
    17  H    0.158317
    18  H    0.155384
    19  H    0.155942
    20  H    0.160089
    21  C   -0.303735
    22  C   -0.298850
    23  C   -0.486768
    24  H    0.149581
    25  H    0.153822
    26  H    0.152365
    27  H    0.152118
    28  H    0.164648
    29  H    0.154951
    30  H    0.161015
    31  C   -0.297853
    32  C   -0.300090
    33  C   -0.475714
    34  H    0.149659
    35  H    0.149892
    36  H    0.151807
    37  H    0.152271
    38  H    0.155367
    39  H    0.155174
    40  H    0.160347
 Sum of Mulliken charges =  -0.00000

 Dipole moment (field-independent basis, Debye):
    X=              0.0011    Y=             -0.0030    Z=              0.0053  Tot=              0.0062
 Quadrupole moment (field-independent basis, Debye-Ang):
   XX=            -85.7065   YY=            -84.8060   ZZ=            -84.1953
   XY=              1.7032   XZ=              0.5433   YZ=              0.7530

 Normal termination of Gaussian 16 at Wed May  5 16:35:41 2021.
