 Gaussian 16, Revision A.03,
 Gaussian 16:  EM64L-G16RevA.03 25-Dec-2016

 -------------
 #p 6-31g* mp2
 -------------

 ------------------------------------------------------
 Input file generated by CHIRIPA (05-May-2021 14:51:12)
 ------------------------------------------------------
 Symbolic Z-matrix:
 Charge =  0 Multiplicity = 1

                         Standard orientation:
 ---------------------------------------------------------------------
 Center     Atomic      Atomic             Coordinates (Angstroms)
 Number     Number       Type             X           Y           Z
 ---------------------------------------------------------------------
      1          6           0        3.383806   -0.599013   -0.359737
      2          6           0        2.140425   -1.466092   -0.159328
      3          6           0        2.337876   -2.903314   -0.642236
      4          1           0        3.652963   -0.595743   -1.424861
      5          1           0        4.229333   -1.053560    0.174927
      6          1           0        1.297167   -1.009309   -0.693069
      7          1           0        1.874085   -1.467143    0.905415
      8          1           0        3.161284   -3.381553   -0.101971
      9          1           0        2.581088   -2.921118   -1.709538
     10          1           0        1.436827   -3.505515   -0.489515
     11          6           0        3.201973    0.840516    0.118196
     12          6           0        4.445354    1.707595   -0.082213
     13          6           0        4.247903    3.144817    0.400695
     14          1           0        2.356446    1.295063   -0.416469
     15          1           0        2.932816    0.837246    1.183320
     16          1           0        4.711694    1.708646   -1.146957
     17          1           0        5.288612    1.250812    0.451528
     18          1           0        4.004691    3.162621    1.467996
     19          1           0        3.424495    3.623057   -0.139571
     20          1           0        5.148952    3.747019    0.247973
     21          6           0       -3.672895    0.501699    0.347890
     22          6           0       -4.563235    1.099851   -0.741832
     23          6           0       -5.316941    2.344541   -0.272290
     24          1           0       -4.291083    0.250315    1.220583
     25          1           0       -2.953989    1.262256    0.682738
     26          1           0       -5.279342    0.337962   -1.075499
     27          1           0       -3.942885    1.349663   -1.612105
     28          1           0       -4.615365    3.124039    0.041993
     29          1           0       -5.959415    2.106590    0.581647
     30          1           0       -5.947288    2.755764   -1.066909
     31          6           0       -2.912885   -0.743203   -0.106348
     32          6           0       -2.022543   -1.341355    0.983373
     33          6           0       -1.268838   -2.586044    0.513832
     34          1           0       -3.631789   -1.503760   -0.441196
     35          1           0       -2.294696   -0.491818   -0.979042
     36          1           0       -2.642893   -1.591167    1.853646
     37          1           0       -1.306437   -0.579466    1.317040
     38          1           0       -0.626365   -2.348094   -0.340106
     39          1           0       -1.970415   -3.365542    0.199549
     40          1           0       -0.638491   -2.997267    1.308450
 ---------------------------------------------------------------------

 SCF Done:  E(RHF) =  -470.731782715     A.U. after   11 cycles
 E2 =    -0.1583925510D+01 EUMP2 =    -0.47231570822446D+03

 The electronic state is 1-A.
 Alpha  occ. eigenvalues --  -11.21618 -11.21597 -11.21590 -11.21553 -11.21417
 Alpha  occ. eigenvalues --  -11.21392 -11.21353 -11.21333 -11.21089 -11.21067
 Alpha  occ. eigenvalues --  -11.20976 -11.20950  -1.08460  -1.08392  -1.03614
 Alpha  occ. eigenvalues --   -1.03429  -0.96088  -0.95852  -0.87051  -0.86922
 Alpha  occ. eigenvalues --   -0.79640  -0.79545  -0.78274  -0.78211  -0.65115
 Alpha  occ. eigenvalues --   -0.65016  -0.61097  -0.60871  -0.59472  -0.59199
 Alpha  occ. eigenvalues --   -0.57694  -0.57537  -0.55297  -0.55105  -0.52868
 Alpha  occ. eigenvalues --   -0.52561  -0.52453  -0.52189  -0.49926  -0.49821
 Alpha  occ. eigenvalues --   -0.47912  -0.47889  -0.46720  -0.46496  -0.45840
 Alpha  occ. eigenvalues --   -0.45768  -0.45703  -0.45600  -0.43840  -0.43698
 Alpha virt. eigenvalues --    0.21405   0.23144   0.23539   0.25008   0.25901
 Alpha virt. eigenvalues --    0.26485   0.26993   0.27566   0.28158   0.29352
 Alpha virt. eigenvalues --    0.29852   0.30995   0.31293   0.31635   0.32376

 Mulliken charges:
               1
     1  C   -0.297815
     2  C   -0.300748
     3  C   -0.481771
     4  H    0.149552
     5  H    0.149607
     6  H    0.151022
     7  H    0.153678
     8  H    0.155039
     9  H    0.154363
    10  H    0.167511
    11  C   -0.298243
    12  C   -0.299624
    13  C   -0.475705
    14  H    0.148910
    15  H    0.149475
    16  H    0.151991
    17  H    0.152069
    18  H    0.155181
    19  H    0.155019
    20  H    0.160357
    21  C   -0.298311
    22  C   -0.299596
    23  C   -0.475699
    24  H    0.149695
    25  H    0.149616
    26  H    0.151920
    27  H    0.151720
    28  H    0.155190
    29  H    0.155201
    30  H    0.160201
    31  C   -0.298546
    32  C   -0.301012
    33  C   -0.479509
    34  H    0.149568
    35  H    0.148947
    36  H    0.151550
    37  H    0.153049
    38  H    0.162619
    39  H    0.153911
    40  H    0.159619
 Sum of Mulliken charges =  -0.00000

 Dipole moment (field-independent basis, Debye):
    X=              0.0124    Y=             -0.0143    Z=              0.0060  Tot=              0.0199
 Quadrupole moment (field-independent basis, Debye-Ang):
   XX=            -84.5945   YY=            -86.3572   ZZ=            -83.9676
   XY=              0.8768   XZ=              0.2293   YZ=             -0.9321

 Normal termination of Gaussian 16 at Thu May  6 03:55:49 2021.
