 Gaussian 16, Revision A.03,
 Gaussian 16:  EM64L-G16RevA.03 25-Dec-2016

 -------------
 #p 6-31g* mp2
 -------------

 ------------------------------------------------------
 Input file generated by CHIRIPA (05-May-2021 14:55:25)
 ------------------------------------------------------
 Symbolic Z-matrix:
 Charge =  0 Multiplicity = 1

                         Standard orientation:
 ---------------------------------------------------------------------
 Center     Atomic      Atomic             Coordinates (Angstroms)
 Number     Number       Type             X           Y           Z
 ---------------------------------------------------------------------
      1          6           0       -2.799615   -2.072599    0.332782
      2          6           0       -2.727075   -1.532587   -0.955491
      3          6           0       -2.556285   -0.157372   -1.140320
      4          6           0       -2.461322    0.652233   -0.009474
      5          6           0       -2.529943    0.144229    1.286872
      6          6           0       -2.700992   -1.233946    1.447886
      7          1           0       -2.932389   -3.142048    0.467112
      8          1           0       -2.803362   -2.181494   -1.823330
      9          1           0       -2.496903    0.287178   -2.126356
     10          1           0       -2.450682    0.816397    2.132641
     11          1           0       -2.756990   -1.650549    2.449560
     12          7           0       -2.280378    2.109678   -0.192538
     13          8           0       -2.199430    2.801577    0.820063
     14          8           0       -2.222928    2.532529   -1.345159
     15          6           0        3.824312   -0.200840   -0.296206
     16          6           0        4.336462    0.943505    0.579099
     17          6           0        5.608701    1.586740    0.026422
     18          1           0        4.610700   -0.962198   -0.390404
     19          1           0        3.633879    0.178869   -1.309592
     20          1           0        4.524559    0.562059    1.590897
     21          1           0        3.548694    1.702139    0.671381
     22          1           0        5.431127    1.993912   -0.974217
     23          1           0        6.412535    0.847355   -0.049478
     24          1           0        5.957368    2.402323    0.667604
     25          6           0        2.553017   -0.853952    0.243221
     26          6           0        2.040867   -1.998299   -0.632083
     27          6           0        0.768629   -2.641533   -0.079407
     28          1           0        2.743450   -1.233662    1.256607
     29          1           0        1.766629   -0.092595    0.337419
     30          1           0        2.828635   -2.756931   -0.724366
     31          1           0        1.852770   -1.616852   -1.643882
     32          1           0       -0.035206   -1.902148   -0.003507
     33          1           0        0.946203   -3.048705    0.921232
     34          1           0        0.419960   -3.457116   -0.720589
 ---------------------------------------------------------------------

 SCF Done:  E(RHF) =  -669.534111056     A.U. after   15 cycles
 E2 =    -0.2093350219D+01 EUMP2 =    -0.67162746127532D+03

 The electronic state is 1-A.
 Alpha  occ. eigenvalues --  -20.60843 -20.60838 -15.85898 -11.31286 -11.27848
 Alpha  occ. eigenvalues --  -11.27831 -11.27522 -11.26817 -11.26793 -11.21712
 Alpha  occ. eigenvalues --  -11.21458 -11.21410 -11.21302 -11.21186 -11.20910
 Alpha  occ. eigenvalues --   -1.59920  -1.39472  -1.19457  -1.08841  -1.08414
 Alpha  occ. eigenvalues --   -1.04842  -1.03526  -0.95998  -0.95657  -0.87018
 Alpha  occ. eigenvalues --   -0.86230  -0.82490  -0.79606  -0.78222  -0.77544
 Alpha  occ. eigenvalues --   -0.72111  -0.71247  -0.70529  -0.65085  -0.65049
 Alpha  occ. eigenvalues --   -0.64827  -0.62180  -0.60953  -0.59373  -0.57621
 Alpha  occ. eigenvalues --   -0.55446  -0.55316  -0.53406  -0.52918  -0.52669
 Alpha  occ. eigenvalues --   -0.52206  -0.49828  -0.48873  -0.48868  -0.47886
 Alpha  occ. eigenvalues --   -0.46592  -0.45759  -0.45671  -0.44874  -0.43795
 Alpha  occ. eigenvalues --   -0.37314  -0.36452
 Alpha virt. eigenvalues --    0.04969   0.11189   0.16448   0.21260   0.22875
 Alpha virt. eigenvalues --    0.24330   0.26640   0.27144   0.27538   0.27795
 Alpha virt. eigenvalues --    0.28522   0.30919   0.31415   0.31605   0.32055

 Mulliken charges:
               1
     1  C   -0.170084
     2  C   -0.217628
     3  C   -0.172112
     4  C    0.158210
     5  C   -0.171459
     6  C   -0.217192
     7  H    0.226757
     8  H    0.224067
     9  H    0.275861
    10  H    0.276138
    11  H    0.224172
    12  N    0.487997
    13  O   -0.460124
    14  O   -0.460308
    15  C   -0.298383
    16  C   -0.300481
    17  C   -0.475827
    18  H    0.148572
    19  H    0.150848
    20  H    0.150638
    21  H    0.155833
    22  H    0.156339
    23  H    0.153856
    24  H    0.161011
    25  C   -0.298390
    26  C   -0.298599
    27  C   -0.482713
    28  H    0.148037
    29  H    0.151300
    30  H    0.150851
    31  H    0.151236
    32  H    0.169765
    33  H    0.150720
    34  H    0.151091
 Sum of Mulliken charges =  -0.00000

 Dipole moment (field-independent basis, Debye):
    X=             -0.7307    Y=             -5.0544    Z=              0.6644  Tot=              5.1500
 Quadrupole moment (field-independent basis, Debye-Ang):
   XX=            -92.9514   YY=           -102.2542   ZZ=            -89.6375
   XY=             11.9103   XZ=             -1.0388   YZ=              0.9154

 Normal termination of Gaussian 16 at Thu May  6 06:24:04 2021.
