 Gaussian 16, Revision A.03,
 Gaussian 16:  EM64L-G16RevA.03 25-Dec-2016

 -------------
 #p 6-31g* mp2
 -------------

 ------------------------------------------------------
 Input file generated by CHIRIPA (05-May-2021 14:53:13)
 ------------------------------------------------------
 Symbolic Z-matrix:
 Charge =  0 Multiplicity = 1

                         Standard orientation:
 ---------------------------------------------------------------------
 Center     Atomic      Atomic             Coordinates (Angstroms)
 Number     Number       Type             X           Y           Z
 ---------------------------------------------------------------------
      1          6           0        3.121349   -0.085720    0.189316
      2          6           0        2.464084   -0.620473    1.462119
      3          6           0        0.961451   -0.851492    1.299275
      4          1           0        2.633531    0.855115   -0.100180
      5          1           0        2.945261   -0.794599   -0.631585
      6          1           0        2.642542    0.088534    2.280702
      7          1           0        2.953651   -1.560045    1.748726
      8          1           0        0.767242   -1.575462    0.501307
      9          1           0        0.454365    0.082484    1.036306
     10          1           0        0.511829   -1.233769    2.220993
     11          6           0        4.623480    0.150295    0.336387
     12          6           0        5.280745    0.685048   -0.936416
     13          6           0        6.783378    0.916067   -0.773572
     14          1           0        4.799568    0.859174    1.157287
     15          1           0        5.111298   -0.790540    0.625883
     16          1           0        4.791178    1.624620   -1.223023
     17          1           0        5.102287   -0.023959   -1.755000
     18          1           0        7.290464   -0.017909   -0.510604
     19          1           0        6.977587    1.640036    0.024395
     20          1           0        7.233000    1.298344   -1.695291
     21          6           0       -4.007059    2.226772    0.369654
     22          6           0       -3.584781    1.366453    1.388503
     23          6           0       -3.039331    0.116322    1.081577
     24          6           0       -2.930414   -0.242939   -0.260942
     25          6           0       -3.342114    0.592044   -1.298533
     26          6           0       -3.884594    1.837507   -0.968254
     27          1           0       -4.429623    3.196091    0.617152
     28          1           0       -3.678677    1.666118    2.428421
     29          1           0       -2.704454   -0.569274    1.850495
     30          1           0       -3.235749    0.265477   -2.325888
     31          1           0       -4.211706    2.503592   -1.761586
     32          7           0       -2.354542   -1.563927   -0.598232
     33          8           0       -2.269362   -1.856926   -1.788834
     34          8           0       -1.999259   -2.281304    0.334388
 ---------------------------------------------------------------------

 SCF Done:  E(RHF) =  -669.535880346     A.U. after   15 cycles
 E2 =    -0.2091921610D+01 EUMP2 =    -0.67162780195600D+03

 The electronic state is 1-A.
 Alpha  occ. eigenvalues --  -20.60839 -20.60813 -15.85846 -11.31197 -11.27767
 Alpha  occ. eigenvalues --  -11.27757 -11.27513 -11.26782 -11.26770 -11.21325
 Alpha  occ. eigenvalues --  -11.21072 -11.21048 -11.20930 -11.20849 -11.20314
 Alpha  occ. eigenvalues --   -1.59884  -1.39439  -1.19370  -1.08770  -1.08034
 Alpha  occ. eigenvalues --   -1.04771  -1.03104  -0.95630  -0.95522  -0.86562
 Alpha  occ. eigenvalues --   -0.86166  -0.82443  -0.79185  -0.77854  -0.77480
 Alpha  occ. eigenvalues --   -0.72080  -0.71190  -0.70480  -0.65026  -0.64776
 Alpha  occ. eigenvalues --   -0.64665  -0.62118  -0.60500  -0.58926  -0.57161
 Alpha  occ. eigenvalues --   -0.55279  -0.54836  -0.53097  -0.52866  -0.52227
 Alpha  occ. eigenvalues --   -0.51976  -0.49488  -0.48836  -0.48832  -0.47511
 Alpha  occ. eigenvalues --   -0.46229  -0.45443  -0.45327  -0.44692  -0.43334
 Alpha  occ. eigenvalues --   -0.37343  -0.36365
 Alpha virt. eigenvalues --    0.05023   0.11243   0.16506   0.21328   0.23244
 Alpha virt. eigenvalues --    0.24640   0.26978   0.27049   0.27764   0.27872
 Alpha virt. eigenvalues --    0.28765   0.30672   0.31699   0.31779   0.32207

 Mulliken charges:
               1
     1  C   -0.298474
     2  C   -0.300751
     3  C   -0.478109
     4  H    0.146559
     5  H    0.153072
     6  H    0.146717
     7  H    0.152835
     8  H    0.172638
     9  H    0.144646
    10  H    0.158378
    11  C   -0.297805
    12  C   -0.299392
    13  C   -0.475468
    14  H    0.147564
    15  H    0.150064
    16  H    0.150369
    17  H    0.153105
    18  H    0.155419
    19  H    0.154064
    20  H    0.159388
    21  C   -0.170730
    22  C   -0.219318
    23  C   -0.169397
    24  C    0.158924
    25  C   -0.171042
    26  C   -0.218732
    27  H    0.225584
    28  H    0.223564
    29  H    0.276905
    30  H    0.275566
    31  H    0.223425
    32  N    0.488147
    33  O   -0.460344
    34  O   -0.457369
 Sum of Mulliken charges =  -0.00000

 Dipole moment (field-independent basis, Debye):
    X=             -2.1691    Y=              4.5179    Z=              1.1363  Tot=              5.1388
 Quadrupole moment (field-independent basis, Debye-Ang):
   XX=            -85.1585   YY=            -96.4485   ZZ=            -90.7309
   XY=            -14.1665   XZ=             -2.4750   YZ=             -2.3249

 Normal termination of Gaussian 16 at Thu May  6 12:03:50 2021.
