 Gaussian 16, Revision A.03,
 Gaussian 16:  EM64L-G16RevA.03 25-Dec-2016

 -------------
 #p 6-31g* mp2
 -------------

 ------------------------------------------------------
 Input file generated by CHIRIPA (05-May-2021 14:55:25)
 ------------------------------------------------------
 Symbolic Z-matrix:
 Charge =  0 Multiplicity = 1

                         Standard orientation:
 ---------------------------------------------------------------------
 Center     Atomic      Atomic             Coordinates (Angstroms)
 Number     Number       Type             X           Y           Z
 ---------------------------------------------------------------------
      1          6           0       -0.075974   -2.275940    1.122456
      2          6           0       -0.663570   -1.265694    1.890997
      3          6           0       -1.628013   -0.420265    1.334537
      4          6           0       -1.982791   -0.614189    0.000439
      5          6           0       -1.415515   -1.611662   -0.791100
      6          6           0       -0.453157   -2.445401   -0.213784
      7          1           0        0.672418   -2.928149    1.562829
      8          1           0       -0.372589   -1.131768    2.928994
      9          1           0       -2.098935    0.369828    1.906729
     10          1           0       -1.726065   -1.720719   -1.823129
     11          1           0        0.001498   -3.229134   -0.813031
     12          7           0       -3.002700    0.274641   -0.599700
     13          8           0       -3.297965    0.083154   -1.777320
     14          8           0       -3.487527    1.145963    0.118894
     15          6           0        1.704319    1.306430    0.173110
     16          6           0        1.632306    2.809454   -0.098405
     17          6           0        0.389386    3.460950    0.508633
     18          1           0        0.802598    0.824126   -0.228420
     19          1           0        1.692937    1.136018    1.258571
     20          1           0        1.645217    2.977050   -1.183006
     21          1           0        2.534394    3.288210    0.303649
     22          1           0        0.373640    3.323136    1.594617
     23          1           0       -0.520589    3.010208    0.099514
     24          1           0        0.358029    4.535375    0.302509
     25          6           0        2.941307    0.640907   -0.427444
     26          6           0        3.013319   -0.862116   -0.155929
     27          6           0        4.256239   -1.513613   -0.762967
     28          1           0        2.952690    0.811319   -1.512905
     29          1           0        3.843027    1.123211   -0.025914
     30          1           0        2.111232   -1.340873   -0.557983
     31          1           0        3.000409   -1.029714    0.928673
     32          1           0        5.166214   -1.062871   -0.353848
     33          1           0        4.271986   -1.375799   -1.848951
     34          1           0        4.287597   -2.588038   -0.556843
 ---------------------------------------------------------------------

 SCF Done:  E(RHF) =  -669.533714224     A.U. after   15 cycles
 E2 =    -0.2096462885D+01 EUMP2 =    -0.67163017710971D+03

 The electronic state is 1-A.
 Alpha  occ. eigenvalues --  -20.60881 -20.60870 -15.85922 -11.31264 -11.27866
 Alpha  occ. eigenvalues --  -11.27834 -11.27559 -11.26831 -11.26803 -11.21935
 Alpha  occ. eigenvalues --  -11.21595 -11.21544 -11.21537 -11.21393 -11.20897
 Alpha  occ. eigenvalues --   -1.59948  -1.39500  -1.19464  -1.08871  -1.08572
 Alpha  occ. eigenvalues --   -1.04859  -1.03695  -0.96133  -0.95682  -0.87148
 Alpha  occ. eigenvalues --   -0.86254  -0.82512  -0.79792  -0.78411  -0.77563
 Alpha  occ. eigenvalues --   -0.72136  -0.71273  -0.70545  -0.65258  -0.65096
 Alpha  occ. eigenvalues --   -0.64852  -0.62200  -0.61099  -0.59553  -0.57753
 Alpha  occ. eigenvalues --   -0.55431  -0.55330  -0.53440  -0.52941  -0.52748
 Alpha  occ. eigenvalues --   -0.52536  -0.50084  -0.48897  -0.48894  -0.48133
 Alpha  occ. eigenvalues --   -0.46850  -0.45917  -0.45675  -0.44887  -0.43929
 Alpha  occ. eigenvalues --   -0.37298  -0.36394
 Alpha virt. eigenvalues --    0.04963   0.11031   0.16374   0.20785   0.22922
 Alpha virt. eigenvalues --    0.23842   0.26002   0.27112   0.27556   0.27599
 Alpha virt. eigenvalues --    0.28400   0.30204   0.31482   0.31703   0.32211

 Mulliken charges:
               1
     1  C   -0.163032
     2  C   -0.215848
     3  C   -0.169436
     4  C    0.157859
     5  C   -0.173330
     6  C   -0.221593
     7  H    0.227079
     8  H    0.223462
     9  H    0.276511
    10  H    0.275954
    11  H    0.224487
    12  N    0.487615
    13  O   -0.460057
    14  O   -0.459899
    15  C   -0.300336
    16  C   -0.300241
    17  C   -0.477245
    18  H    0.155871
    19  H    0.143386
    20  H    0.153416
    21  H    0.150207
    22  H    0.149896
    23  H    0.161992
    24  H    0.162352
    25  C   -0.297629
    26  C   -0.304140
    27  C   -0.475074
    28  H    0.150486
    29  H    0.149222
    30  H    0.156688
    31  H    0.143498
    32  H    0.156796
    33  H    0.156683
    34  H    0.154400
 Sum of Mulliken charges =  -0.00000

 Dipole moment (field-independent basis, Debye):
    X=              3.4337    Y=             -3.1308    Z=              2.1062  Tot=              5.1018
 Quadrupole moment (field-independent basis, Debye-Ang):
   XX=           -110.7473   YY=            -90.5404   ZZ=            -90.5340
   XY=              4.4499   XZ=             -3.9942   YZ=              0.8544

 Normal termination of Gaussian 16 at Wed May  5 22:28:51 2021.
