 Gaussian 16, Revision A.03,
 Gaussian 16:  EM64L-G16RevA.03 25-Dec-2016

 -------------
 #p 6-31g* mp2
 -------------

 ------------------------------------------------------
 Input file generated by CHIRIPA (05-May-2021 14:51:12)
 ------------------------------------------------------
 Symbolic Z-matrix:
 Charge =  0 Multiplicity = 1

                         Standard orientation:
 ---------------------------------------------------------------------
 Center     Atomic      Atomic             Coordinates (Angstroms)
 Number     Number       Type             X           Y           Z
 ---------------------------------------------------------------------
      1          6           0        3.304126   -0.325560   -0.070909
      2          6           0        3.340585    1.108398   -0.600456
      3          6           0        4.713019    1.501761   -1.147708
      4          1           0        4.060803   -0.437825    0.717623
      5          1           0        3.589246   -1.014464   -0.878072
      6          1           0        3.054141    1.794285    0.207086
      7          1           0        2.583603    1.217314   -1.387686
      8          1           0        5.003281    0.841057   -1.971006
      9          1           0        5.476493    1.421306   -0.367172
     10          1           0        4.716556    2.530604   -1.520976
     11          6           0        1.938746   -0.733550    0.479553
     12          6           0        1.902287   -2.167508    1.009101
     13          6           0        0.529853   -2.560871    1.556353
     14          1           0        1.653626   -0.044646    1.286717
     15          1           0        1.182069   -0.621285   -0.308978
     16          1           0        2.659270   -2.276424    1.796331
     17          1           0        2.188731   -2.853395    0.201559
     18          1           0       -0.233621   -2.480416    0.775817
     19          1           0        0.239591   -1.900167    2.379650
     20          1           0        0.526317   -3.589714    1.929620
     21          6           0       -3.036454   -0.111346   -0.225257
     22          6           0       -2.497279   -1.151051   -1.208256
     23          6           0       -3.338205   -2.427650   -1.238793
     24          1           0       -3.073740   -0.551706    0.780546
     25          1           0       -4.071948    0.136980   -0.496331
     26          1           0       -1.462645   -1.396316   -0.936236
     27          1           0       -2.461093   -0.708102   -2.211801
     28          1           0       -4.368835   -2.203132   -1.532039
     29          1           0       -3.364715   -2.895257   -0.249227
     30          1           0       -2.934935   -3.157161   -1.948051
     31          6           0       -2.206418    1.170455   -0.183388
     32          6           0       -2.745593    2.210161    0.799610
     33          6           0       -1.904667    3.486760    0.830149
     34          1           0       -1.170923    0.922131    0.087686
     35          1           0       -2.169133    1.610816   -1.189190
     36          1           0       -2.781780    1.767212    1.803156
     37          1           0       -3.780227    2.455426    0.527591
     38          1           0       -1.878157    3.954367   -0.159418
     39          1           0       -0.874037    3.262243    1.123394
     40          1           0       -2.307937    4.216272    1.539407
 ---------------------------------------------------------------------

 SCF Done:  E(RHF) =  -470.733205197     A.U. after   11 cycles
 E2 =    -0.1583924979D+01 EUMP2 =    -0.47231713017583D+03

 The electronic state is 1-A.
 Alpha  occ. eigenvalues --  -11.21665 -11.21623 -11.21600 -11.21564 -11.21467
 Alpha  occ. eigenvalues --  -11.21400 -11.21360 -11.21291 -11.21124 -11.21084
 Alpha  occ. eigenvalues --  -11.21076 -11.21041  -1.08492  -1.08393  -1.03584
 Alpha  occ. eigenvalues --   -1.03505  -0.96031  -0.95952  -0.87048  -0.86968
 Alpha  occ. eigenvalues --   -0.79663  -0.79559  -0.78386  -0.78130  -0.65213
 Alpha  occ. eigenvalues --   -0.64954  -0.61132  -0.60781  -0.59401  -0.59313
 Alpha  occ. eigenvalues --   -0.57658  -0.57545  -0.55383  -0.55175  -0.52716
 Alpha  occ. eigenvalues --   -0.52656  -0.52474  -0.52361  -0.50017  -0.49855
 Alpha  occ. eigenvalues --   -0.48059  -0.47836  -0.46853  -0.46476  -0.46206
 Alpha  occ. eigenvalues --   -0.45762  -0.45723  -0.45187  -0.43831  -0.43756
 Alpha virt. eigenvalues --    0.20071   0.22992   0.23575   0.24418   0.25378
 Alpha virt. eigenvalues --    0.26445   0.27026   0.27801   0.28340   0.30069
 Alpha virt. eigenvalues --    0.30542   0.31529   0.31560   0.31831   0.32077

 Mulliken charges:
               1
     1  C   -0.298105
     2  C   -0.299909
     3  C   -0.475746
     4  H    0.149894
     5  H    0.149766
     6  H    0.151716
     7  H    0.152663
     8  H    0.155237
     9  H    0.155169
    10  H    0.160513
    11  C   -0.304421
    12  C   -0.299255
    13  C   -0.482828
    14  H    0.149315
    15  H    0.155018
    16  H    0.152330
    17  H    0.152138
    18  H    0.161904
    19  H    0.154810
    20  H    0.160921
    21  C   -0.298027
    22  C   -0.307447
    23  C   -0.476369
    24  H    0.150427
    25  H    0.149463
    26  H    0.157509
    27  H    0.152066
    28  H    0.155585
    29  H    0.156154
    30  H    0.159933
    31  C   -0.303080
    32  C   -0.299487
    33  C   -0.475626
    34  H    0.155055
    35  H    0.148907
    36  H    0.151794
    37  H    0.151724
    38  H    0.155109
    39  H    0.155196
    40  H    0.159978
 Sum of Mulliken charges =  -0.00000

 Dipole moment (field-independent basis, Debye):
    X=              0.0270    Y=             -0.0134    Z=             -0.0013  Tot=              0.0302
 Quadrupole moment (field-independent basis, Debye-Ang):
   XX=            -85.4776   YY=            -85.6766   ZZ=            -83.5901
   XY=             -1.0120   XZ=              0.9859   YZ=              0.0520

 Normal termination of Gaussian 16 at Wed May  5 16:48:57 2021.
