 Gaussian 16, Revision A.03,
 Gaussian 16:  EM64L-G16RevA.03 25-Dec-2016

 -------------
 #p 6-31g* mp2
 -------------

 ------------------------------------------------------
 Input file generated by CHIRIPA (05-May-2021 14:51:10)
 ------------------------------------------------------
 Symbolic Z-matrix:
 Charge =  0 Multiplicity = 1

                         Standard orientation:
 ---------------------------------------------------------------------
 Center     Atomic      Atomic             Coordinates (Angstroms)
 Number     Number       Type             X           Y           Z
 ---------------------------------------------------------------------
      1          6           0        4.309817    0.574677    0.248032
      2          6           0        5.719257    0.777375   -0.309082
      3          6           0        6.412438    2.010658    0.270837
      4          1           0        3.707119    1.468761    0.037524
      5          1           0        4.364782    0.485186    1.341817
      6          1           0        5.661799    0.865073   -1.401613
      7          1           0        6.318614   -0.117374   -0.097392
      8          1           0        6.499132    1.927826    1.359058
      9          1           0        5.838585    2.915855    0.047426
     10          1           0        7.418600    2.136536   -0.141051
     11          6           0        3.603930   -0.654255   -0.322211
     12          6           0        2.194490   -0.856953    0.234904
     13          6           0        1.501309   -2.090236   -0.345016
     14          1           0        3.548965   -0.564764   -1.415996
     15          1           0        4.206627   -1.548340   -0.111702
     16          1           0        1.595133    0.037796    0.023213
     17          1           0        2.251947   -0.944651    1.327435
     18          1           0        2.075161   -2.995433   -0.121604
     19          1           0        1.414615   -2.007404   -1.433236
     20          1           0        0.495146   -2.216114    0.066872
     21          6           0       -3.674797   -0.586924   -0.296221
     22          6           0       -3.057233   -1.574718    0.694163
     23          6           0       -2.497253   -2.823398    0.012242
     24          1           0       -4.474668   -1.090589   -0.856110
     25          1           0       -2.914375   -0.293558   -1.033166
     26          1           0       -3.818211   -1.865070    1.429842
     27          1           0       -2.258868   -1.068589    1.251893
     28          1           0       -1.719010   -2.552470   -0.708547
     29          1           0       -3.287214   -3.353476   -0.529587
     30          1           0       -2.060645   -3.515892    0.738663
     31          6           0       -4.238949    0.666502    0.370400
     32          6           0       -4.856513    1.654296   -0.619984
     33          6           0       -5.416494    2.902977    0.061936
     34          1           0       -4.999372    0.373136    1.107345
     35          1           0       -3.439079    1.170167    0.930288
     36          1           0       -5.654879    1.148167   -1.177714
     37          1           0       -4.095535    1.944648   -1.355663
     38          1           0       -4.626532    3.433054    0.603766
     39          1           0       -6.194736    2.632049    0.782725
     40          1           0       -5.853101    3.595469   -0.664484
 ---------------------------------------------------------------------

 SCF Done:  E(RHF) =  -470.733048639     A.U. after   11 cycles
 E2 =    -0.1582479819D+01 EUMP2 =    -0.47231552845781D+03

 The electronic state is 1-A.
 Alpha  occ. eigenvalues --  -11.21611 -11.21609 -11.21608 -11.21606 -11.21410
 Alpha  occ. eigenvalues --  -11.21408 -11.21351 -11.21349 -11.21078 -11.21075
 Alpha  occ. eigenvalues --  -11.21035 -11.21016  -1.08442  -1.08427  -1.03562
 Alpha  occ. eigenvalues --   -1.03505  -0.96039  -0.95926  -0.87076  -0.86923
 Alpha  occ. eigenvalues --   -0.79646  -0.79546  -0.78254  -0.78240  -0.65084
 Alpha  occ. eigenvalues --   -0.65056  -0.61019  -0.60913  -0.59405  -0.59283
 Alpha  occ. eigenvalues --   -0.57601  -0.57591  -0.55332  -0.55224  -0.52791
 Alpha  occ. eigenvalues --   -0.52583  -0.52412  -0.52346  -0.49962  -0.49849
 Alpha  occ. eigenvalues --   -0.47938  -0.47875  -0.46662  -0.46593  -0.45792
 Alpha  occ. eigenvalues --   -0.45784  -0.45723  -0.45707  -0.43816  -0.43717
 Alpha virt. eigenvalues --    0.21491   0.23072   0.23583   0.25163   0.26497
 Alpha virt. eigenvalues --    0.26708   0.27225   0.27453   0.27656   0.28850
 Alpha virt. eigenvalues --    0.31177   0.31272   0.31558   0.31805   0.32092

 Mulliken charges:
               1
     1  C   -0.298225
     2  C   -0.299635
     3  C   -0.475700
     4  H    0.149450
     5  H    0.149508
     6  H    0.151920
     7  H    0.151991
     8  H    0.155188
     9  H    0.155129
    10  H    0.160283
    11  C   -0.298383
    12  C   -0.299211
    13  C   -0.483534
    14  H    0.149456
    15  H    0.149771
    16  H    0.151045
    17  H    0.151794
    18  H    0.155224
    19  H    0.154165
    20  H    0.170160
    21  C   -0.298248
    22  C   -0.301239
    23  C   -0.480255
    24  H    0.149762
    25  H    0.149652
    26  H    0.152234
    27  H    0.152282
    28  H    0.159662
    29  H    0.155714
    30  H    0.160048
    31  C   -0.298345
    32  C   -0.299646
    33  C   -0.475710
    34  H    0.149561
    35  H    0.149687
    36  H    0.151974
    37  H    0.151832
    38  H    0.155176
    39  H    0.155217
    40  H    0.160245
 Sum of Mulliken charges =  -0.00000

 Dipole moment (field-independent basis, Debye):
    X=             -0.0123    Y=             -0.0151    Z=             -0.0001  Tot=              0.0195
 Quadrupole moment (field-independent basis, Debye-Ang):
   XX=            -84.4540   YY=            -85.8766   ZZ=            -84.4399
   XY=              0.0921   XZ=              0.1764   YZ=             -1.1047

 Normal termination of Gaussian 16 at Thu May  6 02:10:59 2021.
