 Gaussian 16, Revision A.03,
 Gaussian 16:  EM64L-G16RevA.03 25-Dec-2016

 -------------
 #p 6-31g* mp2
 -------------

 ------------------------------------------------------
 Input file generated by CHIRIPA (05-May-2021 14:55:25)
 ------------------------------------------------------
 Symbolic Z-matrix:
 Charge =  0 Multiplicity = 1

                         Standard orientation:
 ---------------------------------------------------------------------
 Center     Atomic      Atomic             Coordinates (Angstroms)
 Number     Number       Type             X           Y           Z
 ---------------------------------------------------------------------
      1          6           0       -1.441951    1.497359    1.991294
      2          6           0       -2.343997    1.739174    0.949968
      3          6           0       -2.609023    0.751642   -0.003494
      4          6           0       -1.951343   -0.471731    0.115263
      5          6           0       -1.047342   -0.742939    1.141187
      6          6           0       -0.797639    0.259258    2.083418
      7          1           0       -1.242024    2.270194    2.727604
      8          1           0       -2.845833    2.699759    0.875929
      9          1           0       -3.302707    0.912127   -0.819868
     10          1           0       -0.562423   -1.710416    1.188707
     11          1           0       -0.096611    0.068661    2.891055
     12          7           0       -2.223803   -1.524949   -0.888179
     13          8           0       -1.631438   -2.594368   -0.761361
     14          8           0       -3.024565   -1.261099   -1.782496
     15          6           0        2.356241   -0.345813   -0.141958
     16          6           0        3.678283   -1.031974    0.203545
     17          6           0        3.493818   -2.486762    0.636393
     18          1           0        1.689362   -0.388667    0.730041
     19          1           0        1.858228   -0.907708   -0.944236
     20          1           0        4.174309   -0.468167    1.003980
     21          1           0        4.342164   -0.987313   -0.669314
     22          1           0        3.021201   -3.069036   -0.161222
     23          1           0        2.852393   -2.546942    1.521580
     24          1           0        4.451447   -2.958043    0.878674
     25          6           0        2.524239    1.109071   -0.576488
     26          6           0        1.202197    1.795233   -0.921990
     27          6           0        1.386662    3.250021   -1.354839
     28          1           0        3.022253    1.670967    0.225790
     29          1           0        3.191119    1.151926   -1.448486
     30          1           0        0.538316    1.750571   -0.049131
     31          1           0        0.706171    1.231427   -1.722425
     32          1           0        2.028088    3.310200   -2.240025
     33          1           0        1.859280    3.832295   -0.557223
     34          1           0        0.429033    3.721302   -1.597119
 ---------------------------------------------------------------------

 SCF Done:  E(RHF) =  -669.532958627     A.U. after   15 cycles
 E2 =    -0.2096914265D+01 EUMP2 =    -0.67162987289201D+03

 The electronic state is 1-A.
 Alpha  occ. eigenvalues --  -20.60840 -20.60835 -15.85892 -11.31270 -11.27869
 Alpha  occ. eigenvalues --  -11.27847 -11.27598 -11.26867 -11.26844 -11.21702
 Alpha  occ. eigenvalues --  -11.21492 -11.21442 -11.21390 -11.21206 -11.21190
 Alpha  occ. eigenvalues --   -1.59913  -1.39466  -1.19483  -1.08871  -1.08503
 Alpha  occ. eigenvalues --   -1.04889  -1.03608  -0.96085  -0.95687  -0.87098
 Alpha  occ. eigenvalues --   -0.86271  -0.82529  -0.79677  -0.78374  -0.77542
 Alpha  occ. eigenvalues --   -0.72111  -0.71233  -0.70579  -0.65246  -0.65067
 Alpha  occ. eigenvalues --   -0.64878  -0.62230  -0.61032  -0.59464  -0.57698
 Alpha  occ. eigenvalues --   -0.55396  -0.55371  -0.53479  -0.52969  -0.52678
 Alpha  occ. eigenvalues --   -0.52502  -0.50036  -0.48872  -0.48864  -0.47967
 Alpha  occ. eigenvalues --   -0.46714  -0.45816  -0.45673  -0.44855  -0.43853
 Alpha  occ. eigenvalues --   -0.37407  -0.36350
 Alpha virt. eigenvalues --    0.04952   0.11111   0.16297   0.20584   0.23066
 Alpha virt. eigenvalues --    0.23795   0.26271   0.26807   0.27550   0.28267
 Alpha virt. eigenvalues --    0.29143   0.30599   0.31393   0.31742   0.32037

 Mulliken charges:
               1
     1  C   -0.174459
     2  C   -0.216572
     3  C   -0.170127
     4  C    0.160318
     5  C   -0.165791
     6  C   -0.219371
     7  H    0.226374
     8  H    0.224200
     9  H    0.276124
    10  H    0.277938
    11  H    0.223802
    12  N    0.487712
    13  O   -0.460121
    14  O   -0.460291
    15  C   -0.303027
    16  C   -0.299168
    17  C   -0.475734
    18  H    0.144675
    19  H    0.156011
    20  H    0.148662
    21  H    0.154009
    22  H    0.162664
    23  H    0.146902
    24  H    0.161231
    25  C   -0.296711
    26  C   -0.309551
    27  C   -0.474615
    28  H    0.144863
    29  H    0.150716
    30  H    0.162048
    31  H    0.152687
    32  H    0.156606
    33  H    0.151258
    34  H    0.156738
 Sum of Mulliken charges =  -0.00000

 Dipole moment (field-independent basis, Debye):
    X=              0.8179    Y=              3.6098    Z=              3.4995  Tot=              5.0937
 Quadrupole moment (field-independent basis, Debye-Ang):
   XX=            -97.0951   YY=            -98.0810   ZZ=            -92.5892
   XY=            -10.3258   XZ=             -5.4687   YZ=             -1.9348

 Normal termination of Gaussian 16 at Thu May  6 00:05:07 2021.
