 Gaussian 16, Revision A.03,
 Gaussian 16:  EM64L-G16RevA.03 25-Dec-2016

 -------------
 #p 6-31g* mp2
 -------------

 ------------------------------------------------------
 Input file generated by CHIRIPA (05-May-2021 14:51:12)
 ------------------------------------------------------
 Symbolic Z-matrix:
 Charge =  0 Multiplicity = 1

                         Standard orientation:
 ---------------------------------------------------------------------
 Center     Atomic      Atomic             Coordinates (Angstroms)
 Number     Number       Type             X           Y           Z
 ---------------------------------------------------------------------
      1          6           0       -4.136656   -0.030130    0.106649
      2          6           0       -4.646769   -1.185833   -0.754815
      3          6           0       -6.057362   -0.944182   -1.292986
      4          1           0       -4.828702    0.126921    0.945311
      5          1           0       -4.150196    0.894357   -0.487098
      6          1           0       -4.630965   -2.108122   -0.160046
      7          1           0       -3.953327   -1.340276   -1.591416
      8          1           0       -6.084953   -0.039495   -1.908925
      9          1           0       -6.766442   -0.811704   -0.469423
     10          1           0       -6.402262   -1.782658   -1.906061
     11          6           0       -2.727786   -0.256948    0.651962
     12          6           0       -2.217673    0.898755    1.513426
     13          6           0       -0.807081    0.657104    2.051597
     14          1           0       -2.714246   -1.181435    1.245709
     15          1           0       -2.035740   -0.413999   -0.186699
     16          1           0       -2.911116    1.053198    2.350027
     17          1           0       -2.233477    1.821044    0.918658
     18          1           0       -0.098000    0.524626    1.228034
     19          1           0       -0.779489   -0.247583    2.667537
     20          1           0       -0.462181    1.495580    2.664673
     21          6           0        4.096328   -0.209589   -0.246286
     22          6           0        3.952807   -1.720214   -0.058140
     23          6           0        5.289989   -2.412576    0.207146
     24          1           0        4.783941   -0.014094   -1.080501
     25          1           0        4.562179    0.221949    0.650460
     26          1           0        3.486101   -2.148583   -0.954410
     27          1           0        3.265308   -1.912136    0.775602
     28          1           0        5.757902   -2.012704    1.112552
     29          1           0        5.979950   -2.250495   -0.627290
     30          1           0        5.164158   -3.491812    0.338589
     31          6           0        2.768115    0.496667   -0.512326
     32          6           0        2.911635    2.007292   -0.700472
     33          6           0        1.574454    2.699654   -0.965757
     34          1           0        2.302263    0.065129   -1.409072
     35          1           0        2.080502    0.301172    0.321890
     36          1           0        3.599135    2.199214   -1.534213
     37          1           0        3.378341    2.435661    0.195799
     38          1           0        0.884492    2.537573   -0.131322
     39          1           0        1.106541    2.299782   -1.871164
     40          1           0        1.700285    3.778890   -1.097201
 ---------------------------------------------------------------------

 SCF Done:  E(RHF) =  -470.733051034     A.U. after   11 cycles
 E2 =    -0.1583161308D+01 EUMP2 =    -0.47231621234154D+03

 The electronic state is 1-A.
 Alpha  occ. eigenvalues --  -11.21611 -11.21599 -11.21593 -11.21585 -11.21396
 Alpha  occ. eigenvalues --  -11.21393 -11.21336 -11.21334 -11.21082 -11.21064
 Alpha  occ. eigenvalues --  -11.21063 -11.21058  -1.08439  -1.08413  -1.03556
 Alpha  occ. eigenvalues --   -1.03503  -0.95994  -0.95970  -0.87010  -0.86991
 Alpha  occ. eigenvalues --   -0.79645  -0.79547  -0.78285  -0.78196  -0.65145
 Alpha  occ. eigenvalues --   -0.64984  -0.61084  -0.60787  -0.59358  -0.59340
 Alpha  occ. eigenvalues --   -0.57627  -0.57558  -0.55320  -0.55230  -0.52686
 Alpha  occ. eigenvalues --   -0.52668  -0.52470  -0.52355  -0.49982  -0.49917
 Alpha  occ. eigenvalues --   -0.48022  -0.47824  -0.46774  -0.46520  -0.45900
 Alpha  occ. eigenvalues --   -0.45738  -0.45718  -0.45411  -0.43788  -0.43776
 Alpha virt. eigenvalues --    0.21117   0.23044   0.23581   0.24982   0.25761
 Alpha virt. eigenvalues --    0.26703   0.27074   0.27567   0.28089   0.29155
 Alpha virt. eigenvalues --    0.30917   0.31318   0.31625   0.31810   0.32041

 Mulliken charges:
               1
     1  C   -0.298392
     2  C   -0.299658
     3  C   -0.475713
     4  H    0.149572
     5  H    0.149766
     6  H    0.151883
     7  H    0.151985
     8  H    0.155229
     9  H    0.155154
    10  H    0.160213
    11  C   -0.298520
    12  C   -0.299987
    13  C   -0.485445
    14  H    0.149402
    15  H    0.150383
    16  H    0.152045
    17  H    0.152823
    18  H    0.164164
    19  H    0.155233
    20  H    0.159716
    21  C   -0.297538
    22  C   -0.299839
    23  C   -0.475714
    24  H    0.149592
    25  H    0.149661
    26  H    0.151757
    27  H    0.152401
    28  H    0.155234
    29  H    0.155097
    30  H    0.160232
    31  C   -0.306449
    32  C   -0.298989
    33  C   -0.480748
    34  H    0.148724
    35  H    0.157634
    36  H    0.151916
    37  H    0.152032
    38  H    0.160508
    39  H    0.154325
    40  H    0.160311
 Sum of Mulliken charges =  -0.00000

 Dipole moment (field-independent basis, Debye):
    X=             -0.0029    Y=             -0.0040    Z=              0.0086  Tot=              0.0099
 Quadrupole moment (field-independent basis, Debye-Ang):
   XX=            -86.4571   YY=            -85.0143   ZZ=            -83.3734
   XY=              0.7537   XZ=             -1.0534   YZ=             -0.0836

 Normal termination of Gaussian 16 at Wed May  5 16:46:44 2021.
