 Gaussian 16, Revision A.03,
 Gaussian 16:  EM64L-G16RevA.03 25-Dec-2016

 -------------
 #p 6-31g* mp2
 -------------

 ------------------------------------------------------
 Input file generated by CHIRIPA (05-May-2021 14:57:23)
 ------------------------------------------------------
 Symbolic Z-matrix:
 Charge =  0 Multiplicity = 1

                         Standard orientation:
 ---------------------------------------------------------------------
 Center     Atomic      Atomic             Coordinates (Angstroms)
 Number     Number       Type             X           Y           Z
 ---------------------------------------------------------------------
      1          6           0       -4.900576   -1.908076   -0.015378
      2          6           0       -5.561137   -0.686250   -0.180672
      3          6           0       -4.837538    0.507610   -0.255837
      4          6           0       -3.448226    0.442579   -0.161632
      5          6           0       -2.761207   -0.759126    0.003294
      6          6           0       -3.505179   -1.940557    0.075916
      7          1           0       -5.470598   -2.830668    0.042024
      8          1           0       -6.644732   -0.658004   -0.251872
      9          1           0       -5.323435    1.467298   -0.383590
     10          1           0       -1.680094   -0.755445    0.071107
     11          1           0       -2.989507   -2.887997    0.204308
     12          7           0       -2.671400    1.699887   -0.239860
     13          8           0       -1.448202    1.615714   -0.154196
     14          8           0       -3.300432    2.745729   -0.385358
     15          6           0        5.820216    0.293948   -0.876152
     16          6           0        5.365586    1.022479    0.227965
     17          6           0        4.123906    0.737872    0.803965
     18          6           0        3.359318   -0.286531    0.247822
     19          6           0        3.784714   -1.030240   -0.851825
     20          6           0        5.029723   -0.728285   -1.411579
     21          1           0        6.786076    0.521776   -1.317293
     22          1           0        5.977366    1.816907    0.645883
     23          1           0        3.747625    1.286122    1.659099
     24          1           0        3.152446   -1.816388   -1.246321
     25          1           0        5.380245   -1.295723   -2.269013
     26          7           0        2.043046   -0.597015    0.849009
     27          8           0        1.388370   -1.504393    0.340382
     28          8           0        1.690951    0.072885    1.817461
 ---------------------------------------------------------------------

 SCF Done:  E(RHF) =  -868.339826332     A.U. after   16 cycles
 E2 =    -0.2598976043D+01 EUMP2 =    -0.87093880237572D+03

 The electronic state is 1-A.
 Alpha  occ. eigenvalues --  -20.60777 -20.60706 -20.59824 -20.59777 -15.85756
 Alpha  occ. eigenvalues --  -15.84851 -11.31005 -11.30131 -11.27591 -11.27535
 Alpha  occ. eigenvalues --  -11.27309 -11.26812 -11.26583 -11.26546 -11.26546
 Alpha  occ. eigenvalues --  -11.26523 -11.25828 -11.25664  -1.59773  -1.58882
 Alpha  occ. eigenvalues --   -1.39337  -1.38432  -1.19167  -1.18332  -1.08589
 Alpha  occ. eigenvalues --   -1.07765  -1.04561  -1.03708  -0.95445  -0.94594
 Alpha  occ. eigenvalues --   -0.85966  -0.85121  -0.82289  -0.81418  -0.77341
 Alpha  occ. eigenvalues --   -0.76448  -0.71997  -0.71128  -0.70996  -0.70292
 Alpha  occ. eigenvalues --   -0.70204  -0.69448  -0.64834  -0.64576  -0.63987
 Alpha  occ. eigenvalues --   -0.63720  -0.61914  -0.61018  -0.55083  -0.54274
 Alpha  occ. eigenvalues --   -0.52885  -0.52661  -0.52079  -0.51792  -0.48766
 Alpha  occ. eigenvalues --   -0.48723  -0.47848  -0.47813  -0.44760  -0.43852
 Alpha  occ. eigenvalues --   -0.37141  -0.36367  -0.36153  -0.35316
 Alpha virt. eigenvalues --    0.05185   0.06057   0.11504   0.12327   0.16682
 Alpha virt. eigenvalues --    0.17531   0.21596   0.22471   0.27517   0.28328
 Alpha virt. eigenvalues --    0.28531   0.29435   0.31144   0.31965   0.32724

 Mulliken charges:
               1
     1  C   -0.171206
     2  C   -0.219929
     3  C   -0.171786
     4  C    0.156044
     5  C   -0.175901
     6  C   -0.221853
     7  H    0.221869
     8  H    0.219214
     9  H    0.272063
    10  H    0.296166
    11  H    0.225810
    12  N    0.487491
    13  O   -0.455926
    14  O   -0.466577
    15  C   -0.170306
    16  C   -0.218551
    17  C   -0.168557
    18  C    0.160451
    19  C   -0.170091
    20  C   -0.218545
    21  H    0.225264
    22  H    0.223888
    23  H    0.277717
    24  H    0.273146
    25  H    0.222437
    26  N    0.492193
    27  O   -0.472662
    28  O   -0.451864
 Sum of Mulliken charges =  -0.00000

 Dipole moment (field-independent basis, Debye):
    X=              2.3220    Y=             -3.2888    Z=             -1.7140  Tot=              4.3756
 Quadrupole moment (field-independent basis, Debye-Ang):
   XX=            -53.3588   YY=           -106.6901   ZZ=           -104.8448
   XY=             15.2310   XZ=             -5.6071   YZ=              4.3770

 Normal termination of Gaussian 16 at Thu May  6 08:09:00 2021.
