 Gaussian 16, Revision A.03,
 Gaussian 16:  EM64L-G16RevA.03 25-Dec-2016

 -------------
 #p 6-31g* mp2
 -------------

 ------------------------------------------------------
 Input file generated by CHIRIPA (05-May-2021 14:55:22)
 ------------------------------------------------------
 Symbolic Z-matrix:
 Charge =  0 Multiplicity = 1

                         Standard orientation:
 ---------------------------------------------------------------------
 Center     Atomic      Atomic             Coordinates (Angstroms)
 Number     Number       Type             X           Y           Z
 ---------------------------------------------------------------------
      1          6           0       -3.756046   -2.113619   -0.211034
      2          6           0       -2.421143   -1.729457   -0.046794
      3          6           0       -2.079903   -0.378425    0.066425
      4          6           0       -3.103589    0.566180    0.010935
      5          6           0       -4.442774    0.214952   -0.151889
      6          6           0       -4.760830   -1.141902   -0.262965
      7          1           0       -4.012124   -3.165393   -0.298152
      8          1           0       -1.638725   -2.481927   -0.006116
      9          1           0       -1.054574   -0.053206    0.194290
     10          1           0       -5.200707    0.987994   -0.188785
     11          1           0       -5.798383   -1.437332   -0.390441
     12          7           0       -2.754606    1.999538    0.129660
     13          8           0       -3.675065    2.812367    0.077690
     14          8           0       -1.567222    2.283034    0.272440
     15          6           0        3.606499   -0.890387    0.424575
     16          6           0        2.436133   -1.477838   -0.364812
     17          6           0        1.565644   -2.412174    0.476054
     18          1           0        4.221844   -1.710022    0.820168
     19          1           0        3.215760   -0.344827    1.294680
     20          1           0        2.828894   -2.020959   -1.233935
     21          1           0        1.823609   -0.656706   -0.758732
     22          1           0        1.146331   -1.878704    1.335233
     23          1           0        2.157327   -3.250709    0.857331
     24          1           0        0.735046   -2.820824   -0.107876
     25          6           0        4.485932    0.045728   -0.402476
     26          6           0        5.656297    0.633179    0.386911
     27          6           0        6.526787    1.567515   -0.453956
     28          1           0        4.876670   -0.499831   -1.272582
     29          1           0        3.870586    0.865363   -0.798069
     30          1           0        6.268821   -0.187952    0.780832
     31          1           0        5.263536    1.176300    1.256034
     32          1           0        5.935102    2.406050   -0.835232
     33          1           0        6.946098    1.034045   -1.313134
     34          1           0        7.357384    1.976165    0.129976
 ---------------------------------------------------------------------

 SCF Done:  E(RHF) =  -669.535574453     A.U. after   15 cycles
 E2 =    -0.2091357363D+01 EUMP2 =    -0.67162693181581D+03

 The electronic state is 1-A.
 Alpha  occ. eigenvalues --  -20.60750 -20.60743 -15.85801 -11.31138 -11.27706
 Alpha  occ. eigenvalues --  -11.27685 -11.27435 -11.26721 -11.26660 -11.22155
 Alpha  occ. eigenvalues --  -11.21990 -11.21663 -11.21607 -11.21456 -11.21011
 Alpha  occ. eigenvalues --   -1.59824  -1.39379  -1.19305  -1.08708  -1.08682
 Alpha  occ. eigenvalues --   -1.04703  -1.03853  -0.96325  -0.95546  -0.87351
 Alpha  occ. eigenvalues --   -0.86102  -0.82378  -0.79926  -0.78432  -0.77431
 Alpha  occ. eigenvalues --   -0.72020  -0.71146  -0.70420  -0.65311  -0.64955
 Alpha  occ. eigenvalues --   -0.64727  -0.62139  -0.61205  -0.59723  -0.57902
 Alpha  occ. eigenvalues --   -0.55603  -0.55194  -0.53214  -0.53038  -0.52812
 Alpha  occ. eigenvalues --   -0.52555  -0.50246  -0.48778  -0.48774  -0.48230
 Alpha  occ. eigenvalues --   -0.46933  -0.45990  -0.45868  -0.44791  -0.44082
 Alpha  occ. eigenvalues --   -0.37289  -0.36302
 Alpha virt. eigenvalues --    0.05094   0.11341   0.16581   0.19327   0.22816
 Alpha virt. eigenvalues --    0.23840   0.25744   0.26211   0.27223   0.27783
 Alpha virt. eigenvalues --    0.29060   0.29915   0.31286   0.31715   0.32342

 Mulliken charges:
               1
     1  C   -0.171596
     2  C   -0.223721
     3  C   -0.176269
     4  C    0.159004
     5  C   -0.170919
     6  C   -0.218596
     7  H    0.225773
     8  H    0.230929
     9  H    0.278578
    10  H    0.275312
    11  H    0.223149
    12  N    0.488084
    13  O   -0.460498
    14  O   -0.461202
    15  C   -0.299120
    16  C   -0.301809
    17  C   -0.483798
    18  H    0.149748
    19  H    0.152797
    20  H    0.154316
    21  H    0.154585
    22  H    0.156611
    23  H    0.161025
    24  H    0.152308
    25  C   -0.299604
    26  C   -0.300187
    27  C   -0.476204
    28  H    0.148982
    29  H    0.154355
    30  H    0.150987
    31  H    0.154132
    32  H    0.157598
    33  H    0.154514
    34  H    0.160737
 Sum of Mulliken charges =  -0.00000

 Dipole moment (field-independent basis, Debye):
    X=             -1.0435    Y=             -5.0086    Z=             -0.4074  Tot=              5.1323
 Quadrupole moment (field-independent basis, Debye-Ang):
   XX=            -82.0858   YY=           -100.7206   ZZ=            -95.7747
   XY=             12.9328   XZ=              2.0221   YZ=              0.1033

 Normal termination of Gaussian 16 at Thu May  6 07:50:35 2021.
