 Gaussian 16, Revision A.03,
 Gaussian 16:  EM64L-G16RevA.03 25-Dec-2016

 -------------
 #p 6-31g* mp2
 -------------

 ------------------------------------------------------
 Input file generated by CHIRIPA (05-May-2021 14:57:25)
 ------------------------------------------------------
 Symbolic Z-matrix:
 Charge =  0 Multiplicity = 1

                         Standard orientation:
 ---------------------------------------------------------------------
 Center     Atomic      Atomic             Coordinates (Angstroms)
 Number     Number       Type             X           Y           Z
 ---------------------------------------------------------------------
      1          6           0       -0.937399    3.047616   -0.019296
      2          6           0       -1.110997    2.362356    1.187685
      3          6           0       -1.633173    1.065533    1.199136
      4          6           0       -1.972650    0.481580   -0.020308
      5          6           0       -1.811526    1.138450   -1.239263
      6          6           0       -1.287600    2.434557   -1.226789
      7          1           0       -0.531081    4.054741   -0.018899
      8          1           0       -0.839899    2.835982    2.126955
      9          1           0       -1.778010    0.512198    2.119061
     10          1           0       -2.090966    0.640145   -2.159602
     11          1           0       -1.153876    2.964346   -2.165664
     12          7           0       -2.526381   -0.890930   -0.020849
     13          8           0       -2.817697   -1.383299   -1.108666
     14          8           0       -2.658594   -1.448345    1.066553
     15          6           0        0.426417   -2.768511    0.069139
     16          6           0        0.961900   -2.318287   -1.142091
     17          6           0        1.769385   -1.177673   -1.181064
     18          6           0        2.022051   -0.508563    0.015489
     19          6           0        1.503137   -0.932263    1.237986
     20          6           0        0.698265   -2.075285    1.253223
     21          1           0       -0.199841   -3.655502    0.090195
     22          1           0        0.752462   -2.854660   -2.063222
     23          1           0        2.196823   -0.807182   -2.104888
     24          1           0        1.729638   -0.376561    2.139823
     25          1           0        0.283752   -2.422634    2.195334
     26          7           0        2.875515    0.700227   -0.013206
     27          8           0        3.083152    1.271970    1.054799
     28          8           0        3.320663    1.053047   -1.103160
 ---------------------------------------------------------------------

 SCF Done:  E(RHF) =  -868.340450818     A.U. after   16 cycles
 E2 =    -0.2604814268D+01 EUMP2 =    -0.87094526508623D+03

 The electronic state is 1-A.
 Alpha  occ. eigenvalues --  -20.61263 -20.61241 -20.60796 -20.60789 -15.86244
 Alpha  occ. eigenvalues --  -15.85839 -11.31277 -11.30934 -11.27844 -11.27823
 Alpha  occ. eigenvalues --  -11.27474 -11.27470 -11.27430 -11.26961 -11.26725
 Alpha  occ. eigenvalues --  -11.26714 -11.26366 -11.26318  -1.60304  -1.59873
 Alpha  occ. eigenvalues --   -1.39876  -1.39437  -1.19430  -1.19068  -1.08854
 Alpha  occ. eigenvalues --   -1.08471  -1.04795  -1.04433  -0.95762  -0.95360
 Alpha  occ. eigenvalues --   -0.86182  -0.85803  -0.82627  -0.82212  -0.77733
 Alpha  occ. eigenvalues --   -0.77317  -0.72524  -0.72066  -0.71653  -0.71180
 Alpha  occ. eigenvalues --   -0.70509  -0.70057  -0.65076  -0.64774  -0.64686
 Alpha  occ. eigenvalues --   -0.64371  -0.62161  -0.61783  -0.55248  -0.54793
 Alpha  occ. eigenvalues --   -0.53490  -0.52867  -0.52485  -0.52391  -0.49289
 Alpha  occ. eigenvalues --   -0.49239  -0.48836  -0.48791  -0.45409  -0.44911
 Alpha  occ. eigenvalues --   -0.37368  -0.36934  -0.36776  -0.35560
 Alpha virt. eigenvalues --    0.04712   0.05273   0.11260   0.11665   0.16352
 Alpha virt. eigenvalues --    0.16802   0.21240   0.22121   0.26897   0.27864
 Alpha virt. eigenvalues --    0.28601   0.28913   0.30922   0.31665   0.32478

 Mulliken charges:
               1
     1  C   -0.167960
     2  C   -0.217722
     3  C   -0.171387
     4  C    0.162180
     5  C   -0.171593
     6  C   -0.218791
     7  H    0.231401
     8  H    0.226473
     9  H    0.269800
    10  H    0.272924
    11  H    0.225827
    12  N    0.490903
    13  O   -0.463214
    14  O   -0.467191
    15  C   -0.172423
    16  C   -0.218179
    17  C   -0.174603
    18  C    0.160347
    19  C   -0.175371
    20  C   -0.216634
    21  H    0.237893
    22  H    0.226480
    23  H    0.272256
    24  H    0.269689
    25  H    0.228895
    26  N    0.488724
    27  O   -0.465315
    28  O   -0.463410
 Sum of Mulliken charges =  -0.00000

 Dipole moment (field-independent basis, Debye):
    X=             -1.1792    Y=              0.5390    Z=              0.0733  Tot=              1.2987
 Quadrupole moment (field-independent basis, Debye-Ang):
   XX=           -127.1952   YY=            -95.6196   ZZ=            -95.0260
   XY=            -15.9536   XZ=             -0.0591   YZ=              0.1332

 Normal termination of Gaussian 16 at Fri May  7 11:11:37 2021.
