 Gaussian 16, Revision A.03,
 Gaussian 16:  EM64L-G16RevA.03 25-Dec-2016

 -------------
 #p 6-31g* mp2
 -------------

 ------------------------------------------------------
 Input file generated by CHIRIPA (05-May-2021 14:57:24)
 ------------------------------------------------------
 Symbolic Z-matrix:
 Charge =  0 Multiplicity = 1

                         Standard orientation:
 ---------------------------------------------------------------------
 Center     Atomic      Atomic             Coordinates (Angstroms)
 Number     Number       Type             X           Y           Z
 ---------------------------------------------------------------------
      1          6           0       -1.572342    2.860989   -0.457153
      2          6           0       -1.081597    1.854830   -1.295805
      3          6           0       -1.512346    0.533203   -1.146461
      4          6           0       -2.438829    0.251937   -0.143561
      5          6           0       -2.946316    1.232295    0.707700
      6          6           0       -2.501497    2.547063    0.540164
      7          1           0       -1.232260    3.884996   -0.580233
      8          1           0       -0.359934    2.095715   -2.071190
      9          1           0       -1.148792   -0.265234   -1.781871
     10          1           0       -3.664982    0.961464    1.471630
     11          1           0       -2.884331    3.326415    1.192923
     12          7           0       -2.902291   -1.143580    0.024172
     13          8           0       -3.719134   -1.365452    0.915339
     14          8           0       -2.439934   -1.989090   -0.738701
     15          6           0        0.912500   -2.542835    0.043621
     16          6           0        1.624944   -2.117383   -1.082405
     17          6           0        2.431410   -0.976919   -1.023222
     18          6           0        2.502620   -0.282695    0.183539
     19          6           0        1.804917   -0.681376    1.322642
     20          6           0        1.004599   -1.824740    1.240441
     21          1           0        0.288407   -3.429901   -0.011294
     22          1           0        1.555320   -2.673101   -2.013197
     23          1           0        2.993656   -0.625306   -1.879765
     24          1           0        1.894350   -0.106716    2.236527
     25          1           0        0.452427   -2.152820    2.116520
     26          7           0        3.353135    0.926198    0.258378
     27          8           0        3.398962    1.520341    1.333334
     28          8           0        3.957837    1.256696   -0.759337
 ---------------------------------------------------------------------

 SCF Done:  E(RHF) =  -868.340508403     A.U. after   16 cycles
 E2 =    -0.2601459066D+01 EUMP2 =    -0.87094196746904D+03

 The electronic state is 1-A.
 Alpha  occ. eigenvalues --  -20.61380 -20.61353 -20.60930 -20.60916 -15.86389
 Alpha  occ. eigenvalues --  -15.85976 -11.31418 -11.31138 -11.27976 -11.27942
 Alpha  occ. eigenvalues --  -11.27774 -11.27717 -11.27609 -11.27243 -11.26891
 Alpha  occ. eigenvalues --  -11.26853 -11.26612 -11.26544  -1.60437  -1.60011
 Alpha  occ. eigenvalues --   -1.40001  -1.39569  -1.19567  -1.19302  -1.09013
 Alpha  occ. eigenvalues --   -1.08680  -1.04920  -1.04690  -0.95908  -0.95547
 Alpha  occ. eigenvalues --   -0.86328  -0.86060  -0.82765  -0.82398  -0.77851
 Alpha  occ. eigenvalues --   -0.77518  -0.72641  -0.72193  -0.71764  -0.71341
 Alpha  occ. eigenvalues --   -0.70657  -0.70257  -0.65218  -0.64927  -0.64913
 Alpha  occ. eigenvalues --   -0.64644  -0.62283  -0.62041  -0.55410  -0.55012
 Alpha  occ. eigenvalues --   -0.53479  -0.53050  -0.52754  -0.52743  -0.49398
 Alpha  occ. eigenvalues --   -0.49351  -0.48963  -0.48930  -0.45487  -0.45023
 Alpha  occ. eigenvalues --   -0.37561  -0.37102  -0.36500  -0.36321
 Alpha virt. eigenvalues --    0.04568   0.05103   0.11142   0.11301   0.16162
 Alpha virt. eigenvalues --    0.16660   0.21258   0.21798   0.27075   0.27576
 Alpha virt. eigenvalues --    0.28173   0.28763   0.30862   0.31448   0.32155

 Mulliken charges:
               1
     1  C   -0.168326
     2  C   -0.220961
     3  C   -0.166331
     4  C    0.156379
     5  C   -0.172255
     6  C   -0.218929
     7  H    0.230224
     8  H    0.227150
     9  H    0.272781
    10  H    0.274405
    11  H    0.224862
    12  N    0.488020
    13  O   -0.460202
    14  O   -0.467835
    15  C   -0.159208
    16  C   -0.226968
    17  C   -0.176948
    18  C    0.157175
    19  C   -0.169312
    20  C   -0.226830
    21  H    0.240955
    22  H    0.225048
    23  H    0.272561
    24  H    0.274400
    25  H    0.227944
    26  N    0.487760
    27  O   -0.461434
    28  O   -0.464125
 Sum of Mulliken charges =  -0.00000

 Dipole moment (field-independent basis, Debye):
    X=             -1.4913    Y=              0.5935    Z=             -0.7916  Tot=              1.7896
 Quadrupole moment (field-independent basis, Debye-Ang):
   XX=           -127.9152   YY=            -99.5585   ZZ=            -97.7313
   XY=            -23.0381   XZ=             -3.9408   YZ=              0.1770

 Normal termination of Gaussian 16 at Thu May  6 22:49:30 2021.
