 Gaussian 16, Revision A.03,
 Gaussian 16:  EM64L-G16RevA.03 25-Dec-2016

 -------------
 #p 6-31g* mp2
 -------------

 ------------------------------------------------------
 Input file generated by CHIRIPA (05-May-2021 14:53:16)
 ------------------------------------------------------
 Symbolic Z-matrix:
 Charge =  0 Multiplicity = 1

                         Standard orientation:
 ---------------------------------------------------------------------
 Center     Atomic      Atomic             Coordinates (Angstroms)
 Number     Number       Type             X           Y           Z
 ---------------------------------------------------------------------
      1          6           0        1.924004   -0.455267    1.186589
      2          6           0        1.242508   -1.823955    1.202089
      3          6           0        0.245794   -1.975066    2.351663
      4          1           0        2.439733   -0.298670    2.143900
      5          1           0        1.156694    0.327829    1.113157
      6          1           0        2.010955   -2.604290    1.274075
      7          1           0        0.728501   -1.977392    0.244556
      8          1           0       -0.541702   -1.217814    2.280803
      9          1           0        0.748038   -1.848275    3.316171
     10          1           0       -0.229724   -2.960804    2.343768
     11          6           0        2.923256   -0.288973    0.043098
     12          6           0        3.604752    1.079716    0.027598
     13          6           0        4.601466    1.230826   -1.121976
     14          1           0        3.690566   -1.072068    0.116530
     15          1           0        2.407527   -0.445569   -0.914213
     16          1           0        4.118759    1.233152    0.985131
     17          1           0        2.836305    1.860051   -0.044388
     18          1           0        4.099222    1.104035   -2.086484
     19          1           0        5.388962    0.473575   -1.051115
     20          1           0        5.076984    2.216565   -1.114081
     21          6           0       -1.256354   -1.659947   -1.948312
     22          6           0       -0.414767   -0.546200   -1.859899
     23          6           0       -0.757687    0.540309   -1.049681
     24          6           0       -1.955054    0.479301   -0.338429
     25          6           0       -2.814561   -0.616152   -0.405646
     26          6           0       -2.451460   -1.691314   -1.222183
     27          1           0       -0.982128   -2.499567   -2.580163
     28          1           0        0.513983   -0.519089   -2.422691
     29          1           0       -0.124697    1.415064   -0.962820
     30          1           0       -3.733898   -0.614179    0.167271
     31          1           0       -3.106991   -2.554951   -1.288914
     32          7           0       -2.328771    1.623533    0.522657
     33          8           0       -3.389129    1.545304    1.139227
     34          8           0       -1.554256    2.576945    0.564703
 ---------------------------------------------------------------------

 SCF Done:  E(RHF) =  -669.532896345     A.U. after   15 cycles
 E2 =    -0.2097704072D+01 EUMP2 =    -0.67163060041777D+03

 The electronic state is 1-A.
 Alpha  occ. eigenvalues --  -20.60914 -20.60908 -15.85961 -11.31353 -11.27913
 Alpha  occ. eigenvalues --  -11.27894 -11.27633 -11.26923 -11.26882 -11.21938
 Alpha  occ. eigenvalues --  -11.21793 -11.21554 -11.21458 -11.21454 -11.21061
 Alpha  occ. eigenvalues --   -1.59984  -1.39536  -1.19540  -1.08933  -1.08675
 Alpha  occ. eigenvalues --   -1.04936  -1.03723  -0.96199  -0.95745  -0.87207
 Alpha  occ. eigenvalues --   -0.86338  -0.82580  -0.79806  -0.78489  -0.77627
 Alpha  occ. eigenvalues --   -0.72175  -0.71316  -0.70632  -0.65476  -0.65145
 Alpha  occ. eigenvalues --   -0.64932  -0.62252  -0.61194  -0.59566  -0.57800
 Alpha  occ. eigenvalues --   -0.55558  -0.55364  -0.53233  -0.53060  -0.52832
 Alpha  occ. eigenvalues --   -0.52594  -0.50143  -0.48940  -0.48931  -0.48095
 Alpha  occ. eigenvalues --   -0.46876  -0.46009  -0.45972  -0.44914  -0.43989
 Alpha  occ. eigenvalues --   -0.37404  -0.36413
 Alpha virt. eigenvalues --    0.04876   0.10974   0.16256   0.19589   0.23126
 Alpha virt. eigenvalues --    0.23784   0.25518   0.25682   0.27451   0.28454
 Alpha virt. eigenvalues --    0.30078   0.30366   0.31098   0.31602   0.31934

 Mulliken charges:
               1
     1  C   -0.301032
     2  C   -0.305954
     3  C   -0.474734
     4  H    0.153006
     5  H    0.153454
     6  H    0.148545
     7  H    0.157008
     8  H    0.156282
     9  H    0.156303
    10  H    0.156739
    11  C   -0.300624
    12  C   -0.301820
    13  C   -0.474734
    14  H    0.151238
    15  H    0.137409
    16  H    0.156733
    17  H    0.153087
    18  H    0.148840
    19  H    0.156174
    20  H    0.163611
    21  C   -0.171665
    22  C   -0.220251
    23  C   -0.170554
    24  C    0.160347
    25  C   -0.170878
    26  C   -0.216488
    27  H    0.226998
    28  H    0.226107
    29  H    0.277921
    30  H    0.276523
    31  H    0.224499
    32  N    0.487807
    33  O   -0.459290
    34  O   -0.460608
 Sum of Mulliken charges =  -0.00000

 Dipole moment (field-independent basis, Debye):
    X=              1.2157    Y=             -3.9736    Z=             -3.0175  Tot=              5.1354
 Quadrupole moment (field-independent basis, Debye-Ang):
   XX=            -96.3556   YY=            -98.0910   ZZ=            -93.2964
   XY=             10.7127   XZ=              5.5624   YZ=             -0.5130

 Normal termination of Gaussian 16 at Wed May  5 17:11:54 2021.
