 Gaussian 16, Revision A.03,
 Gaussian 16:  EM64L-G16RevA.03 25-Dec-2016

 -------------
 #p 6-31g* mp2
 -------------

 ------------------------------------------------------
 Input file generated by CHIRIPA (05-May-2021 14:55:23)
 ------------------------------------------------------
 Symbolic Z-matrix:
 Charge =  0 Multiplicity = 1

                         Standard orientation:
 ---------------------------------------------------------------------
 Center     Atomic      Atomic             Coordinates (Angstroms)
 Number     Number       Type             X           Y           Z
 ---------------------------------------------------------------------
      1          6           0       -0.945869   -1.650816    1.616625
      2          6           0       -2.158698   -2.144896    1.125247
      3          6           0       -2.983387   -1.341662    0.331994
      4          6           0       -2.562374   -0.043345    0.048429
      5          6           0       -1.359690    0.477671    0.523176
      6          6           0       -0.550932   -0.343414    1.314554
      7          1           0       -0.311419   -2.281721    2.232115
      8          1           0       -2.467957   -3.159846    1.358231
      9          1           0       -3.927336   -1.698794   -0.061496
     10          1           0       -1.078233    1.493593    0.273972
     11          1           0        0.390440    0.042954    1.694794
     12          7           0       -3.427002    0.816452   -0.790360
     13          8           0       -3.033439    1.956751   -1.025866
     14          8           0       -4.481889    0.333781   -1.196414
     15          6           0        2.926198    0.966285   -0.387445
     16          6           0        2.995709    1.868505    0.845094
     17          6           0        2.650538    3.324733    0.531962
     18          1           0        3.612525    1.350523   -1.154426
     19          1           0        1.916052    1.020554   -0.816462
     20          1           0        4.005025    1.811480    1.272463
     21          1           0        2.309278    1.481965    1.609303
     22          1           0        1.636508    3.401667    0.126468
     23          1           0        3.341890    3.733054   -0.212287
     24          1           0        2.706458    3.951993    1.427104
     25          6           0        3.268676   -0.492558   -0.090436
     26          6           0        3.199164   -1.394778   -1.322974
     27          6           0        3.544337   -2.851006   -1.009843
     28          1           0        4.278822   -0.546827    0.338581
     29          1           0        2.582348   -0.876796    0.676546
     30          1           0        3.885595   -1.008238   -2.087183
     31          1           0        2.189848   -1.337754   -1.750343
     32          1           0        2.852983   -3.259327   -0.265593
     33          1           0        4.558366   -2.927940   -0.604348
     34          1           0        3.488415   -3.478266   -1.904984
 ---------------------------------------------------------------------

 SCF Done:  E(RHF) =  -669.535232810     A.U. after   15 cycles
 E2 =    -0.2093032355D+01 EUMP2 =    -0.67162826516514D+03

 The electronic state is 1-A.
 Alpha  occ. eigenvalues --  -20.60799 -20.60794 -15.85852 -11.31234 -11.27803
 Alpha  occ. eigenvalues --  -11.27799 -11.27542 -11.26818 -11.26785 -11.22479
 Alpha  occ. eigenvalues --  -11.22157 -11.22105 -11.22058 -11.21698 -11.21615
 Alpha  occ. eigenvalues --   -1.59874  -1.39427  -1.19406  -1.09151  -1.08793
 Alpha  occ. eigenvalues --   -1.04810  -1.04193  -0.96622  -0.95630  -0.87636
 Alpha  occ. eigenvalues --   -0.86211  -0.82463  -0.80261  -0.78961  -0.77511
 Alpha  occ. eigenvalues --   -0.72070  -0.71197  -0.70513  -0.65960  -0.65056
 Alpha  occ. eigenvalues --   -0.64708  -0.62190  -0.61532  -0.59987  -0.58231
 Alpha  occ. eigenvalues --   -0.55926  -0.55304  -0.53315  -0.53143  -0.53018
 Alpha  occ. eigenvalues --   -0.52901  -0.50574  -0.48837  -0.48825  -0.48565
 Alpha  occ. eigenvalues --   -0.47314  -0.46478  -0.46392  -0.44829  -0.44449
 Alpha  occ. eigenvalues --   -0.37379  -0.36396
 Alpha virt. eigenvalues --    0.05002   0.11140   0.16408   0.18582   0.22920
 Alpha virt. eigenvalues --    0.23244   0.24784   0.25608   0.27250   0.28326
 Alpha virt. eigenvalues --    0.29253   0.30066   0.31208   0.31512   0.32159

 Mulliken charges:
               1
     1  C   -0.173430
     2  C   -0.218312
     3  C   -0.170817
     4  C    0.158713
     5  C   -0.175834
     6  C   -0.222982
     7  H    0.226387
     8  H    0.223717
     9  H    0.275825
    10  H    0.276397
    11  H    0.233979
    12  N    0.488072
    13  O   -0.460316
    14  O   -0.460276
    15  C   -0.302311
    16  C   -0.304197
    17  C   -0.476462
    18  H    0.155288
    19  H    0.151365
    20  H    0.156339
    21  H    0.141752
    22  H    0.155838
    23  H    0.160088
    24  H    0.162798
    25  C   -0.297529
    26  C   -0.300680
    27  C   -0.475265
    28  H    0.151333
    29  H    0.139954
    30  H    0.154717
    31  H    0.156045
    32  H    0.150918
    33  H    0.155820
    34  H    0.163069
 Sum of Mulliken charges =  -0.00000

 Dipole moment (field-independent basis, Debye):
    X=              3.1588    Y=             -2.9770    Z=              2.8282  Tot=              5.1806
 Quadrupole moment (field-independent basis, Debye-Ang):
   XX=           -107.0891   YY=            -92.7829   ZZ=            -95.1600
   XY=             11.3142   XZ=             -7.7320   YZ=              0.0406

 Normal termination of Gaussian 16 at Wed May  5 23:55:34 2021.
