 Gaussian 16, Revision A.03,
 Gaussian 16:  EM64L-G16RevA.03 25-Dec-2016

 -------------
 #p 6-31g* mp2
 -------------

 ------------------------------------------------------
 Input file generated by CHIRIPA (05-May-2021 14:57:26)
 ------------------------------------------------------
 Symbolic Z-matrix:
 Charge =  0 Multiplicity = 1

                         Standard orientation:
 ---------------------------------------------------------------------
 Center     Atomic      Atomic             Coordinates (Angstroms)
 Number     Number       Type             X           Y           Z
 ---------------------------------------------------------------------
      1          6           0       -1.304507   -1.508752   -0.346459
      2          6           0       -2.468310   -2.253113   -0.127343
      3          6           0       -3.705004   -1.614718    0.005281
      4          6           0       -3.741507   -0.224234   -0.086973
      5          6           0       -2.599584    0.545113   -0.304704
      6          6           0       -1.373737   -0.114473   -0.434286
      7          1           0       -0.348027   -2.012904   -0.448303
      8          1           0       -2.417549   -3.336051   -0.058696
      9          1           0       -4.621513   -2.166515    0.175426
     10          1           0       -2.681832    1.623345   -0.368504
     11          1           0       -0.471541    0.466171   -0.604401
     12          7           0       -5.044999    0.462823    0.051819
     13          8           0       -5.050441    1.688935   -0.033366
     14          8           0       -6.036551   -0.237783    0.243162
     15          6           0        5.088383   -1.631492   -0.114175
     16          6           0        4.953212   -0.721798   -1.168074
     17          6           0        4.090847    0.372776   -1.055006
     18          6           0        3.375696    0.527822    0.131506
     19          6           0        3.488726   -0.361283    1.199217
     20          6           0        4.356998   -1.448654    1.064031
     21          1           0        5.760583   -2.478986   -0.210600
     22          1           0        5.519962   -0.861283   -2.084252
     23          1           0        3.967103    1.092250   -1.855295
     24          1           0        2.910559   -0.195804    2.100194
     25          1           0        4.459972   -2.153539    1.884139
     26          7           0        2.459623    1.682785    0.262914
     27          8           0        1.840719    1.797065    1.318630
     28          8           0        2.377853    2.451896   -0.692292
 ---------------------------------------------------------------------

 SCF Done:  E(RHF) =  -868.338339959     A.U. after   16 cycles
 E2 =    -0.2599229799D+01 EUMP2 =    -0.87093756975708D+03

 The electronic state is 1-A.
 Alpha  occ. eigenvalues --  -20.61785 -20.61776 -20.60300 -20.60283 -15.86819
 Alpha  occ. eigenvalues --  -15.85344 -11.32095 -11.30675 -11.28638 -11.28629
 Alpha  occ. eigenvalues --  -11.28338 -11.27612 -11.27597 -11.27281 -11.27152
 Alpha  occ. eigenvalues --  -11.27027 -11.26338 -11.26172  -1.60879  -1.59370
 Alpha  occ. eigenvalues --   -1.40420  -1.38923  -1.20255  -1.18847  -1.09664
 Alpha  occ. eigenvalues --   -1.08268  -1.05625  -1.04228  -0.96508  -0.95104
 Alpha  occ. eigenvalues --   -0.87023  -0.85646  -0.83326  -0.81920  -0.78396
 Alpha  occ. eigenvalues --   -0.76961  -0.73012  -0.72237  -0.71565  -0.71327
 Alpha  occ. eigenvalues --   -0.70691  -0.69991  -0.65888  -0.65603  -0.64502
 Alpha  occ. eigenvalues --   -0.64230  -0.62958  -0.61562  -0.56108  -0.54797
 Alpha  occ. eigenvalues --   -0.53983  -0.53695  -0.52581  -0.52316  -0.49790
 Alpha  occ. eigenvalues --   -0.49779  -0.48326  -0.48316  -0.45830  -0.44335
 Alpha  occ. eigenvalues --   -0.38236  -0.37234  -0.36864  -0.35817
 Alpha virt. eigenvalues --    0.04093   0.05552   0.10419   0.11819   0.15608
 Alpha virt. eigenvalues --    0.17045   0.20651   0.21766   0.26591   0.27277
 Alpha virt. eigenvalues --    0.27743   0.28720   0.30242   0.31263   0.31773

 Mulliken charges:
               1
     1  C   -0.172727
     2  C   -0.218710
     3  C   -0.172144
     4  C    0.158140
     5  C   -0.170794
     6  C   -0.216937
     7  H    0.220604
     8  H    0.219692
     9  H    0.273600
    10  H    0.280625
    11  H    0.230572
    12  N    0.487998
    13  O   -0.458802
    14  O   -0.462833
    15  C   -0.170683
    16  C   -0.218820
    17  C   -0.171896
    18  C    0.153120
    19  C   -0.173591
    20  C   -0.219624
    21  H    0.228441
    22  H    0.226403
    23  H    0.277458
    24  H    0.277813
    25  H    0.225989
    26  N    0.484337
    27  O   -0.457779
    28  O   -0.459455
 Sum of Mulliken charges =  -0.00000

 Dipole moment (field-independent basis, Debye):
    X=              8.1046    Y=             -6.3630    Z=             -0.9375  Tot=             10.3465
 Quadrupole moment (field-independent basis, Debye-Ang):
   XX=           -116.7813   YY=           -104.4971   ZZ=           -101.3731
   XY=             -2.1009   XZ=             -1.4300   YZ=             -2.7655

 Normal termination of Gaussian 16 at Thu May  6 22:56:19 2021.
