 Gaussian 16, Revision A.03,
 Gaussian 16:  EM64L-G16RevA.03 25-Dec-2016

 -------------
 #p 6-31g* mp2
 -------------

 ------------------------------------------------------
 Input file generated by CHIRIPA (05-May-2021 14:55:22)
 ------------------------------------------------------
 Symbolic Z-matrix:
 Charge =  0 Multiplicity = 1

                         Standard orientation:
 ---------------------------------------------------------------------
 Center     Atomic      Atomic             Coordinates (Angstroms)
 Number     Number       Type             X           Y           Z
 ---------------------------------------------------------------------
      1          6           0        3.334187    0.777404   -1.998262
      2          6           0        3.743561   -0.484940   -1.556199
      3          6           0        3.244384   -1.015719   -0.363033
      4          6           0        2.333194   -0.253500    0.366381
      5          6           0        1.906040    1.007220   -0.047644
      6          6           0        2.418348    1.518149   -1.243904
      7          1           0        3.727060    1.182017   -2.926344
      8          1           0        4.454694   -1.062451   -2.139993
      9          1           0        3.544291   -1.990325    0.002506
     10          1           0        1.195896    1.559329    0.555920
     11          1           0        2.098640    2.498782   -1.584774
     12          7           0        1.797787   -0.804905    1.631170
     13          8           0        0.996083   -0.113480    2.255541
     14          8           0        2.189978   -1.918081    1.974192
     15          6           0       -3.249249    0.872354    0.144015
     16          6           0       -2.103431    1.879928    0.044599
     17          6           0       -2.418171    3.203756    0.741888
     18          1           0       -4.155388    1.312780   -0.294029
     19          1           0       -3.473183    0.685647    1.203444
     20          1           0       -1.880802    2.063629   -1.014317
     21          1           0       -1.199866    1.436979    0.482758
     22          1           0       -2.619498    3.040559    1.805577
     23          1           0       -3.304302    3.670770    0.299996
     24          1           0       -1.585619    3.909283    0.658529
     25          6           0       -2.949625   -0.456043   -0.548311
     26          6           0       -4.095443   -1.463616   -0.448895
     27          6           0       -3.780704   -2.787444   -1.146184
     28          1           0       -2.725691   -0.269335   -1.607739
     29          1           0       -2.043486   -0.896469   -0.110267
     30          1           0       -4.999008   -1.020668   -0.887054
     31          1           0       -4.318072   -1.647318    0.610023
     32          1           0       -2.894571   -3.254458   -0.704292
     33          1           0       -3.579377   -2.624248   -2.209874
     34          1           0       -4.613256   -3.492972   -1.062824
 ---------------------------------------------------------------------

 SCF Done:  E(RHF) =  -669.535843874     A.U. after   15 cycles
 E2 =    -0.2091888669D+01 EUMP2 =    -0.67162773254262D+03

 The electronic state is 1-A.
 Alpha  occ. eigenvalues --  -20.60880 -20.60875 -15.85915 -11.31216 -11.27787
 Alpha  occ. eigenvalues --  -11.27758 -11.27522 -11.26792 -11.26776 -11.21572
 Alpha  occ. eigenvalues --  -11.21329 -11.21189 -11.21108 -11.21084 -11.20817
 Alpha  occ. eigenvalues --   -1.59944  -1.39500  -1.19389  -1.08797  -1.08237
 Alpha  occ. eigenvalues --   -1.04783  -1.03383  -0.95823  -0.95641  -0.86840
 Alpha  occ. eigenvalues --   -0.86188  -0.82473  -0.79473  -0.78072  -0.77512
 Alpha  occ. eigenvalues --   -0.72136  -0.71259  -0.70507  -0.65047  -0.64919
 Alpha  occ. eigenvalues --   -0.64724  -0.62161  -0.60746  -0.59213  -0.57450
 Alpha  occ. eigenvalues --   -0.55297  -0.55080  -0.53117  -0.52889  -0.52540
 Alpha  occ. eigenvalues --   -0.52253  -0.49743  -0.48901  -0.48889  -0.47773
 Alpha  occ. eigenvalues --   -0.46465  -0.45612  -0.45505  -0.44860  -0.43624
 Alpha  occ. eigenvalues --   -0.37369  -0.36367
 Alpha virt. eigenvalues --    0.04968   0.11207   0.16488   0.20827   0.23128
 Alpha virt. eigenvalues --    0.24141   0.26223   0.26964   0.27796   0.27968
 Alpha virt. eigenvalues --    0.29177   0.30490   0.31535   0.31828   0.31997

 Mulliken charges:
               1
     1  C   -0.170551
     2  C   -0.218541
     3  C   -0.170751
     4  C    0.157050
     5  C   -0.170861
     6  C   -0.219806
     7  H    0.225713
     8  H    0.223523
     9  H    0.275512
    10  H    0.280397
    11  H    0.223986
    12  N    0.488436
    13  O   -0.462729
    14  O   -0.459418
    15  C   -0.296870
    16  C   -0.309609
    17  C   -0.475140
    18  H    0.147837
    19  H    0.155503
    20  H    0.145638
    21  H    0.160306
    22  H    0.161617
    23  H    0.155123
    24  H    0.153092
    25  C   -0.299400
    26  C   -0.299788
    27  C   -0.476124
    28  H    0.145581
    29  H    0.154630
    30  H    0.150137
    31  H    0.155120
    32  H    0.157822
    33  H    0.152627
    34  H    0.159937
 Sum of Mulliken charges =  -0.00000

 Dipole moment (field-independent basis, Debye):
    X=              1.9015    Y=              1.8597    Z=             -4.3564  Tot=              5.1042
 Quadrupole moment (field-independent basis, Debye-Ang):
   XX=            -84.7242   YY=            -93.7102   ZZ=            -98.0992
   XY=              1.4823   XZ=            -10.3745   YZ=              1.6550

 Normal termination of Gaussian 16 at Wed May  5 17:30:57 2021.
