 Gaussian 16, Revision A.03,
 Gaussian 16:  EM64L-G16RevA.03 25-Dec-2016

 -------------
 #p 6-31g* mp2
 -------------

 ------------------------------------------------------
 Input file generated by CHIRIPA (05-May-2021 14:53:18)
 ------------------------------------------------------
 Symbolic Z-matrix:
 Charge =  0 Multiplicity = 1

                         Standard orientation:
 ---------------------------------------------------------------------
 Center     Atomic      Atomic             Coordinates (Angstroms)
 Number     Number       Type             X           Y           Z
 ---------------------------------------------------------------------
      1          6           0        4.092853   -0.013339    0.170168
      2          6           0        3.027446   -1.109057    0.122261
      3          6           0        1.648070   -0.611723    0.555591
      4          1           0        4.150498    0.388812    1.190901
      5          1           0        3.782278    0.818906   -0.476598
      6          1           0        3.340599   -1.939582    0.767846
      7          1           0        2.972464   -1.508778   -0.898433
      8          1           0        1.310374    0.202149   -0.094158
      9          1           0        1.680601   -0.231102    1.581588
     10          1           0        0.901708   -1.411134    0.513805
     11          6           0        5.477171   -0.495147   -0.260241
     12          6           0        6.542578    0.600571   -0.212334
     13          6           0        7.921954    0.103237   -0.645664
     14          1           0        5.787746   -1.327392    0.386525
     15          1           0        5.419525   -0.897298   -1.280974
     16          1           0        6.597559    1.000292    0.808360
     17          1           0        6.229425    1.431096   -0.857919
     18          1           0        7.889423   -0.277384   -1.671661
     19          1           0        8.259650   -0.710635    0.004085
     20          1           0        8.668316    0.902648   -0.603878
     21          6           0       -1.712819    1.511234    0.770340
     22          6           0       -1.848672    0.168812    1.139080
     23          6           0       -2.966733   -0.568177    0.737417
     24          6           0       -3.934106    0.071729   -0.035887
     25          6           0       -3.827362    1.407717   -0.419336
     26          6           0       -2.700855    2.125319   -0.006323
     27          1           0       -0.841002    2.076215    1.086770
     28          1           0       -1.082925   -0.310691    1.742200
     29          1           0       -3.097149   -1.608758    1.008711
     30          1           0       -4.607295    1.858345   -1.021045
     31          1           0       -2.597996    3.167723   -0.294178
     32          7           0       -5.122217   -0.698226   -0.467118
     33          8           0       -5.960459   -0.111365   -1.147986
     34          8           0       -5.192719   -1.873998   -0.116083
 ---------------------------------------------------------------------

 SCF Done:  E(RHF) =  -669.535258229     A.U. after   15 cycles
 E2 =    -0.2091586115D+01 EUMP2 =    -0.67162684434473D+03

 The electronic state is 1-A.
 Alpha  occ. eigenvalues --  -20.60711 -20.60706 -15.85763 -11.31114 -11.27674
 Alpha  occ. eigenvalues --  -11.27652 -11.27389 -11.26697 -11.26618 -11.22345
 Alpha  occ. eigenvalues --  -11.22124 -11.22057 -11.22045 -11.21885 -11.21440
 Alpha  occ. eigenvalues --   -1.59787  -1.39341  -1.19277  -1.09044  -1.08672
 Alpha  occ. eigenvalues --   -1.04680  -1.04170  -0.96656  -0.95511  -0.87700
 Alpha  occ. eigenvalues --   -0.86057  -0.82345  -0.80257  -0.78832  -0.77392
 Alpha  occ. eigenvalues --   -0.71981  -0.71109  -0.70379  -0.65667  -0.64925
 Alpha  occ. eigenvalues --   -0.64686  -0.62048  -0.61563  -0.60012  -0.58242
 Alpha  occ. eigenvalues --   -0.55951  -0.55168  -0.53523  -0.53100  -0.52938
 Alpha  occ. eigenvalues --   -0.52617  -0.50584  -0.48739  -0.48738  -0.48561
 Alpha  occ. eigenvalues --   -0.47259  -0.46382  -0.46283  -0.44750  -0.44412
 Alpha  occ. eigenvalues --   -0.37236  -0.36260
 Alpha virt. eigenvalues --    0.05113   0.11321   0.16561   0.20669   0.22379
 Alpha virt. eigenvalues --    0.23833   0.25835   0.26200   0.26840   0.27773
 Alpha virt. eigenvalues --    0.29071   0.30047   0.30674   0.31549   0.32173

 Mulliken charges:
               1
     1  C   -0.299050
     2  C   -0.300539
     3  C   -0.480476
     4  H    0.148723
     5  H    0.148984
     6  H    0.154164
     7  H    0.156163
     8  H    0.157483
     9  H    0.148454
    10  H    0.161123
    11  C   -0.298819
    12  C   -0.299968
    13  C   -0.476034
    14  H    0.150723
    15  H    0.151302
    16  H    0.151803
    17  H    0.151926
    18  H    0.156106
    19  H    0.155904
    20  H    0.161240
    21  C   -0.172790
    22  C   -0.215883
    23  C   -0.173477
    24  C    0.158809
    25  C   -0.171440
    26  C   -0.218897
    27  H    0.225982
    28  H    0.228662
    29  H    0.274993
    30  H    0.275187
    31  H    0.222919
    32  N    0.488058
    33  O   -0.460686
    34  O   -0.460651
 Sum of Mulliken charges =  -0.00000

 Dipole moment (field-independent basis, Debye):
    X=              4.3796    Y=              2.6798    Z=              1.4736  Tot=              5.3417
 Quadrupole moment (field-independent basis, Debye-Ang):
   XX=           -128.3734   YY=            -91.3009   ZZ=            -93.6070
   XY=            -12.0314   XZ=             -4.8473   YZ=             -2.4905

 Normal termination of Gaussian 16 at Thu May  6 02:49:13 2021.
