 Gaussian 16, Revision A.03,
 Gaussian 16:  EM64L-G16RevA.03 25-Dec-2016

 -------------
 #p 6-31g* mp2
 -------------

 ------------------------------------------------------
 Input file generated by CHIRIPA (05-May-2021 14:53:13)
 ------------------------------------------------------
 Symbolic Z-matrix:
 Charge =  0 Multiplicity = 1

                         Standard orientation:
 ---------------------------------------------------------------------
 Center     Atomic      Atomic             Coordinates (Angstroms)
 Number     Number       Type             X           Y           Z
 ---------------------------------------------------------------------
      1          6           0        5.392710   -0.554107   -0.168477
      2          6           0        6.755391    0.139386   -0.156156
      3          6           0        7.921852   -0.848800   -0.181690
      4          1           0        5.323415   -1.227786    0.696566
      5          1           0        5.319077   -1.186645   -1.063948
      6          1           0        6.825891    0.771502    0.738313
      7          1           0        6.821376    0.811636   -1.021223
      8          1           0        7.879430   -1.471699   -1.081022
      9          1           0        7.883971   -1.512061    0.688512
     10          1           0        8.886394   -0.331662   -0.172369
     11          6           0        4.216670    0.420583   -0.143227
     12          6           0        2.853989   -0.272910   -0.155548
     13          6           0        1.687528    0.715276   -0.130014
     14          1           0        4.290303    1.053121    0.752244
     15          1           0        4.285965    1.094262   -1.008270
     16          1           0        2.788004   -0.945160    0.709520
     17          1           0        2.783489   -0.905026   -1.050017
     18          1           0        1.725409    1.378537   -1.000216
     19          1           0        1.729950    1.338175    0.769318
     20          1           0        0.722986    0.198138   -0.139334
     21          6           0       -1.697128    1.122736    1.116972
     22          6           0       -2.246086   -0.020674    1.706701
     23          6           0       -3.385368   -0.622252    1.163848
     24          6           0       -3.952483   -0.051342    0.025546
     25          6           0       -3.429006    1.087301   -0.584991
     26          6           0       -2.289296    1.672106   -0.024979
     27          1           0       -0.811941    1.583542    1.545337
     28          1           0       -1.788317   -0.449501    2.593606
     29          1           0       -3.831057   -1.507940    1.600125
     30          1           0       -3.907629    1.491816   -1.468566
     31          1           0       -1.865139    2.560041   -0.485095
     32          7           0       -5.158816   -0.679327   -0.558231
     33          8           0       -5.639620   -0.156969   -1.561529
     34          8           0       -5.600692   -1.682008   -0.001444
 ---------------------------------------------------------------------

 SCF Done:  E(RHF) =  -669.534909156     A.U. after   15 cycles
 E2 =    -0.2091726806D+01 EUMP2 =    -0.67162663596200D+03

 The electronic state is 1-A.
 Alpha  occ. eigenvalues --  -20.60739 -20.60734 -15.85795 -11.31148 -11.27741
 Alpha  occ. eigenvalues --  -11.27731 -11.27426 -11.26730 -11.26713 -11.22273
 Alpha  occ. eigenvalues --  -11.21996 -11.21954 -11.21925 -11.21824 -11.21398
 Alpha  occ. eigenvalues --   -1.59816  -1.39370  -1.19337  -1.08969  -1.08727
 Alpha  occ. eigenvalues --   -1.04736  -1.04092  -0.96570  -0.95554  -0.87591
 Alpha  occ. eigenvalues --   -0.86129  -0.82393  -0.80168  -0.78759  -0.77440
 Alpha  occ. eigenvalues --   -0.72012  -0.71141  -0.70442  -0.65597  -0.64982
 Alpha  occ. eigenvalues --   -0.64733  -0.62082  -0.61497  -0.59948  -0.58156
 Alpha  occ. eigenvalues --   -0.55934  -0.55186  -0.53527  -0.53013  -0.52822
 Alpha  occ. eigenvalues --   -0.52721  -0.50502  -0.48769  -0.48767  -0.48475
 Alpha  occ. eigenvalues --   -0.47188  -0.46307  -0.46217  -0.44778  -0.44341
 Alpha  occ. eigenvalues --   -0.37229  -0.36353
 Alpha virt. eigenvalues --    0.05087   0.11282   0.16551   0.20789   0.22436
 Alpha virt. eigenvalues --    0.23881   0.25787   0.26372   0.27197   0.27358
 Alpha virt. eigenvalues --    0.28760   0.30100   0.31185   0.31617   0.32263

 Mulliken charges:
               1
     1  C   -0.298670
     2  C   -0.299916
     3  C   -0.475970
     4  H    0.149845
     5  H    0.151020
     6  H    0.151663
     7  H    0.152460
     8  H    0.156059
     9  H    0.155463
    10  H    0.161209
    11  C   -0.298694
    12  C   -0.298948
    13  C   -0.484847
    14  H    0.148272
    15  H    0.150461
    16  H    0.151499
    17  H    0.155813
    18  H    0.156207
    19  H    0.145425
    20  H    0.169247
    21  C   -0.169404
    22  C   -0.221391
    23  C   -0.170592
    24  C    0.157965
    25  C   -0.170805
    26  C   -0.219944
    27  H    0.231068
    28  H    0.223421
    29  H    0.275506
    30  H    0.275525
    31  H    0.224164
    32  N    0.488139
    33  O   -0.460597
    34  O   -0.460651
 Sum of Mulliken charges =  -0.00000

 Dipole moment (field-independent basis, Debye):
    X=              4.3592    Y=              2.1833    Z=              2.0186  Tot=              5.2768
 Quadrupole moment (field-independent basis, Debye-Ang):
   XX=           -129.7676   YY=            -93.3272   ZZ=            -91.4143
   XY=             -8.7303   XZ=             -8.1144   YZ=             -2.9959

 Normal termination of Gaussian 16 at Thu May  6 08:54:06 2021.
