 Gaussian 16, Revision A.03,
 Gaussian 16:  EM64L-G16RevA.03 25-Dec-2016

 -------------
 #p 6-31g* mp2
 -------------

 ------------------------------------------------------
 Input file generated by CHIRIPA (05-May-2021 14:57:21)
 ------------------------------------------------------
 Symbolic Z-matrix:
 Charge =  0 Multiplicity = 1

                         Standard orientation:
 ---------------------------------------------------------------------
 Center     Atomic      Atomic             Coordinates (Angstroms)
 Number     Number       Type             X           Y           Z
 ---------------------------------------------------------------------
      1          6           0        3.323950    2.501695    0.887165
      2          6           0        2.912882    2.298353   -0.434273
      3          6           0        2.803982    1.004621   -0.952872
      4          6           0        3.115436   -0.067693   -0.118348
      5          6           0        3.527718    0.102437    1.202397
      6          6           0        3.629517    1.405021    1.699849
      7          1           0        3.405788    3.510136    1.281811
      8          1           0        2.674926    3.148164   -1.067710
      9          1           0        2.488152    0.818554   -1.972209
     10          1           0        3.758093   -0.764509    1.809645
     11          1           0        3.949010    1.559937    2.726480
     12          7           0        3.003907   -1.441995   -0.656173
     13          8           0        3.284066   -2.369978    0.099470
     14          8           0        2.638444   -1.565168   -1.823178
     15          6           0       -1.901587   -2.309326    0.501733
     16          6           0       -1.329168   -1.343079   -0.332068
     17          6           0       -2.002869   -0.147847   -0.600574
     18          6           0       -3.252946    0.049096   -0.015925
     19          6           0       -3.849563   -0.894392    0.819042
     20          6           0       -3.157742   -2.082299    1.073619
     21          1           0       -1.371203   -3.234966    0.704905
     22          1           0       -0.353757   -1.516685   -0.777577
     23          1           0       -1.582932    0.617139   -1.242344
     24          1           0       -4.823327   -0.692825    1.248659
     25          1           0       -3.604723   -2.830923    1.721551
     26          7           0       -3.975753    1.310557   -0.292808
     27          8           0       -5.075867    1.459996    0.234501
     28          8           0       -3.428490    2.125965   -1.031894
 ---------------------------------------------------------------------

 SCF Done:  E(RHF) =  -868.339848299     A.U. after   16 cycles
 E2 =    -0.2598972720D+01 EUMP2 =    -0.87093882101932D+03

 The electronic state is 1-A.
 Alpha  occ. eigenvalues --  -20.61732 -20.61723 -20.60654 -20.60643 -15.86740
 Alpha  occ. eigenvalues --  -15.85699 -11.31822 -11.30920 -11.28348 -11.28337
 Alpha  occ. eigenvalues --  -11.27988 -11.27474 -11.27454 -11.27275 -11.27256
 Alpha  occ. eigenvalues --  -11.27095 -11.26446 -11.26323  -1.60804  -1.59729
 Alpha  occ. eigenvalues --   -1.40359  -1.39288  -1.19956  -1.19060  -1.09398
 Alpha  occ. eigenvalues --   -1.08466  -1.05306  -1.04437  -0.96280  -0.95333
 Alpha  occ. eigenvalues --   -0.86716  -0.85830  -0.83116  -0.82170  -0.78210
 Alpha  occ. eigenvalues --   -0.77253  -0.72951  -0.72135  -0.71919  -0.71050
 Alpha  occ. eigenvalues --   -0.71039  -0.70137  -0.65600  -0.65289  -0.64701
 Alpha  occ. eigenvalues --   -0.64403  -0.62657  -0.61783  -0.55791  -0.54890
 Alpha  occ. eigenvalues --   -0.53656  -0.53383  -0.52781  -0.52507  -0.49739
 Alpha  occ. eigenvalues --   -0.49691  -0.48686  -0.48661  -0.45804  -0.44726
 Alpha  occ. eigenvalues --   -0.37907  -0.37013  -0.36899  -0.36044
 Alpha virt. eigenvalues --    0.04270   0.05268   0.10739   0.11611   0.15828
 Alpha virt. eigenvalues --    0.16812   0.20901   0.21817   0.26726   0.27247
 Alpha virt. eigenvalues --    0.28126   0.28724   0.30515   0.31341   0.32170

 Mulliken charges:
               1
     1  C   -0.169166
     2  C   -0.217338
     3  C   -0.175154
     4  C    0.156026
     5  C   -0.170663
     6  C   -0.217983
     7  H    0.229559
     8  H    0.228206
     9  H    0.275072
    10  H    0.275513
    11  H    0.225795
    12  N    0.485613
    13  O   -0.458263
    14  O   -0.463262
    15  C   -0.171673
    16  C   -0.225136
    17  C   -0.171928
    18  C    0.158097
    19  C   -0.172165
    20  C   -0.218885
    21  H    0.231292
    22  H    0.234593
    23  H    0.271491
    24  H    0.274033
    25  H    0.222713
    26  N    0.488260
    27  O   -0.461183
    28  O   -0.463461
 Sum of Mulliken charges =  -0.00000

 Dipole moment (field-independent basis, Debye):
    X=              3.2149    Y=              0.4485    Z=              2.9719  Tot=              4.4010
 Quadrupole moment (field-independent basis, Debye-Ang):
   XX=           -116.7698   YY=           -105.2602   ZZ=           -100.3919
   XY=             31.2313   XZ=              1.9251   YZ=             -3.4281

 Normal termination of Gaussian 16 at Thu May  6 16:10:23 2021.
