 Gaussian 16, Revision A.03,
 Gaussian 16:  EM64L-G16RevA.03 25-Dec-2016

 -------------
 #p 6-31g* mp2
 -------------

 ------------------------------------------------------
 Input file generated by CHIRIPA (05-May-2021 14:51:11)
 ------------------------------------------------------
 Symbolic Z-matrix:
 Charge =  0 Multiplicity = 1

                         Standard orientation:
 ---------------------------------------------------------------------
 Center     Atomic      Atomic             Coordinates (Angstroms)
 Number     Number       Type             X           Y           Z
 ---------------------------------------------------------------------
      1          6           0       -2.042091   -0.068054    1.126757
      2          6           0       -1.213867   -1.172968    1.783411
      3          6           0       -0.624686   -0.749544    3.129284
      4          1           0       -1.411890    0.821263    0.989257
      5          1           0       -2.853387    0.225910    1.807036
      6          1           0       -0.405205   -1.465725    1.101520
      7          1           0       -1.846061   -2.059822    1.919189
      8          1           0       -1.420761   -0.476757    3.829608
      9          1           0        0.028281    0.120716    3.007292
     10          1           0       -0.036458   -1.554366    3.581067
     11          6           0       -2.637747   -0.476248   -0.219460
     12          6           0       -3.465972    0.628665   -0.876114
     13          6           0       -4.055152    0.205241   -2.221986
     14          1           0       -1.826451   -0.770213   -0.899738
     15          1           0       -3.267948   -1.365565   -0.081960
     16          1           0       -2.833778    1.515520   -1.011892
     17          1           0       -4.274633    0.921422   -0.194222
     18          1           0       -4.708120   -0.665019   -2.099995
     19          1           0       -3.259077   -0.067546   -2.922310
     20          1           0       -4.643380    1.010063   -2.673769
     21          6           0        2.176900    0.987331   -0.666664
     22          6           0        2.197734    1.984808    0.492038
     23          6           0        1.869666    3.411275    0.050048
     24          1           0        2.895389    1.309774   -1.432659
     25          1           0        1.185518    1.006626   -1.140145
     26          1           0        3.188350    1.962634    0.964063
     27          1           0        1.479252    1.659848    1.255451
     28          1           0        0.873490    3.455031   -0.401970
     29          1           0        2.592298    3.759538   -0.695013
     30          1           0        1.890156    4.107809    0.894016
     31          6           0        2.502938   -0.443028   -0.240634
     32          6           0        2.482104   -1.440505   -1.399336
     33          6           0        2.810173   -2.866973   -0.957345
     34          1           0        3.494320   -0.462323    0.232847
     35          1           0        1.784450   -0.765472    0.525361
     36          1           0        3.200587   -1.115546   -2.162749
     37          1           0        1.491488   -1.418331   -1.871361
     38          1           0        2.087541   -3.215235   -0.212284
     39          1           0        3.806349   -2.910729   -0.505327
     40          1           0        2.789682   -3.563506   -1.801314
 ---------------------------------------------------------------------

 SCF Done:  E(RHF) =  -470.733223127     A.U. after   11 cycles
 E2 =    -0.1584559666D+01 EUMP2 =    -0.47231778279256D+03

 The electronic state is 1-A.
 Alpha  occ. eigenvalues --  -11.21672 -11.21669 -11.21660 -11.21650 -11.21481
 Alpha  occ. eigenvalues --  -11.21455 -11.21422 -11.21380 -11.21138 -11.21130
 Alpha  occ. eigenvalues --  -11.21113 -11.21103  -1.08540  -1.08452  -1.03598
 Alpha  occ. eigenvalues --   -1.03583  -0.96047  -0.96024  -0.87062  -0.87040
 Alpha  occ. eigenvalues --   -0.79705  -0.79604  -0.78340  -0.78281  -0.65507
 Alpha  occ. eigenvalues --   -0.64790  -0.61006  -0.60979  -0.59439  -0.59366
 Alpha  occ. eigenvalues --   -0.57671  -0.57619  -0.55365  -0.55290  -0.52732
 Alpha  occ. eigenvalues --   -0.52721  -0.52467  -0.52452  -0.50052  -0.49927
 Alpha  occ. eigenvalues --   -0.48009  -0.47988  -0.46917  -0.46488  -0.46071
 Alpha  occ. eigenvalues --   -0.45780  -0.45744  -0.45482  -0.43850  -0.43832
 Alpha virt. eigenvalues --    0.18164   0.22241   0.22813   0.24320   0.25606
 Alpha virt. eigenvalues --    0.26448   0.27542   0.27717   0.28928   0.29573
 Alpha virt. eigenvalues --    0.30524   0.31370   0.31658   0.31739   0.32339

 Mulliken charges:
               1
     1  C   -0.300319
     2  C   -0.305345
     3  C   -0.479578
     4  H    0.151034
     5  H    0.150201
     6  H    0.155957
     7  H    0.152827
     8  H    0.155800
     9  H    0.158296
    10  H    0.160823
    11  C   -0.299005
    12  C   -0.299637
    13  C   -0.475761
    14  H    0.149394
    15  H    0.150161
    16  H    0.151566
    17  H    0.152285
    18  H    0.155354
    19  H    0.155217
    20  H    0.160541
    21  C   -0.298426
    22  C   -0.305136
    23  C   -0.475636
    24  H    0.150181
    25  H    0.149158
    26  H    0.152598
    27  H    0.155907
    28  H    0.154775
    29  H    0.155610
    30  H    0.160659
    31  C   -0.306031
    32  C   -0.300029
    33  C   -0.476318
    34  H    0.150032
    35  H    0.157531
    36  H    0.152342
    37  H    0.151452
    38  H    0.155538
    39  H    0.155459
    40  H    0.160525
 Sum of Mulliken charges =  -0.00000

 Dipole moment (field-independent basis, Debye):
    X=             -0.0005    Y=             -0.0032    Z=              0.0164  Tot=              0.0167
 Quadrupole moment (field-independent basis, Debye-Ang):
   XX=            -83.2236   YY=            -85.7993   ZZ=            -85.4887
   XY=              0.6426   XZ=             -1.1044   YZ=             -0.1831

 Normal termination of Gaussian 16 at Thu May  6 02:16:36 2021.
