 Gaussian 16, Revision A.03,
 Gaussian 16:  EM64L-G16RevA.03 25-Dec-2016

 -------------
 #p 6-31g* mp2
 -------------

 ------------------------------------------------------
 Input file generated by CHIRIPA (05-May-2021 14:51:08)
 ------------------------------------------------------
 Symbolic Z-matrix:
 Charge =  0 Multiplicity = 1

                         Standard orientation:
 ---------------------------------------------------------------------
 Center     Atomic      Atomic             Coordinates (Angstroms)
 Number     Number       Type             X           Y           Z
 ---------------------------------------------------------------------
      1          6           0       -2.880311    1.436422    0.085263
      2          6           0       -1.398956    1.797643   -0.029153
      3          6           0       -1.137836    3.291321    0.167149
      4          1           0       -3.449673    2.010495   -0.658520
      5          1           0       -3.251411    1.747966    1.071478
      6          1           0       -1.030417    1.484261   -1.014336
      7          1           0       -0.833030    1.222500    0.714860
      8          1           0       -1.478582    3.615294    1.155852
      9          1           0       -1.677091    3.878542   -0.583169
     10          1           0       -0.072574    3.527335    0.081277
     11          6           0       -3.157333   -0.053340   -0.108631
     12          6           0       -4.638689   -0.414561    0.005784
     13          6           0       -4.899809   -1.908239   -0.190518
     14          1           0       -2.786234   -0.364884   -1.094847
     15          1           0       -2.587972   -0.627413    0.635151
     16          1           0       -5.204615    0.160582   -0.738229
     17          1           0       -5.007228   -0.101179    0.990967
     18          1           0       -4.360554   -2.495460    0.559800
     19          1           0       -4.559062   -2.232212   -1.179221
     20          1           0       -5.965071   -2.144253   -0.104646
     21          6           0        2.500620   -1.136065    0.354171
     22          6           0        1.146285   -1.145961   -0.355522
     23          6           0        0.120127   -2.039764    0.341550
     24          1           0        2.885404   -2.163542    0.410534
     25          1           0        2.361425   -0.797158    1.390106
     26          1           0        1.288198   -1.483427   -1.390217
     27          1           0        0.764770   -0.118316   -0.410373
     28          1           0       -0.050754   -1.701530    1.368681
     29          1           0        0.475649   -3.074397    0.383269
     30          1           0       -0.840718   -2.032068   -0.182452
     31          6           0        3.537025   -0.247017   -0.330802
     32          6           0        4.891360   -0.237121    0.378891
     33          6           0        5.917517    0.656683   -0.318181
     34          1           0        3.676220   -0.585925   -1.366737
     35          1           0        3.152240    0.780460   -0.387165
     36          1           0        5.272875   -1.264766    0.433741
     37          1           0        4.749447    0.100345    1.413586
     38          1           0        5.561997    1.691315   -0.359899
     39          1           0        6.088399    0.318448   -1.345311
     40          1           0        6.878363    0.648986    0.205820
 ---------------------------------------------------------------------

 SCF Done:  E(RHF) =  -470.731300219     A.U. after   11 cycles
 E2 =    -0.1584990590D+01 EUMP2 =    -0.47231629080902D+03

 The electronic state is 1-A.
 Alpha  occ. eigenvalues --  -11.21644 -11.21600 -11.21567 -11.21418 -11.21394
 Alpha  occ. eigenvalues --  -11.21341 -11.21328 -11.21271 -11.21132 -11.21079
 Alpha  occ. eigenvalues --  -11.21048 -11.20916  -1.08488  -1.08335  -1.03582
 Alpha  occ. eigenvalues --   -1.03441  -0.96029  -0.95899  -0.87066  -0.86901
 Alpha  occ. eigenvalues --   -0.79798  -0.79393  -0.78367  -0.78111  -0.65151
 Alpha  occ. eigenvalues --   -0.64949  -0.60999  -0.60859  -0.59372  -0.59303
 Alpha  occ. eigenvalues --   -0.57701  -0.57470  -0.55331  -0.55187  -0.52801
 Alpha  occ. eigenvalues --   -0.52676  -0.52412  -0.52231  -0.49986  -0.49843
 Alpha  occ. eigenvalues --   -0.48290  -0.47622  -0.46686  -0.46490  -0.45958
 Alpha  occ. eigenvalues --   -0.45732  -0.45662  -0.45304  -0.43810  -0.43637
 Alpha virt. eigenvalues --    0.21426   0.23026   0.23999   0.24060   0.25504
 Alpha virt. eigenvalues --    0.26379   0.27015   0.27512   0.28485   0.30092
 Alpha virt. eigenvalues --    0.30463   0.31112   0.31637   0.31710   0.32188

 Mulliken charges:
               1
     1  C   -0.297180
     2  C   -0.305337
     3  C   -0.475427
     4  H    0.149485
     5  H    0.149289
     6  H    0.154215
     7  H    0.155561
     8  H    0.155331
     9  H    0.155622
    10  H    0.159721
    11  C   -0.304177
    12  C   -0.298918
    13  C   -0.476592
    14  H    0.148947
    15  H    0.157593
    16  H    0.151640
    17  H    0.151768
    18  H    0.155806
    19  H    0.154899
    20  H    0.160560
    21  C   -0.297592
    22  C   -0.308962
    23  C   -0.480224
    24  H    0.149224
    25  H    0.148378
    26  H    0.150335
    27  H    0.163329
    28  H    0.151943
    29  H    0.154212
    30  H    0.167476
    31  C   -0.298020
    32  C   -0.299544
    33  C   -0.475647
    34  H    0.149369
    35  H    0.149019
    36  H    0.151925
    37  H    0.151730
    38  H    0.155005
    39  H    0.155112
    40  H    0.160128
 Sum of Mulliken charges =  -0.00000

 Dipole moment (field-independent basis, Debye):
    X=             -0.0684    Y=              0.0326    Z=             -0.0047  Tot=              0.0759
 Quadrupole moment (field-independent basis, Debye-Ang):
   XX=            -85.6907   YY=            -85.7028   ZZ=            -83.6267
   XY=             -1.0647   XZ=              0.1851   YZ=              0.4221

 Normal termination of Gaussian 16 at Thu May  6 08:26:15 2021.
