 Gaussian 16, Revision A.03,
 Gaussian 16:  EM64L-G16RevA.03 25-Dec-2016

 -------------
 #p 6-31g* mp2
 -------------

 ------------------------------------------------------
 Input file generated by CHIRIPA (05-May-2021 14:57:26)
 ------------------------------------------------------
 Symbolic Z-matrix:
 Charge =  0 Multiplicity = 1

                         Standard orientation:
 ---------------------------------------------------------------------
 Center     Atomic      Atomic             Coordinates (Angstroms)
 Number     Number       Type             X           Y           Z
 ---------------------------------------------------------------------
      1          6           0       -1.904321    2.395971    0.969845
      2          6           0       -1.580721    1.144767    1.504908
      3          6           0       -2.236671   -0.007839    1.062441
      4          6           0       -3.215466    0.127955    0.079177
      5          6           0       -3.560249    1.360462   -0.473400
      6          6           0       -2.891313    2.499643   -0.015864
      7          1           0       -1.389719    3.286129    1.319417
      8          1           0       -0.814633    1.061249    2.270531
      9          1           0       -2.005891   -0.988919    1.459481
     10          1           0       -4.328376    1.412041   -1.235462
     11          1           0       -3.144694    3.470040   -0.433202
     12          7           0       -3.916766   -1.085151   -0.397220
     13          8           0       -4.775327   -0.938773   -1.264447
     14          8           0       -3.594604   -2.159391    0.105629
     15          6           0        5.210794    1.039468   -0.358482
     16          6           0        5.218455   -0.157822    0.364677
     17          6           0        4.054710   -0.923559    0.482545
     18          6           0        2.895809   -0.460081   -0.138281
     19          6           0        2.856333    0.728515   -0.865586
     20          6           0        4.031836    1.478042   -0.970227
     21          1           0        6.119386    1.628014   -0.444907
     22          1           0        6.132594   -0.500877    0.840815
     23          1           0        4.032543   -1.854251    1.036387
     24          1           0        1.929749    1.044646   -1.329183
     25          1           0        4.022942    2.407476   -1.532471
     26          7           0        1.657581   -1.262152   -0.020501
     27          8           0        0.649525   -0.832008   -0.576771
     28          8           0        1.718559   -2.305772    0.625855
 ---------------------------------------------------------------------

 SCF Done:  E(RHF) =  -868.337496837     A.U. after   16 cycles
 E2 =    -0.2600391501D+01 EUMP2 =    -0.87093788833872D+03

 The electronic state is 1-A.
 Alpha  occ. eigenvalues --  -20.61219 -20.61182 -20.59720 -20.59672 -15.86226
 Alpha  occ. eigenvalues --  -15.84755 -11.31597 -11.30107 -11.28164 -11.28152
 Alpha  occ. eigenvalues --  -11.27898 -11.27177 -11.27157 -11.26820 -11.26663
 Alpha  occ. eigenvalues --  -11.26636 -11.25867 -11.25766  -1.60275  -1.58770
 Alpha  occ. eigenvalues --   -1.39824  -1.38323  -1.19770  -1.18340  -1.09165
 Alpha  occ. eigenvalues --   -1.07768  -1.05167  -1.03760  -0.95998  -0.94587
 Alpha  occ. eigenvalues --   -0.86563  -0.85182  -0.82825  -0.81428  -0.77875
 Alpha  occ. eigenvalues --   -0.76437  -0.72450  -0.71613  -0.70989  -0.70865
 Alpha  occ. eigenvalues --   -0.70076  -0.69527  -0.65417  -0.65163  -0.64028
 Alpha  occ. eigenvalues --   -0.63825  -0.62508  -0.61117  -0.55661  -0.54368
 Alpha  occ. eigenvalues --   -0.53507  -0.53252  -0.52081  -0.51898  -0.49214
 Alpha  occ. eigenvalues --   -0.49197  -0.47757  -0.47721  -0.45228  -0.43730
 Alpha  occ. eigenvalues --   -0.37757  -0.36776  -0.36382  -0.35263
 Alpha virt. eigenvalues --    0.04607   0.06157   0.10876   0.12322   0.16119
 Alpha virt. eigenvalues --    0.17576   0.21051   0.22199   0.26959   0.27930
 Alpha virt. eigenvalues --    0.28108   0.29141   0.30624   0.31692   0.32168

 Mulliken charges:
               1
     1  C   -0.173426
     2  C   -0.218665
     3  C   -0.148532
     4  C    0.156836
     5  C   -0.171289
     6  C   -0.220773
     7  H    0.218412
     8  H    0.217890
     9  H    0.282055
    10  H    0.272254
    11  H    0.217487
    12  N    0.488623
    13  O   -0.466329
    14  O   -0.455999
    15  C   -0.170755
    16  C   -0.218630
    17  C   -0.171300
    18  C    0.156853
    19  C   -0.172493
    20  C   -0.218985
    21  H    0.226594
    22  H    0.224751
    23  H    0.276717
    24  H    0.276512
    25  H    0.223587
    26  N    0.486141
    27  O   -0.458483
    28  O   -0.459053
 Sum of Mulliken charges =  -0.00000

 Dipole moment (field-independent basis, Debye):
    X=              7.0673    Y=              6.7807    Z=              1.2677  Tot=              9.8759
 Quadrupole moment (field-independent basis, Debye-Ang):
   XX=            -94.2372   YY=           -103.8528   ZZ=           -102.1820
   XY=            -10.1570   XZ=             -3.6969   YZ=             -4.0893

 Normal termination of Gaussian 16 at Wed May  5 16:30:09 2021.
