 Gaussian 16, Revision A.03,
 Gaussian 16:  EM64L-G16RevA.03 25-Dec-2016

 -------------
 #p 6-31g* mp2
 -------------

 ------------------------------------------------------
 Input file generated by CHIRIPA (05-May-2021 14:51:11)
 ------------------------------------------------------
 Symbolic Z-matrix:
 Charge =  0 Multiplicity = 1

                         Standard orientation:
 ---------------------------------------------------------------------
 Center     Atomic      Atomic             Coordinates (Angstroms)
 Number     Number       Type             X           Y           Z
 ---------------------------------------------------------------------
      1          6           0        2.956888    0.772745   -0.151760
      2          6           0        3.803808    2.044817   -0.101323
      3          6           0        2.959058    3.312681    0.027960
      4          1           0        2.258919    0.837858   -0.997659
      5          1           0        2.342008    0.713697    0.756992
      6          1           0        4.417928    2.100743   -1.009258
      7          1           0        4.499973    1.976585    0.744439
      8          1           0        2.357477    3.283213    0.942199
      9          1           0        2.274966    3.408076   -0.821463
     10          1           0        3.584595    4.210116    0.062231
     11          6           0        3.787129   -0.503085   -0.280928
     12          6           0        2.940209   -1.775158   -0.331366
     13          6           0        3.784959   -3.043021   -0.460648
     14          1           0        4.402008   -0.444037   -1.189681
     15          1           0        4.485097   -0.568198    0.564971
     16          1           0        2.244044   -1.706926   -1.177128
     17          1           0        2.326089   -1.831083    0.576569
     18          1           0        4.469051   -3.138417    0.388774
     19          1           0        4.386540   -3.013554   -1.374887
     20          1           0        3.159422   -3.940456   -0.494919
     21          6           0       -2.627383    0.033279    0.189807
     22          6           0       -1.787865   -0.773774    1.180696
     23          6           0       -0.300325   -0.426223    1.115678
     24          1           0       -2.252307   -0.143064   -0.827624
     25          1           0       -2.491051    1.104717    0.391870
     26          1           0       -1.926819   -1.843403    0.977711
     27          1           0       -2.165105   -0.595638    2.195868
     28          1           0       -0.142218    0.633722    1.339552
     29          1           0        0.097422   -0.621132    0.114475
     30          1           0        0.281141   -1.014719    1.832219
     31          6           0       -4.116634   -0.302939    0.242881
     32          6           0       -4.956152    0.504114   -0.748007
     33          6           0       -6.443692    0.156564   -0.682989
     34          1           0       -4.252965   -1.374376    0.040819
     35          1           0       -4.491710   -0.126595    1.260313
     36          1           0       -4.578912    0.325978   -1.763179
     37          1           0       -4.817197    1.573743   -0.545023
     38          1           0       -6.841438    0.351472    0.318214
     39          1           0       -6.601798   -0.903382   -0.906864
     40          1           0       -7.025157    0.745059   -1.399530
 ---------------------------------------------------------------------

 SCF Done:  E(RHF) =  -470.731372240     A.U. after   11 cycles
 E2 =    -0.1584350869D+01 EUMP2 =    -0.47231572310910D+03

 The electronic state is 1-A.
 Alpha  occ. eigenvalues --  -11.21593 -11.21545 -11.21519 -11.21483 -11.21389
 Alpha  occ. eigenvalues --  -11.21329 -11.21299 -11.21199 -11.21065 -11.21032
 Alpha  occ. eigenvalues --  -11.21012 -11.20972  -1.08428  -1.08331  -1.03516
 Alpha  occ. eigenvalues --   -1.03453  -0.95997  -0.95884  -0.87006  -0.86929
 Alpha  occ. eigenvalues --   -0.79678  -0.79519  -0.78319  -0.77986  -0.65044
 Alpha  occ. eigenvalues --   -0.64984  -0.60964  -0.60831  -0.59393  -0.59224
 Alpha  occ. eigenvalues --   -0.57682  -0.57429  -0.55301  -0.55163  -0.52807
 Alpha  occ. eigenvalues --   -0.52584  -0.52454  -0.52228  -0.49991  -0.49799
 Alpha  occ. eigenvalues --   -0.47994  -0.47803  -0.46680  -0.46468  -0.45975
 Alpha  occ. eigenvalues --   -0.45729  -0.45579  -0.45290  -0.43734  -0.43634
 Alpha virt. eigenvalues --    0.22040   0.23063   0.23999   0.24318   0.25271
 Alpha virt. eigenvalues --    0.26045   0.26944   0.27614   0.27850   0.29751
 Alpha virt. eigenvalues --    0.30028   0.31006   0.31845   0.32085   0.32253

 Mulliken charges:
               1
     1  C   -0.303793
     2  C   -0.299140
     3  C   -0.475582
     4  H    0.148148
     5  H    0.159956
     6  H    0.151296
     7  H    0.151366
     8  H    0.154422
     9  H    0.155083
    10  H    0.160037
    11  C   -0.297405
    12  C   -0.304123
    13  C   -0.475294
    14  H    0.148632
    15  H    0.148798
    16  H    0.149829
    17  H    0.158969
    18  H    0.154788
    19  H    0.154684
    20  H    0.159616
    21  C   -0.298442
    22  C   -0.300981
    23  C   -0.478799
    24  H    0.149324
    25  H    0.149598
    26  H    0.151557
    27  H    0.151169
    28  H    0.154357
    29  H    0.163370
    30  H    0.158682
    31  C   -0.298219
    32  C   -0.299598
    33  C   -0.475686
    34  H    0.149459
    35  H    0.149628
    36  H    0.151815
    37  H    0.151944
    38  H    0.155172
    39  H    0.155148
    40  H    0.160214
 Sum of Mulliken charges =  -0.00000

 Dipole moment (field-independent basis, Debye):
    X=             -0.0186    Y=              0.0011    Z=              0.0190  Tot=              0.0266
 Quadrupole moment (field-independent basis, Debye-Ang):
   XX=            -86.5635   YY=            -85.4384   ZZ=            -83.2914
   XY=              0.2123   XZ=              0.0465   YZ=              0.3352

 Normal termination of Gaussian 16 at Wed May  5 21:28:01 2021.
