 Gaussian 16, Revision A.03,
 Gaussian 16:  EM64L-G16RevA.03 25-Dec-2016

 -------------
 #p 6-31g* mp2
 -------------

 ------------------------------------------------------
 Input file generated by CHIRIPA (05-May-2021 14:53:13)
 ------------------------------------------------------
 Symbolic Z-matrix:
 Charge =  0 Multiplicity = 1

                         Standard orientation:
 ---------------------------------------------------------------------
 Center     Atomic      Atomic             Coordinates (Angstroms)
 Number     Number       Type             X           Y           Z
 ---------------------------------------------------------------------
      1          6           0       -3.318230    0.144318   -0.158686
      2          6           0       -3.407141   -1.297275   -0.660572
      3          6           0       -4.607282   -2.050361   -0.085840
      4          1           0       -3.259712    0.140965    0.938359
      5          1           0       -4.244504    0.674201   -0.420672
      6          1           0       -2.480407   -1.823892   -0.398934
      7          1           0       -3.465261   -1.290497   -1.756561
      8          1           0       -5.542337   -1.550368   -0.358385
      9          1           0       -4.551887   -2.086793    1.006957
     10          1           0       -4.651552   -3.078744   -0.457765
     11          6           0       -2.123590    0.910160   -0.724416
     12          6           0       -2.034680    2.351753   -0.222530
     13          6           0       -0.834539    3.104839   -0.797262
     14          1           0       -1.197317    0.380277   -0.462430
     15          1           0       -2.182108    0.913513   -1.821462
     16          1           0       -1.976560    2.344975    0.873459
     17          1           0       -2.961414    2.878369   -0.484169
     18          1           0       -0.889934    3.141271   -1.890059
     19          1           0        0.100516    2.604846   -0.524718
     20          1           0       -0.790269    4.133222   -0.425337
     21          6           0        3.862971   -0.623687   -1.472454
     22          6           0        3.916037    0.447709   -0.574782
     23          6           0        2.958750    0.575089    0.436120
     24          6           0        1.957759   -0.391432    0.520663
     25          6           0        1.878046   -1.470260   -0.358577
     26          6           0        2.845938   -1.577571   -1.361682
     27          1           0        4.610734   -0.714844   -2.254718
     28          1           0        4.704740    1.190001   -0.658422
     29          1           0        2.976148    1.394495    1.144419
     30          1           0        1.079834   -2.194481   -0.250038
     31          1           0        2.802242   -2.410683   -2.057426
     32          7           0        0.938709   -0.267203    1.586732
     33          8           0        0.066960   -1.131990    1.639969
     34          8           0        1.031021    0.692601    2.348894
 ---------------------------------------------------------------------

 SCF Done:  E(RHF) =  -669.536564123     A.U. after   15 cycles
 E2 =    -0.2093375889D+01 EUMP2 =    -0.67162994001122D+03

 The electronic state is 1-A.
 Alpha  occ. eigenvalues --  -20.61065 -20.61050 -15.86057 -11.31344 -11.27894
 Alpha  occ. eigenvalues --  -11.27887 -11.27613 -11.26888 -11.26878 -11.20870
 Alpha  occ. eigenvalues --  -11.20829 -11.20651 -11.20602 -11.20488 -11.20382
 Alpha  occ. eigenvalues --   -1.60105  -1.39662  -1.19500  -1.08914  -1.07657
 Alpha  occ. eigenvalues --   -1.04885  -1.02833  -0.95763  -0.95301  -0.86333
 Alpha  occ. eigenvalues --   -0.86282  -0.82596  -0.78898  -0.77678  -0.77472
 Alpha  occ. eigenvalues --   -0.72290  -0.71444  -0.70603  -0.65157  -0.64886
 Alpha  occ. eigenvalues --   -0.64227  -0.62233  -0.60208  -0.58682  -0.56923
 Alpha  occ. eigenvalues --   -0.55390  -0.54595  -0.53214  -0.52975  -0.52025
 Alpha  occ. eigenvalues --   -0.51750  -0.49249  -0.49056  -0.49042  -0.47232
 Alpha  occ. eigenvalues --   -0.45912  -0.45394  -0.44982  -0.44587  -0.43070
 Alpha  occ. eigenvalues --   -0.37462  -0.36473
 Alpha virt. eigenvalues --    0.04841   0.11076   0.16300   0.21114   0.23353
 Alpha virt. eigenvalues --    0.24681   0.26220   0.27263   0.27975   0.28514
 Alpha virt. eigenvalues --    0.28715   0.30885   0.31199   0.32240   0.32587

 Mulliken charges:
               1
     1  C   -0.296918
     2  C   -0.301340
     3  C   -0.475736
     4  H    0.161320
     5  H    0.144904
     6  H    0.158108
     7  H    0.145076
     8  H    0.152375
     9  H    0.159794
    10  H    0.156095
    11  C   -0.298852
    12  C   -0.302262
    13  C   -0.474273
    14  H    0.148246
    15  H    0.143220
    16  H    0.163419
    17  H    0.149028
    18  H    0.150918
    19  H    0.150184
    20  H    0.159205
    21  C   -0.170259
    22  C   -0.218270
    23  C   -0.171363
    24  C    0.156994
    25  C   -0.171378
    26  C   -0.218198
    27  H    0.226320
    28  H    0.224298
    29  H    0.276368
    30  H    0.276280
    31  H    0.224289
    32  N    0.489243
    33  O   -0.459177
    34  O   -0.457660
 Sum of Mulliken charges =  -0.00000

 Dipole moment (field-independent basis, Debye):
    X=              3.7606    Y=             -0.5022    Z=             -3.5284  Tot=              5.1811
 Quadrupole moment (field-independent basis, Debye-Ang):
   XX=            -80.7331   YY=            -91.8247   ZZ=            -98.3742
   XY=             -0.9862   XZ=             -4.7935   YZ=              3.0578

 Normal termination of Gaussian 16 at Thu May  6 07:21:16 2021.
