 Gaussian 16, Revision A.03,
 Gaussian 16:  EM64L-G16RevA.03 25-Dec-2016

 -------------
 #p 6-31g* mp2
 -------------

 ------------------------------------------------------
 Input file generated by CHIRIPA (05-May-2021 14:53:17)
 ------------------------------------------------------
 Symbolic Z-matrix:
 Charge =  0 Multiplicity = 1

                         Standard orientation:
 ---------------------------------------------------------------------
 Center     Atomic      Atomic             Coordinates (Angstroms)
 Number     Number       Type             X           Y           Z
 ---------------------------------------------------------------------
      1          6           0       -3.920285    0.097316    0.028376
      2          6           0       -3.841242   -1.317248    0.603482
      3          6           0       -5.156075   -2.085485    0.466302
      4          1           0       -4.723388    0.648503    0.536472
      5          1           0       -4.203247    0.039316   -1.031796
      6          1           0       -3.557163   -1.256665    1.661899
      7          1           0       -3.038107   -1.865071    0.094090
      8          1           0       -5.441588   -2.175504   -0.586779
      9          1           0       -5.963594   -1.563641    0.989937
     10          1           0       -5.077171   -3.094101    0.883830
     11          6           0       -2.613542    0.877910    0.158082
     12          6           0       -2.692585    2.292473   -0.417025
     13          6           0       -1.377752    3.060711   -0.279845
     14          1           0       -2.330580    0.935910    1.218253
     15          1           0       -1.810439    0.326722   -0.350015
     16          1           0       -3.495720    2.840296    0.092367
     17          1           0       -2.976664    2.231890   -1.475441
     18          1           0       -0.570233    2.538867   -0.803480
     19          1           0       -1.092239    3.150730    0.773236
     20          1           0       -1.456656    4.069326   -0.697372
     21          6           0        3.146343    2.000839    0.510347
     22          6           0        3.710902    0.942371    1.229681
     23          6           0        3.388966   -0.381281    0.915280
     24          6           0        2.494844   -0.611209   -0.129215
     25          6           0        1.915759    0.421934   -0.864446
     26          6           0        2.252150    1.737705   -0.532583
     27          1           0        3.402045    3.026023    0.761364
     28          1           0        4.405640    1.143743    2.040133
     29          1           0        3.811379   -1.219623    1.455805
     30          1           0        1.226342    0.189780   -1.667083
     31          1           0        1.812172    2.557743   -1.092941
     32          7           0        2.146372   -2.008330   -0.471301
     33          8           0        1.356006   -2.184373   -1.395944
     34          8           0        2.670207   -2.900896    0.191694
 ---------------------------------------------------------------------

 SCF Done:  E(RHF) =  -669.535054417     A.U. after   15 cycles
 E2 =    -0.2092149975D+01 EUMP2 =    -0.67162720439222D+03

 The electronic state is 1-A.
 Alpha  occ. eigenvalues --  -20.60792 -20.60785 -15.85843 -11.31201 -11.27763
 Alpha  occ. eigenvalues --  -11.27753 -11.27482 -11.26779 -11.26744 -11.21907
 Alpha  occ. eigenvalues --  -11.21651 -11.21475 -11.21359 -11.21292 -11.20818
 Alpha  occ. eigenvalues --   -1.59865  -1.39419  -1.19367  -1.08761  -1.08475
 Alpha  occ. eigenvalues --   -1.04776  -1.03607  -0.96088  -0.95599  -0.87124
 Alpha  occ. eigenvalues --   -0.86160  -0.82441  -0.79693  -0.78242  -0.77482
 Alpha  occ. eigenvalues --   -0.72062  -0.71186  -0.70471  -0.65130  -0.65011
 Alpha  occ. eigenvalues --   -0.64784  -0.62168  -0.60982  -0.59475  -0.57668
 Alpha  occ. eigenvalues --   -0.55426  -0.55239  -0.53155  -0.52957  -0.52753
 Alpha  occ. eigenvalues --   -0.52393  -0.50029  -0.48820  -0.48817  -0.47988
 Alpha  occ. eigenvalues --   -0.46707  -0.45794  -0.45683  -0.44824  -0.43847
 Alpha  occ. eigenvalues --   -0.37335  -0.36324
 Alpha virt. eigenvalues --    0.05017   0.11226   0.16423   0.20563   0.22861
 Alpha virt. eigenvalues --    0.24206   0.25766   0.26718   0.27302   0.28371
 Alpha virt. eigenvalues --    0.29040   0.30400   0.31442   0.31635   0.32133

 Mulliken charges:
               1
     1  C   -0.298334
     2  C   -0.301707
     3  C   -0.475848
     4  H    0.148514
     5  H    0.150163
     6  H    0.151014
     7  H    0.159761
     8  H    0.155613
     9  H    0.153244
    10  H    0.162068
    11  C   -0.299416
    12  C   -0.299703
    13  C   -0.477540
    14  H    0.149672
    15  H    0.151630
    16  H    0.153366
    17  H    0.152633
    18  H    0.147287
    19  H    0.156745
    20  H    0.158757
    21  C   -0.172408
    22  C   -0.218395
    23  C   -0.171183
    24  C    0.158407
    25  C   -0.171079
    26  C   -0.215666
    27  H    0.225935
    28  H    0.223457
    29  H    0.275550
    30  H    0.274771
    31  H    0.225776
    32  N    0.488290
    33  O   -0.461247
    34  O   -0.460127
 Sum of Mulliken charges =  -0.00000

 Dipole moment (field-independent basis, Debye):
    X=              1.2113    Y=              4.8505    Z=              1.2479  Tot=              5.1528
 Quadrupole moment (field-independent basis, Debye-Ang):
   XX=            -87.8561   YY=           -101.2642   ZZ=            -92.0458
   XY=             10.0690   XZ=              5.2428   YZ=             -2.3327

 Normal termination of Gaussian 16 at Thu May  6 07:34:39 2021.
