 Gaussian 16, Revision A.03,
 Gaussian 16:  EM64L-G16RevA.03 25-Dec-2016

 -------------
 #p 6-31g* mp2
 -------------

 ------------------------------------------------------
 Input file generated by CHIRIPA (05-May-2021 14:57:22)
 ------------------------------------------------------
 Symbolic Z-matrix:
 Charge =  0 Multiplicity = 1

                         Standard orientation:
 ---------------------------------------------------------------------
 Center     Atomic      Atomic             Coordinates (Angstroms)
 Number     Number       Type             X           Y           Z
 ---------------------------------------------------------------------
      1          6           0        2.145476   -1.624172    1.670984
      2          6           0        1.658979   -1.265326    0.409607
      3          6           0        2.402234   -0.425958   -0.425607
      4          6           0        3.633493    0.038362    0.034501
      5          6           0        4.145211   -0.301246    1.285941
      6          6           0        3.384854   -1.141838    2.104361
      7          1           0        1.561455   -2.276689    2.313275
      8          1           0        0.696791   -1.638411    0.070421
      9          1           0        2.049438   -0.132340   -1.406800
     10          1           0        5.107842    0.086492    1.596455
     11          1           0        3.765172   -1.418866    3.083472
     12          7           0        4.429396    0.927611   -0.840812
     13          8           0        5.511203    1.323314   -0.412152
     14          8           0        3.956348    1.212063   -1.938970
     15          6           0       -4.262958    2.152722    1.089017
     16          6           0       -5.038868    0.989037    1.107033
     17          6           0       -4.627187   -0.149714    0.408238
     18          6           0       -3.428782   -0.089461   -0.301328
     19          6           0       -2.633748    1.055014   -0.338584
     20          6           0       -3.064987    2.181945    0.367538
     21          1           0       -4.590358    3.032740    1.634703
     22          1           0       -5.969674    0.963462    1.666487
     23          1           0       -5.208478   -1.063777    0.405150
     24          1           0       -1.710587    1.050163   -0.905301
     25          1           0       -2.460374    3.084297    0.351761
     26          7           0       -2.982602   -1.288748   -1.044989
     27          8           0       -1.922826   -1.210044   -1.662498
     28          8           0       -3.701111   -2.284745   -0.996281
 ---------------------------------------------------------------------

 SCF Done:  E(RHF) =  -868.339828975     A.U. after   16 cycles
 E2 =    -0.2598667834D+01 EUMP2 =    -0.87093849680884D+03

 The electronic state is 1-A.
 Alpha  occ. eigenvalues --  -20.61665 -20.61610 -20.60524 -20.60518 -15.86658
 Alpha  occ. eigenvalues --  -15.85570 -11.31790 -11.30839 -11.28327 -11.28321
 Alpha  occ. eigenvalues --  -11.28007 -11.27415 -11.27307 -11.27283 -11.27259
 Alpha  occ. eigenvalues --  -11.27085 -11.26431 -11.26214  -1.60699  -1.59602
 Alpha  occ. eigenvalues --   -1.40260  -1.39157  -1.19937  -1.18987  -1.09372
 Alpha  occ. eigenvalues --   -1.08402  -1.05298  -1.04350  -0.96245  -0.95257
 Alpha  occ. eigenvalues --   -0.86708  -0.85755  -0.83083  -0.82071  -0.78165
 Alpha  occ. eigenvalues --   -0.77132  -0.72878  -0.72010  -0.71788  -0.71034
 Alpha  occ. eigenvalues --   -0.70927  -0.70095  -0.65588  -0.65288  -0.64625
 Alpha  occ. eigenvalues --   -0.64314  -0.62647  -0.61673  -0.55798  -0.54867
 Alpha  occ. eigenvalues --   -0.53647  -0.53380  -0.52722  -0.52408  -0.49652
 Alpha  occ. eigenvalues --   -0.49610  -0.48551  -0.48538  -0.45699  -0.44584
 Alpha  occ. eigenvalues --   -0.37903  -0.36983  -0.36891  -0.35965
 Alpha virt. eigenvalues --    0.04313   0.05356   0.10755   0.11684   0.15830
 Alpha virt. eigenvalues --    0.16872   0.20803   0.21946   0.26507   0.27261
 Alpha virt. eigenvalues --    0.28344   0.28792   0.30687   0.31455   0.32381

 Mulliken charges:
               1
     1  C   -0.171983
     2  C   -0.226502
     3  C   -0.175745
     4  C    0.158295
     5  C   -0.172683
     6  C   -0.218668
     7  H    0.225290
     8  H    0.239975
     9  H    0.278455
    10  H    0.273754
    11  H    0.221489
    12  N    0.487860
    13  O   -0.462045
    14  O   -0.460862
    15  C   -0.170153
    16  C   -0.218591
    17  C   -0.171151
    18  C    0.156863
    19  C   -0.171434
    20  C   -0.218378
    21  H    0.228104
    22  H    0.225187
    23  H    0.276101
    24  H    0.274571
    25  H    0.227379
    26  N    0.487812
    27  O   -0.467027
    28  O   -0.455911
 Sum of Mulliken charges =  -0.00000

 Dipole moment (field-independent basis, Debye):
    X=             -4.7309    Y=              1.1189    Z=              5.7080  Tot=              7.4976
 Quadrupole moment (field-independent basis, Debye-Ang):
   XX=           -109.0566   YY=           -105.4700   ZZ=           -104.4580
   XY=            -23.8503   XZ=              3.6327   YZ=             -2.0238

 Normal termination of Gaussian 16 at Fri May  7 06:25:57 2021.
