 Gaussian 16, Revision A.03,
 Gaussian 16:  EM64L-G16RevA.03 25-Dec-2016

 -------------
 #p 6-31g* mp2
 -------------

 ------------------------------------------------------
 Input file generated by CHIRIPA (05-May-2021 14:53:13)
 ------------------------------------------------------
 Symbolic Z-matrix:
 Charge =  0 Multiplicity = 1

                         Standard orientation:
 ---------------------------------------------------------------------
 Center     Atomic      Atomic             Coordinates (Angstroms)
 Number     Number       Type             X           Y           Z
 ---------------------------------------------------------------------
      1          6           0       -3.012950   -0.493227    0.166229
      2          6           0       -3.595497   -1.883570   -0.089839
      3          6           0       -2.648700   -3.007926    0.331103
      4          1           0       -2.061990   -0.395687   -0.375163
      5          1           0       -2.776046   -0.393641    1.234570
      6          1           0       -3.832517   -1.980007   -1.157142
      7          1           0       -4.545276   -1.977743    0.452071
      8          1           0       -2.420968   -2.939928    1.399801
      9          1           0       -1.704159   -2.942205   -0.218556
     10          1           0       -3.085042   -3.993141    0.139223
     11          6           0       -3.947774    0.641263   -0.249424
     12          6           0       -3.365228    2.031606    0.006643
     13          6           0       -4.312025    3.155962   -0.414298
     14          1           0       -4.184678    0.541677   -1.317766
     15          1           0       -4.898735    0.543723    0.291967
     16          1           0       -2.415448    2.125779   -0.535267
     17          1           0       -3.128208    2.128043    1.073947
     18          1           0       -5.256565    3.090241    0.135360
     19          1           0       -4.539756    3.087964   -1.482996
     20          1           0       -3.875682    4.141177   -0.222418
     21          6           0        4.133974    2.029596    0.113318
     22          6           0        4.643988    0.859982   -0.459752
     23          6           0        3.868934   -0.302479   -0.509990
     24          6           0        2.582242   -0.259631    0.024685
     25          6           0        2.045899    0.890187    0.602218
     26          6           0        2.838840    2.040946    0.641544
     27          1           0        4.743002    2.928078    0.148105
     28          1           0        5.649465    0.848250   -0.870755
     29          1           0        4.238884   -1.221629   -0.947845
     30          1           0        1.040003    0.871144    1.003750
     31          1           0        2.440149    2.947850    1.087205
     32          7           0        1.752258   -1.484082   -0.022723
     33          8           0        0.621709   -1.420381    0.455230
     34          8           0        2.247982   -2.484322   -0.536937
 ---------------------------------------------------------------------

 SCF Done:  E(RHF) =  -669.536064558     A.U. after   15 cycles
 E2 =    -0.2091901454D+01 EUMP2 =    -0.67162796601145D+03

 The electronic state is 1-A.
 Alpha  occ. eigenvalues --  -20.60996 -20.60987 -15.86008 -11.31308 -11.27870
 Alpha  occ. eigenvalues --  -11.27857 -11.27603 -11.26871 -11.26859 -11.21321
 Alpha  occ. eigenvalues --  -11.20881 -11.20753 -11.20438 -11.20302 -11.19343
 Alpha  occ. eigenvalues --   -1.60052  -1.39607  -1.19475  -1.08886  -1.07650
 Alpha  occ. eigenvalues --   -1.04865  -1.02688  -0.95731  -0.95100  -0.86268
 Alpha  occ. eigenvalues --   -0.86112  -0.82567  -0.78848  -0.77662  -0.77302
 Alpha  occ. eigenvalues --   -0.72225  -0.71361  -0.70581  -0.65131  -0.64868
 Alpha  occ. eigenvalues --   -0.64294  -0.62211  -0.60094  -0.58587  -0.56694
 Alpha  occ. eigenvalues --   -0.55374  -0.54379  -0.53201  -0.52955  -0.51845
 Alpha  occ. eigenvalues --   -0.51514  -0.49213  -0.49001  -0.48806  -0.47074
 Alpha  occ. eigenvalues --   -0.45900  -0.45243  -0.44870  -0.44511  -0.42942
 Alpha  occ. eigenvalues --   -0.37454  -0.36466
 Alpha virt. eigenvalues --    0.04873   0.11185   0.16354   0.21185   0.23437
 Alpha virt. eigenvalues --    0.25257   0.26487   0.27450   0.27613   0.28959
 Alpha virt. eigenvalues --    0.29037   0.31096   0.32218   0.32327   0.32862

 Mulliken charges:
               1
     1  C   -0.298678
     2  C   -0.300202
     3  C   -0.477614
     4  H    0.159856
     5  H    0.147063
     6  H    0.147260
     7  H    0.145435
     8  H    0.153283
     9  H    0.179301
    10  H    0.150783
    11  C   -0.297697
    12  C   -0.298425
    13  C   -0.474713
    14  H    0.147950
    15  H    0.147630
    16  H    0.147508
    17  H    0.148524
    18  H    0.155551
    19  H    0.155340
    20  H    0.156166
    21  C   -0.170510
    22  C   -0.218646
    23  C   -0.170662
    24  C    0.157416
    25  C   -0.171635
    26  C   -0.218663
    27  H    0.226080
    28  H    0.223839
    29  H    0.275806
    30  H    0.277306
    31  H    0.224232
    32  N    0.489949
    33  O   -0.459971
    34  O   -0.458862
 Sum of Mulliken charges =  -0.00000

 Dipole moment (field-independent basis, Debye):
    X=              3.2726    Y=              4.2120    Z=              0.1547  Tot=              5.3362
 Quadrupole moment (field-independent basis, Debye-Ang):
   XX=            -78.4325   YY=            -97.5391   ZZ=            -93.6946
   XY=              8.9707   XZ=             -1.9907   YZ=              1.6950

 Normal termination of Gaussian 16 at Thu May  6 02:35:21 2021.
