 Gaussian 16, Revision A.03,
 Gaussian 16:  EM64L-G16RevA.03 25-Dec-2016

 -------------
 #p 6-31g* mp2
 -------------

 ------------------------------------------------------
 Input file generated by CHIRIPA (05-May-2021 14:57:25)
 ------------------------------------------------------
 Symbolic Z-matrix:
 Charge =  0 Multiplicity = 1

                         Standard orientation:
 ---------------------------------------------------------------------
 Center     Atomic      Atomic             Coordinates (Angstroms)
 Number     Number       Type             X           Y           Z
 ---------------------------------------------------------------------
      1          6           0       -4.927036   -1.374601    0.528536
      2          6           0       -4.674952   -0.913512   -0.767756
      3          6           0       -3.688728    0.049945   -0.999402
      4          6           0       -2.970282    0.532749    0.093312
      5          6           0       -3.198036    0.093242    1.396482
      6          6           0       -4.189074   -0.870641    1.604620
      7          1           0       -5.695029   -2.123202    0.699353
      8          1           0       -5.246508   -1.303108   -1.605361
      9          1           0       -3.472922    0.424452   -1.992675
     10          1           0       -2.611904    0.500424    2.211387
     11          1           0       -4.382682   -1.226889    2.612414
     12          7           0       -1.923662    1.552943   -0.139478
     13          8           0       -1.304535    1.962410    0.840142
     14          8           0       -1.742266    1.923787   -1.297151
     15          6           0        5.344583    0.566831    0.674792
     16          6           0        5.148260   -0.816957    0.619022
     17          6           0        3.932381   -1.344205    0.173833
     18          6           0        2.929915   -0.454657   -0.209645
     19          6           0        3.095077    0.928839   -0.165448
     20          6           0        4.319172    1.433784    0.283070
     21          1           0        6.292299    0.967747    1.021919
     22          1           0        5.942835   -1.492628    0.922609
     23          1           0        3.753537   -2.411258    0.120625
     24          1           0        2.284317    1.577255   -0.474710
     25          1           0        4.468823    2.508894    0.325331
     26          7           0        1.638369   -1.001025   -0.682710
     27          8           0        0.770972   -0.196118   -1.014955
     28          8           0        1.517905   -2.223829   -0.712294
 ---------------------------------------------------------------------

 SCF Done:  E(RHF) =  -868.339022026     A.U. after   16 cycles
 E2 =    -0.2599900567D+01 EUMP2 =    -0.87093892259307D+03

 The electronic state is 1-A.
 Alpha  occ. eigenvalues --  -20.60231 -20.60195 -20.59760 -20.59688 -15.85255
 Alpha  occ. eigenvalues --  -15.84779 -11.30542 -11.30193 -11.27193 -11.27002
 Alpha  occ. eigenvalues --  -11.26919 -11.26820 -11.26758 -11.26594 -11.26196
 Alpha  occ. eigenvalues --  -11.26086 -11.25877 -11.25835  -1.59296  -1.58756
 Alpha  occ. eigenvalues --   -1.38843  -1.38328  -1.18733  -1.18378  -1.08158
 Alpha  occ. eigenvalues --   -1.07772  -1.04119  -1.03818  -0.94996  -0.94607
 Alpha  occ. eigenvalues --   -0.85524  -0.85217  -0.81826  -0.81462  -0.76862
 Alpha  occ. eigenvalues --   -0.76481  -0.71609  -0.71046  -0.70638  -0.69926
 Alpha  occ. eigenvalues --   -0.69761  -0.69538  -0.64385  -0.64132  -0.64062
 Alpha  occ. eigenvalues --   -0.63857  -0.61445  -0.61182  -0.54662  -0.54355
 Alpha  occ. eigenvalues --   -0.52470  -0.52208  -0.52109  -0.51939  -0.48270
 Alpha  occ. eigenvalues --   -0.48235  -0.47797  -0.47760  -0.44295  -0.43700
 Alpha  occ. eigenvalues --   -0.36744  -0.36354  -0.35720  -0.35413
 Alpha virt. eigenvalues --    0.05628   0.06130   0.11932   0.12243   0.17120
 Alpha virt. eigenvalues --    0.17573   0.22045   0.22245   0.27978   0.28124
 Alpha virt. eigenvalues --    0.28967   0.29171   0.31551   0.31760   0.33381

 Mulliken charges:
               1
     1  C   -0.170877
     2  C   -0.218307
     3  C   -0.165797
     4  C    0.166025
     5  C   -0.170474
     6  C   -0.218306
     7  H    0.222188
     8  H    0.220858
     9  H    0.275636
    10  H    0.271609
    11  H    0.219506
    12  N    0.497122
    13  O   -0.471335
    14  O   -0.457813
    15  C   -0.170832
    16  C   -0.219527
    17  C   -0.171783
    18  C    0.155799
    19  C   -0.169971
    20  C   -0.219850
    21  H    0.223519
    22  H    0.220531
    23  H    0.272632
    24  H    0.289873
    25  H    0.224509
    26  N    0.489770
    27  O   -0.458180
    28  O   -0.466526
 Sum of Mulliken charges =  -0.00000

 Dipole moment (field-independent basis, Debye):
    X=              0.8884    Y=             -1.5007    Z=              2.2971  Tot=              2.8841
 Quadrupole moment (field-independent basis, Debye-Ang):
   XX=            -58.1695   YY=           -107.3161   ZZ=           -101.4677
   XY=             11.2134   XZ=              2.9616   YZ=             -1.8891

 Normal termination of Gaussian 16 at Thu May  6 22:50:38 2021.
