 Gaussian 16, Revision A.03,
 Gaussian 16:  EM64L-G16RevA.03 25-Dec-2016

 -------------
 #p 6-31g* mp2
 -------------

 ------------------------------------------------------
 Input file generated by CHIRIPA (05-May-2021 14:53:15)
 ------------------------------------------------------
 Symbolic Z-matrix:
 Charge =  0 Multiplicity = 1

                         Standard orientation:
 ---------------------------------------------------------------------
 Center     Atomic      Atomic             Coordinates (Angstroms)
 Number     Number       Type             X           Y           Z
 ---------------------------------------------------------------------
      1          6           0       -2.895404    1.113523    0.457922
      2          6           0       -2.315845    2.162969   -0.491161
      3          6           0       -1.478435    3.217190    0.233517
      4          1           0       -3.511434    1.615046    1.216820
      5          1           0       -2.073195    0.622927    0.997072
      6          1           0       -3.138816    2.650477   -1.029370
      7          1           0       -1.701278    1.658871   -1.248002
      8          1           0       -0.638311    2.749011    0.756586
      9          1           0       -2.084018    3.746251    0.976460
     10          1           0       -1.073874    3.957428   -0.463792
     11          6           0       -3.735028    0.052774   -0.251706
     12          6           0       -4.314587   -0.996673    0.697377
     13          6           0       -5.151997   -2.050894   -0.027300
     14          1           0       -4.557237    0.543369   -0.790856
     15          1           0       -3.118998   -0.448750   -1.010603
     16          1           0       -4.929154   -0.492574    1.454218
     17          1           0       -3.491616   -1.484181    1.235586
     18          1           0       -4.546414   -2.579955   -0.770243
     19          1           0       -5.992121   -1.582715   -0.550370
     20          1           0       -5.556558   -2.791132    0.670008
     21          6           0        4.838705    0.628738    0.284891
     22          6           0        4.699100   -0.756377    0.420855
     23          6           0        3.457931   -1.367929    0.220720
     24          6           0        2.372618   -0.560413   -0.115883
     25          6           0        2.479795    0.822124   -0.258689
     26          6           0        3.730561    1.412188   -0.053850
     27          1           0        5.806603    1.095460    0.442187
     28          1           0        5.557965   -1.367306    0.683842
     29          1           0        3.321694   -2.438022    0.319500
     30          1           0        1.605355    1.404867   -0.521719
     31          1           0        3.836028    2.488119   -0.160120
     32          7           0        1.053568   -1.196460   -0.330246
     33          8           0        0.112838   -0.462867   -0.626059
     34          8           0        0.985403   -2.416545   -0.198394
 ---------------------------------------------------------------------

 SCF Done:  E(RHF) =  -669.536473901     A.U. after   15 cycles
 E2 =    -0.2092498702D+01 EUMP2 =    -0.67162897260259D+03

 The electronic state is 1-A.
 Alpha  occ. eigenvalues --  -20.61096 -20.61089 -15.86113 -11.31361 -11.27916
 Alpha  occ. eigenvalues --  -11.27902 -11.27641 -11.26910 -11.26895 -11.20612
 Alpha  occ. eigenvalues --  -11.20521 -11.20397 -11.20088 -11.20011 -11.19979
 Alpha  occ. eigenvalues --   -1.60149  -1.39709  -1.19523  -1.08943  -1.07207
 Alpha  occ. eigenvalues --   -1.04907  -1.02507  -0.95797  -0.94983  -0.86314
 Alpha  occ. eigenvalues --   -0.86012  -0.82636  -0.78562  -0.77700  -0.77008
 Alpha  occ. eigenvalues --   -0.72371  -0.71456  -0.70632  -0.65197  -0.64910
 Alpha  occ. eigenvalues --   -0.63739  -0.62259  -0.59875  -0.58384  -0.56600
 Alpha  occ. eigenvalues --   -0.55416  -0.54278  -0.53242  -0.52987  -0.51751
 Alpha  occ. eigenvalues --   -0.51437  -0.49156  -0.49085  -0.48856  -0.46897
 Alpha  occ. eigenvalues --   -0.45592  -0.45163  -0.44551  -0.44317  -0.42699
 Alpha  occ. eigenvalues --   -0.37499  -0.36504
 Alpha virt. eigenvalues --    0.04793   0.11128   0.16297   0.20558   0.23448
 Alpha virt. eigenvalues --    0.24782   0.27113   0.27553   0.28689   0.28729
 Alpha virt. eigenvalues --    0.29229   0.30886   0.31594   0.32361   0.32879

 Mulliken charges:
               1
     1  C   -0.295136
     2  C   -0.302042
     3  C   -0.477778
     4  H    0.140502
     5  H    0.159134
     6  H    0.146178
     7  H    0.166827
     8  H    0.149589
     9  H    0.154246
    10  H    0.152586
    11  C   -0.300774
    12  C   -0.299395
    13  C   -0.475633
    14  H    0.141671
    15  H    0.165678
    16  H    0.145763
    17  H    0.156835
    18  H    0.158910
    19  H    0.151083
    20  H    0.156347
    21  C   -0.170252
    22  C   -0.218668
    23  C   -0.170402
    24  C    0.156912
    25  C   -0.173954
    26  C   -0.219285
    27  H    0.226331
    28  H    0.224047
    29  H    0.275845
    30  H    0.280947
    31  H    0.224761
    32  N    0.494665
    33  O   -0.467357
    34  O   -0.458182
 Sum of Mulliken charges =  -0.00000

 Dipole moment (field-independent basis, Debye):
    X=              4.9665    Y=              1.9949    Z=              0.6650  Tot=              5.3933
 Quadrupole moment (field-independent basis, Debye-Ang):
   XX=            -73.1898   YY=            -94.5293   ZZ=            -95.8257
   XY=              0.1048   XZ=              1.7189   YZ=             -1.9729

 Normal termination of Gaussian 16 at Thu May  6 02:40:15 2021.
