 Gaussian 16, Revision A.03,
 Gaussian 16:  EM64L-G16RevA.03 25-Dec-2016

 -------------
 #p 6-31g* mp2
 -------------

 ------------------------------------------------------
 Input file generated by CHIRIPA (05-May-2021 14:55:21)
 ------------------------------------------------------
 Symbolic Z-matrix:
 Charge =  0 Multiplicity = 1

                         Standard orientation:
 ---------------------------------------------------------------------
 Center     Atomic      Atomic             Coordinates (Angstroms)
 Number     Number       Type             X           Y           Z
 ---------------------------------------------------------------------
      1          6           0       -2.215381    2.746076   -0.157515
      2          6           0       -2.948698    2.080621   -1.145410
      3          6           0       -3.286888    0.732818   -0.991780
      4          6           0       -2.873628    0.078243    0.167546
      5          6           0       -2.142069    0.713715    1.169687
      6          6           0       -1.815112    2.061706    0.994849
      7          1           0       -1.957030    3.793155   -0.285096
      8          1           0       -3.260889    2.609589   -2.041387
      9          1           0       -3.853771    0.193348   -1.740801
     10          1           0       -1.844956    0.159827    2.051929
     11          1           0       -1.245522    2.575960    1.763715
     12          7           0       -3.225709   -1.348715    0.341414
     13          8           0       -2.849727   -1.902951    1.371995
     14          8           0       -3.870984   -1.885909   -0.556182
     15          6           0        4.084352    0.075527    0.176359
     16          6           0        5.537680   -0.085214   -0.270837
     17          6           0        6.486621    0.875317    0.446580
     18          1           0        3.764640    1.111190   -0.002891
     19          1           0        4.021646   -0.087639    1.261181
     20          1           0        5.597408    0.076843   -1.354712
     21          1           0        5.853909   -1.120666   -0.090679
     22          1           0        6.456612    0.710149    1.528440
     23          1           0        6.198654    1.914460    0.257225
     24          1           0        7.520225    0.743307    0.111775
     25          6           0        3.123587   -0.877889   -0.531919
     26          6           0        1.670259   -0.717148   -0.084724
     27          6           0        0.721319   -1.677680   -0.802141
     28          1           0        3.186294   -0.714724   -1.616741
     29          1           0        3.443298   -1.913553   -0.352670
     30          1           0        1.354029    0.318302   -0.264882
     31          1           0        1.610531   -0.879206    0.999151
     32          1           0        1.009286   -2.716823   -0.612785
     33          1           0        0.751326   -1.512511   -1.884001
     34          1           0       -0.312286   -1.545670   -0.467337
 ---------------------------------------------------------------------

 SCF Done:  E(RHF) =  -669.535556460     A.U. after   15 cycles
 E2 =    -0.2092359884D+01 EUMP2 =    -0.67162791634409D+03

 The electronic state is 1-A.
 Alpha  occ. eigenvalues --  -20.60828 -20.60822 -15.85867 -11.31221 -11.27801
 Alpha  occ. eigenvalues --  -11.27791 -11.27542 -11.26815 -11.26803 -11.21686
 Alpha  occ. eigenvalues --  -11.21555 -11.21480 -11.21363 -11.21189 -11.20827
 Alpha  occ. eigenvalues --   -1.59901  -1.39452  -1.19405  -1.08805  -1.08457
 Alpha  occ. eigenvalues --   -1.04801  -1.03521  -0.95961  -0.95636  -0.86976
 Alpha  occ. eigenvalues --   -0.86201  -0.82464  -0.79592  -0.78279  -0.77513
 Alpha  occ. eigenvalues --   -0.72088  -0.71249  -0.70509  -0.65088  -0.65056
 Alpha  occ. eigenvalues --   -0.64803  -0.62148  -0.60914  -0.59349  -0.57595
 Alpha  occ. eigenvalues --   -0.55306  -0.55243  -0.53190  -0.52892  -0.52592
 Alpha  occ. eigenvalues --   -0.52358  -0.49896  -0.48849  -0.48846  -0.47913
 Alpha  occ. eigenvalues --   -0.46630  -0.45816  -0.45745  -0.44851  -0.43781
 Alpha  occ. eigenvalues --   -0.37364  -0.36389
 Alpha virt. eigenvalues --    0.05007   0.11216   0.16494   0.21343   0.22807
 Alpha virt. eigenvalues --    0.24160   0.26556   0.27068   0.27572   0.27774
 Alpha virt. eigenvalues --    0.28357   0.30562   0.31394   0.31653   0.31818

 Mulliken charges:
               1
     1  C   -0.171088
     2  C   -0.218461
     3  C   -0.170980
     4  C    0.155144
     5  C   -0.170662
     6  C   -0.217936
     7  H    0.225746
     8  H    0.223576
     9  H    0.275947
    10  H    0.276008
    11  H    0.224037
    12  N    0.490996
    13  O   -0.459702
    14  O   -0.459058
    15  C   -0.297758
    16  C   -0.299607
    17  C   -0.475596
    18  H    0.146514
    19  H    0.149069
    20  H    0.151856
    21  H    0.153232
    22  H    0.155152
    23  H    0.153685
    24  H    0.160722
    25  C   -0.298377
    26  C   -0.300565
    27  C   -0.474277
    28  H    0.149118
    29  H    0.151633
    30  H    0.148462
    31  H    0.150736
    32  H    0.159702
    33  H    0.153233
    34  H    0.159502
 Sum of Mulliken charges =  -0.00000

 Dipole moment (field-independent basis, Debye):
    X=              1.1818    Y=              4.9878    Z=             -0.6177  Tot=              5.1630
 Quadrupole moment (field-independent basis, Debye-Ang):
   XX=           -102.1452   YY=            -94.3325   ZZ=            -90.8810
   XY=            -15.2681   XZ=              4.1754   YZ=             -0.0407

 Normal termination of Gaussian 16 at Thu May  6 20:44:43 2021.
