 Gaussian 16, Revision A.03,
 Gaussian 16:  EM64L-G16RevA.03 25-Dec-2016

 -------------
 #p 6-31g* mp2
 -------------

 ------------------------------------------------------
 Input file generated by CHIRIPA (05-May-2021 14:51:08)
 ------------------------------------------------------
 Symbolic Z-matrix:
 Charge =  0 Multiplicity = 1

                         Standard orientation:
 ---------------------------------------------------------------------
 Center     Atomic      Atomic             Coordinates (Angstroms)
 Number     Number       Type             X           Y           Z
 ---------------------------------------------------------------------
      1          6           0        2.722030   -0.341481   -0.480465
      2          6           0        3.169151   -1.798504   -0.603560
      3          6           0        2.064864   -2.712867   -1.134867
      4          1           0        1.848324   -0.287540    0.183366
      5          1           0        2.389567    0.017132   -1.464467
      6          1           0        3.501974   -2.153838    0.380097
      7          1           0        4.042012   -1.848960   -1.267024
      8          1           0        1.737911   -2.385610   -2.127140
      9          1           0        1.194804   -2.692220   -0.470660
     10          1           0        2.406039   -3.749713   -1.214925
     11          6           0        3.815069    0.584938    0.049385
     12          6           0        3.367949    2.041961    0.172480
     13          6           0        4.472236    2.956323    0.703787
     14          1           0        4.147533    0.226325    1.033387
     15          1           0        4.688776    0.530997   -0.614446
     16          1           0        2.495088    2.092416    0.835944
     17          1           0        3.035126    2.397295   -0.811177
     18          1           0        5.342295    2.935677    0.039580
     19          1           0        4.799189    2.629066    1.696060
     20          1           0        4.131061    3.993169    0.783845
     21          6           0       -3.141550   -0.781571    0.578735
     22          6           0       -1.670481   -1.198622    0.581887
     23          6           0       -1.432389   -2.520635    1.312221
     24          1           0       -3.494612   -0.698009    1.615707
     25          1           0       -3.739213   -1.574409    0.107988
     26          1           0       -1.075597   -0.404623    1.051243
     27          1           0       -1.320827   -1.281015   -0.455209
     28          1           0       -2.000997   -3.328888    0.841039
     29          1           0       -1.754373   -2.447517    2.356052
     30          1           0       -0.374172   -2.799811    1.302370
     31          6           0       -3.395549    0.538115   -0.147655
     32          6           0       -4.866619    0.955165   -0.150807
     33          6           0       -5.104711    2.277179   -0.881141
     34          1           0       -2.797888    1.330952    0.323092
     35          1           0       -3.042488    0.454552   -1.184626
     36          1           0       -5.216272    1.037558    0.886290
     37          1           0       -5.461503    0.161167   -0.620164
     38          1           0       -4.782728    2.204060   -1.924971
     39          1           0       -4.536103    3.085431   -0.409960
     40          1           0       -6.162929    2.556354   -0.871291
 ---------------------------------------------------------------------

 SCF Done:  E(RHF) =  -470.733178450     A.U. after   11 cycles
 E2 =    -0.1583115885D+01 EUMP2 =    -0.47231629433543D+03

 The electronic state is 1-A.
 Alpha  occ. eigenvalues --  -11.21624 -11.21605 -11.21592 -11.21580 -11.21417
 Alpha  occ. eigenvalues --  -11.21381 -11.21356 -11.21319 -11.21109 -11.21072
 Alpha  occ. eigenvalues --  -11.21065 -11.21020  -1.08450  -1.08405  -1.03571
 Alpha  occ. eigenvalues --   -1.03494  -0.96028  -0.95937  -0.87045  -0.86951
 Alpha  occ. eigenvalues --   -0.79619  -0.79569  -0.78295  -0.78178  -0.65074
 Alpha  occ. eigenvalues --   -0.65049  -0.61002  -0.60909  -0.59445  -0.59267
 Alpha  occ. eigenvalues --   -0.57728  -0.57470  -0.55338  -0.55194  -0.52751
 Alpha  occ. eigenvalues --   -0.52653  -0.52498  -0.52266  -0.49937  -0.49882
 Alpha  occ. eigenvalues --   -0.47923  -0.47883  -0.46638  -0.46595  -0.45907
 Alpha  occ. eigenvalues --   -0.45742  -0.45692  -0.45593  -0.43799  -0.43765
 Alpha virt. eigenvalues --    0.20750   0.23107   0.23447   0.24974   0.25805
 Alpha virt. eigenvalues --    0.26610   0.26948   0.27337   0.28137   0.29199
 Alpha virt. eigenvalues --    0.30612   0.31392   0.31411   0.31747   0.32064

 Mulliken charges:
               1
     1  C   -0.300898
     2  C   -0.299269
     3  C   -0.484325
     4  H    0.152723
     5  H    0.149409
     6  H    0.151429
     7  H    0.151894
     8  H    0.154751
     9  H    0.164534
    10  H    0.160027
    11  C   -0.298291
    12  C   -0.299479
    13  C   -0.475695
    14  H    0.149357
    15  H    0.149641
    16  H    0.151593
    17  H    0.152032
    18  H    0.155200
    19  H    0.155118
    20  H    0.160173
    21  C   -0.298404
    22  C   -0.302378
    23  C   -0.479900
    24  H    0.149605
    25  H    0.149779
    26  H    0.152131
    27  H    0.154742
    28  H    0.155996
    29  H    0.155555
    30  H    0.162609
    31  C   -0.298299
    32  C   -0.299688
    33  C   -0.475709
    34  H    0.149560
    35  H    0.149935
    36  H    0.151897
    37  H    0.151963
    38  H    0.155223
    39  H    0.155207
    40  H    0.160255
 Sum of Mulliken charges =  -0.00000

 Dipole moment (field-independent basis, Debye):
    X=             -0.0297    Y=             -0.0015    Z=             -0.0031  Tot=              0.0299
 Quadrupole moment (field-independent basis, Debye-Ang):
   XX=            -85.3313   YY=            -86.0267   ZZ=            -83.4787
   XY=             -0.0544   XZ=             -0.5732   YZ=              0.4344

 Normal termination of Gaussian 16 at Wed May  5 16:35:02 2021.
