 Gaussian 16, Revision A.03,
 Gaussian 16:  EM64L-G16RevA.03 25-Dec-2016

 -------------
 #p 6-31g* mp2
 -------------

 ------------------------------------------------------
 Input file generated by CHIRIPA (05-May-2021 14:51:13)
 ------------------------------------------------------
 Symbolic Z-matrix:
 Charge =  0 Multiplicity = 1

                         Standard orientation:
 ---------------------------------------------------------------------
 Center     Atomic      Atomic             Coordinates (Angstroms)
 Number     Number       Type             X           Y           Z
 ---------------------------------------------------------------------
      1          6           0        2.064552    1.027489    0.361973
      2          6           0        1.578113    2.451208    0.089232
      3          6           0        0.298996    2.795359    0.852916
      4          1           0        1.271398    0.317485    0.090414
      5          1           0        2.236523    0.906521    1.440484
      6          1           0        1.408434    2.569874   -0.988610
      7          1           0        2.372589    3.157895    0.361292
      8          1           0        0.458555    2.704842    1.932244
      9          1           0       -0.511079    2.113480    0.574672
     10          1           0       -0.030993    3.817627    0.643305
     11          6           0        3.342387    0.668563   -0.394360
     12          6           0        3.828826   -0.755156   -0.121619
     13          6           0        5.107942   -1.099307   -0.885303
     14          1           0        3.170416    0.789531   -1.472871
     15          1           0        4.135541    1.378567   -0.122801
     16          1           0        3.034350   -1.461843   -0.393679
     17          1           0        3.998505   -0.873822    0.956223
     18          1           0        5.918017   -0.417428   -0.607059
     19          1           0        4.948384   -1.008790   -1.964631
     20          1           0        5.437932   -2.121575   -0.675692
     21          6           0       -2.045171   -0.971367    0.383428
     22          6           0       -1.486910   -2.378943    0.171151
     23          6           0       -0.169663   -2.610424    0.912142
     24          1           0       -1.301221   -0.234687    0.050583
     25          1           0       -2.193635   -0.801671    1.458861
     26          1           0       -1.340844   -2.546433   -0.903665
     27          1           0       -2.232353   -3.112361    0.504361
     28          1           0       -0.303998   -2.470363    1.989610
     29          1           0        0.592576   -1.901219    0.573584
     30          1           0        0.211552   -3.622907    0.746565
     31          6           0       -3.361768   -0.724685   -0.351042
     32          6           0       -3.920029    0.682891   -0.138763
     33          6           0       -5.237276    0.914373   -0.879755
     34          1           0       -3.213303   -0.894381   -1.426475
     35          1           0       -4.105718   -1.461366   -0.018197
     36          1           0       -3.174587    1.416309   -0.471975
     37          1           0       -4.066095    0.850381    0.936051
     38          1           0       -5.999515    0.205167   -0.541196
     39          1           0       -5.102941    0.774311   -1.957223
     40          1           0       -5.618491    1.926855   -0.714178
 ---------------------------------------------------------------------

 SCF Done:  E(RHF) =  -470.732421313     A.U. after   11 cycles
 E2 =    -0.1584813400D+01 EUMP2 =    -0.47231723471262D+03

 The electronic state is 1-A.
 Alpha  occ. eigenvalues --  -11.21618 -11.21612 -11.21608 -11.21601 -11.21427
 Alpha  occ. eigenvalues --  -11.21413 -11.21368 -11.21353 -11.21081 -11.21073
 Alpha  occ. eigenvalues --  -11.21032 -11.21010  -1.08485  -1.08417  -1.03539
 Alpha  occ. eigenvalues --   -1.03532  -0.96015  -0.95954  -0.87006  -0.86994
 Alpha  occ. eigenvalues --   -0.79617  -0.79602  -0.78429  -0.78105  -0.65295
 Alpha  occ. eigenvalues --   -0.64902  -0.60944  -0.60938  -0.59391  -0.59321
 Alpha  occ. eigenvalues --   -0.57715  -0.57486  -0.55384  -0.55173  -0.52691
 Alpha  occ. eigenvalues --   -0.52662  -0.52471  -0.52339  -0.49972  -0.49918
 Alpha  occ. eigenvalues --   -0.48006  -0.47913  -0.46895  -0.46702  -0.46106
 Alpha  occ. eigenvalues --   -0.45778  -0.45724  -0.44924  -0.43793  -0.43783
 Alpha virt. eigenvalues --    0.20517   0.22509   0.23633   0.23972   0.25356
 Alpha virt. eigenvalues --    0.26376   0.26845   0.27192   0.28829   0.29717
 Alpha virt. eigenvalues --    0.30770   0.31635   0.31710   0.31774   0.31918

 Mulliken charges:
               1
     1  C   -0.307237
     2  C   -0.298928
     3  C   -0.482264
     4  H    0.157451
     5  H    0.150093
     6  H    0.151032
     7  H    0.152130
     8  H    0.155402
     9  H    0.161708
    10  H    0.159997
    11  C   -0.297959
    12  C   -0.303116
    13  C   -0.475606
    14  H    0.148904
    15  H    0.149895
    16  H    0.155234
    17  H    0.152423
    18  H    0.155247
    19  H    0.154992
    20  H    0.160496
    21  C   -0.306494
    22  C   -0.299239
    23  C   -0.484568
    24  H    0.156546
    25  H    0.150223
    26  H    0.151010
    27  H    0.152154
    28  H    0.155354
    29  H    0.164559
    30  H    0.159887
    31  C   -0.297930
    32  C   -0.301866
    33  C   -0.475714
    34  H    0.149108
    35  H    0.149995
    36  H    0.153716
    37  H    0.152453
    38  H    0.155311
    39  H    0.155076
    40  H    0.160525
 Sum of Mulliken charges =  -0.00000

 Dipole moment (field-independent basis, Debye):
    X=             -0.0015    Y=             -0.0019    Z=              0.0200  Tot=              0.0202
 Quadrupole moment (field-independent basis, Debye-Ang):
   XX=            -85.8942   YY=            -84.9381   ZZ=            -83.9319
   XY=              0.9780   XZ=              0.0161   YZ=             -0.0358

 Normal termination of Gaussian 16 at Wed May  5 19:58:28 2021.
