 Gaussian 16, Revision A.03,
 Gaussian 16:  EM64L-G16RevA.03 25-Dec-2016

 -------------
 #p 6-31g* mp2
 -------------

 ------------------------------------------------------
 Input file generated by CHIRIPA (05-May-2021 14:53:16)
 ------------------------------------------------------
 Symbolic Z-matrix:
 Charge =  0 Multiplicity = 1

                         Standard orientation:
 ---------------------------------------------------------------------
 Center     Atomic      Atomic             Coordinates (Angstroms)
 Number     Number       Type             X           Y           Z
 ---------------------------------------------------------------------
      1          6           0        4.088518    0.794720    0.518430
      2          6           0        2.710071    1.317323    0.112530
      3          6           0        2.285487    2.548826    0.913106
      4          1           0        4.080849    0.552489    1.589976
      5          1           0        4.830231    1.594212    0.384006
      6          1           0        1.971403    0.516653    0.246368
      7          1           0        2.720966    1.558157   -0.958216
      8          1           0        3.000348    3.365802    0.771247
      9          1           0        2.246526    2.318380    1.982675
     10          1           0        1.297243    2.905718    0.606737
     11          6           0        4.526910   -0.436183   -0.273036
     12          6           0        5.905357   -0.958785    0.132864
     13          6           0        6.329941   -2.190288   -0.667713
     14          1           0        3.785196   -1.235674   -0.138613
     15          1           0        4.534579   -0.193952   -1.344582
     16          1           0        5.894461   -1.199620    1.203610
     17          1           0        6.644025   -0.158116   -0.000975
     18          1           0        6.368902   -1.959842   -1.737282
     19          1           0        5.615079   -3.007264   -0.525853
     20          1           0        7.318185   -2.547180   -0.361344
     21          6           0       -1.081988    0.844792   -0.522498
     22          6           0       -1.205197   -0.358769    0.179485
     23          6           0       -2.465345   -0.913676    0.421665
     24          6           0       -3.586154   -0.235265   -0.054611
     25          6           0       -3.496056    0.965415   -0.757135
     26          6           0       -2.225794    1.501884   -0.987748
     27          1           0       -0.099145    1.268696   -0.706136
     28          1           0       -0.318640   -0.871271    0.541982
     29          1           0       -2.589547   -1.844072    0.962363
     30          1           0       -4.398137    1.453171   -1.106079
     31          1           0       -2.133129    2.436729   -1.533206
     32          7           0       -4.925570   -0.812961    0.195651
     33          8           0       -5.897539   -0.195752   -0.234427
     34          8           0       -4.978074   -1.872029    0.817143
 ---------------------------------------------------------------------

 SCF Done:  E(RHF) =  -669.534840555     A.U. after   15 cycles
 E2 =    -0.2092213494D+01 EUMP2 =    -0.67162705404854D+03

 The electronic state is 1-A.
 Alpha  occ. eigenvalues --  -20.60710 -20.60705 -15.85765 -11.31113 -11.27692
 Alpha  occ. eigenvalues --  -11.27685 -11.27338 -11.26689 -11.26676 -11.23017
 Alpha  occ. eigenvalues --  -11.22427 -11.22303 -11.22300 -11.22236 -11.21642
 Alpha  occ. eigenvalues --   -1.59787  -1.39341  -1.19284  -1.09438  -1.08674
 Alpha  occ. eigenvalues --   -1.04693  -1.04525  -0.96935  -0.95512  -0.87940
 Alpha  occ. eigenvalues --   -0.86090  -0.82360  -0.80646  -0.79211  -0.77407
 Alpha  occ. eigenvalues --   -0.71983  -0.71110  -0.70420  -0.66073  -0.64934
 Alpha  occ. eigenvalues --   -0.64712  -0.62092  -0.61851  -0.60379  -0.58595
 Alpha  occ. eigenvalues --   -0.56182  -0.55084  -0.53632  -0.53337  -0.52994
 Alpha  occ. eigenvalues --   -0.52785  -0.50854  -0.48929  -0.48740  -0.48737
 Alpha  occ. eigenvalues --   -0.47665  -0.46737  -0.46635  -0.44761  -0.44750
 Alpha  occ. eigenvalues --   -0.37244  -0.36301
 Alpha virt. eigenvalues --    0.05117   0.11347   0.16550   0.19587   0.22300
 Alpha virt. eigenvalues --    0.23811   0.24331   0.26040   0.26320   0.27983
 Alpha virt. eigenvalues --    0.29354   0.29667   0.30780   0.31296   0.32022

 Mulliken charges:
               1
     1  C   -0.297948
     2  C   -0.309535
     3  C   -0.478098
     4  H    0.152633
     5  H    0.153712
     6  H    0.144712
     7  H    0.152580
     8  H    0.161415
     9  H    0.161150
    10  H    0.155758
    11  C   -0.298724
    12  C   -0.300523
    13  C   -0.476239
    14  H    0.147311
    15  H    0.150950
    16  H    0.153233
    17  H    0.153603
    18  H    0.156078
    19  H    0.155651
    20  H    0.162704
    21  C   -0.176472
    22  C   -0.224109
    23  C   -0.170701
    24  C    0.158098
    25  C   -0.170542
    26  C   -0.221140
    27  H    0.240326
    28  H    0.223702
    29  H    0.275244
    30  H    0.275265
    31  H    0.223216
    32  N    0.488031
    33  O   -0.460613
    34  O   -0.460727
 Sum of Mulliken charges =  -0.00000

 Dipole moment (field-independent basis, Debye):
    X=              5.0318    Y=              2.0746    Z=             -0.8403  Tot=              5.5072
 Quadrupole moment (field-independent basis, Debye-Ang):
   XX=           -127.1385   YY=            -93.2948   ZZ=            -93.8326
   XY=             -9.5537   XZ=              4.1518   YZ=             -2.8465

 Normal termination of Gaussian 16 at Thu May  6 04:18:26 2021.
