 Gaussian 16, Revision A.03,
 Gaussian 16:  EM64L-G16RevA.03 25-Dec-2016

 -------------
 #p 6-31g* mp2
 -------------

 ------------------------------------------------------
 Input file generated by CHIRIPA (05-May-2021 14:57:22)
 ------------------------------------------------------
 Symbolic Z-matrix:
 Charge =  0 Multiplicity = 1

                         Standard orientation:
 ---------------------------------------------------------------------
 Center     Atomic      Atomic             Coordinates (Angstroms)
 Number     Number       Type             X           Y           Z
 ---------------------------------------------------------------------
      1          6           0        1.979502   -2.203555    1.255794
      2          6           0        1.801331   -2.049881   -0.123032
      3          6           0        2.045308   -0.818052   -0.737541
      4          6           0        2.468314    0.243678    0.060636
      5          6           0        2.654952    0.122033    1.436739
      6          6           0        2.404993   -1.119020    2.029914
      7          1           0        1.787651   -3.164052    1.724873
      8          1           0        1.470974   -2.890404   -0.726712
      9          1           0        1.915423   -0.671319   -1.802913
     10          1           0        2.985166    0.978250    2.012299
     11          1           0        2.544206   -1.235455    3.100945
     12          7           0        2.729768    1.552642   -0.578625
     13          8           0        3.101678    2.472543    0.146705
     14          8           0        2.557834    1.633923   -1.792902
     15          6           0       -3.340389    1.659467    1.471394
     16          6           0       -3.029933    2.049378    0.164447
     17          6           0       -2.522293    1.122911   -0.751254
     18          6           0       -2.336748   -0.191077   -0.324290
     19          6           0       -2.636521   -0.610223    0.970987
     20          6           0       -3.143040    0.333249    1.869789
     21          1           0       -3.734300    2.385774    2.176168
     22          1           0       -3.182171    3.078656   -0.147730
     23          1           0       -2.273528    1.397706   -1.769105
     24          1           0       -2.473964   -1.643428    1.252913
     25          1           0       -3.383262    0.027602    2.884145
     26          7           0       -1.799925   -1.180889   -1.284757
     27          8           0       -1.645577   -2.332462   -0.883892
     28          8           0       -1.543678   -0.786387   -2.420249
 ---------------------------------------------------------------------

 SCF Done:  E(RHF) =  -868.340112053     A.U. after   16 cycles
 E2 =    -0.2600565133D+01 EUMP2 =    -0.87094067718607D+03

 The electronic state is 1-A.
 Alpha  occ. eigenvalues --  -20.61269 -20.61231 -20.60433 -20.60408 -15.86257
 Alpha  occ. eigenvalues --  -15.85466 -11.31372 -11.30697 -11.27964 -11.27864
 Alpha  occ. eigenvalues --  -11.27625 -11.27285 -11.27067 -11.26920 -11.26916
 Alpha  occ. eigenvalues --  -11.26832 -11.26321 -11.26028  -1.60310  -1.59505
 Alpha  occ. eigenvalues --   -1.39870  -1.39058  -1.19526  -1.18838  -1.08972
 Alpha  occ. eigenvalues --   -1.08261  -1.04893  -1.04187  -0.95850  -0.95119
 Alpha  occ. eigenvalues --   -0.86304  -0.85586  -0.82694  -0.81934  -0.77766
 Alpha  occ. eigenvalues --   -0.77000  -0.72506  -0.71691  -0.71611  -0.70829
 Alpha  occ. eigenvalues --   -0.70639  -0.69925  -0.65188  -0.64899  -0.64469
 Alpha  occ. eigenvalues --   -0.64143  -0.62244  -0.61496  -0.55413  -0.54703
 Alpha  occ. eigenvalues --   -0.53234  -0.52985  -0.52569  -0.52238  -0.49275
 Alpha  occ. eigenvalues --   -0.49241  -0.48450  -0.48431  -0.45327  -0.44494
 Alpha  occ. eigenvalues --   -0.37498  -0.36829  -0.36474  -0.35778
 Alpha virt. eigenvalues --    0.04728   0.05474   0.11169   0.11876   0.16274
 Alpha virt. eigenvalues --    0.17013   0.21305   0.22115   0.27241   0.27990
 Alpha virt. eigenvalues --    0.28344   0.28891   0.30882   0.31642   0.32393

 Mulliken charges:
               1
     1  C   -0.174330
     2  C   -0.214023
     3  C   -0.180668
     4  C    0.157417
     5  C   -0.173542
     6  C   -0.219744
     7  H    0.224652
     8  H    0.238810
     9  H    0.284120
    10  H    0.271831
    11  H    0.219265
    12  N    0.487508
    13  O   -0.464692
    14  O   -0.458812
    15  C   -0.169819
    16  C   -0.217946
    17  C   -0.169752
    18  C    0.158177
    19  C   -0.169533
    20  C   -0.219008
    21  H    0.226805
    22  H    0.227037
    23  H    0.279724
    24  H    0.271646
    25  H    0.222205
    26  N    0.488895
    27  O   -0.467726
    28  O   -0.458498
 Sum of Mulliken charges =  -0.00000

 Dipole moment (field-independent basis, Debye):
    X=             -2.9973    Y=             -1.1476    Z=              5.4210  Tot=              6.2999
 Quadrupole moment (field-independent basis, Debye-Ang):
   XX=           -102.0654   YY=           -105.7182   ZZ=           -100.8222
   XY=            -19.6394   XZ=             -1.1633   YZ=             -2.2866

 Normal termination of Gaussian 16 at Fri May  7 07:55:11 2021.
