 Gaussian 16, Revision A.03,
 Gaussian 16:  EM64L-G16RevA.03 25-Dec-2016

 -------------
 #p 6-31g* mp2
 -------------

 ------------------------------------------------------
 Input file generated by CHIRIPA (05-May-2021 14:51:11)
 ------------------------------------------------------
 Symbolic Z-matrix:
 Charge =  0 Multiplicity = 1

                         Standard orientation:
 ---------------------------------------------------------------------
 Center     Atomic      Atomic             Coordinates (Angstroms)
 Number     Number       Type             X           Y           Z
 ---------------------------------------------------------------------
      1          6           0       -3.623907   -0.014683    0.747507
      2          6           0       -2.235776    0.388202    0.248747
      3          6           0       -1.244739    0.627731    1.388161
      4          1           0       -4.009865    0.770351    1.412114
      5          1           0       -3.537059   -0.925083    1.356624
      6          1           0       -2.325403    1.296790   -0.360393
      7          1           0       -1.853159   -0.397794   -0.414902
      8          1           0       -1.125802   -0.277711    1.992006
      9          1           0       -1.600729    1.426501    2.046825
     10          1           0       -0.258908    0.914653    1.009117
     11          6           0       -4.625778   -0.257618   -0.379864
     12          6           0       -6.013909   -0.660503    0.118895
     13          6           0       -7.004947   -0.900032   -1.020518
     14          1           0       -4.712627    0.652782   -0.988982
     15          1           0       -4.239821   -1.042652   -1.044472
     16          1           0       -6.396526    0.125493    0.782545
     17          1           0       -5.924283   -1.569091    0.728035
     18          1           0       -6.648956   -1.698802   -1.679183
     19          1           0       -7.123883    0.005410   -1.624363
     20          1           0       -7.990777   -1.186954   -0.641475
     21          6           0        4.623244   -0.361716   -0.479045
     22          6           0        4.921899   -1.541750    0.446323
     23          6           0        5.920653   -2.529063   -0.158242
     24          1           0        4.233437   -0.741767   -1.433276
     25          1           0        5.561954    0.160398   -0.710599
     26          1           0        3.982719   -2.060657    0.677174
     27          1           0        5.310861   -1.158836    1.398533
     28          1           0        6.872203   -2.031846   -0.372553
     29          1           0        5.536514   -2.938790   -1.098009
     30          1           0        6.119710   -3.364702    0.519950
     31          6           0        3.626441    0.634017    0.111403
     32          6           0        3.327786    1.814051   -0.813966
     33          6           0        2.329033    2.801364   -0.209400
     34          1           0        2.687732    0.111903    0.342956
     35          1           0        4.016249    1.014068    1.065633
     36          1           0        2.938825    1.431137   -1.766175
     37          1           0        4.266968    2.332957   -1.044817
     38          1           0        2.713172    3.211091    0.730367
     39          1           0        1.377483    2.304147    0.004910
     40          1           0        2.129975    3.637003   -0.887592
 ---------------------------------------------------------------------

 SCF Done:  E(RHF) =  -470.733318818     A.U. after   11 cycles
 E2 =    -0.1582411948D+01 EUMP2 =    -0.47231573076611D+03

 The electronic state is 1-A.
 Alpha  occ. eigenvalues --  -11.21628 -11.21611 -11.21599 -11.21595 -11.21420
 Alpha  occ. eigenvalues --  -11.21403 -11.21360 -11.21343 -11.21088 -11.21079
 Alpha  occ. eigenvalues --  -11.21068 -11.21059  -1.08447  -1.08427  -1.03557
 Alpha  occ. eigenvalues --   -1.03519  -0.96016  -0.95960  -0.87041  -0.86968
 Alpha  occ. eigenvalues --   -0.79633  -0.79565  -0.78258  -0.78239  -0.65075
 Alpha  occ. eigenvalues --   -0.65063  -0.60963  -0.60935  -0.59447  -0.59281
 Alpha  occ. eigenvalues --   -0.57700  -0.57506  -0.55307  -0.55242  -0.52768
 Alpha  occ. eigenvalues --   -0.52669  -0.52472  -0.52295  -0.49951  -0.49891
 Alpha  occ. eigenvalues --   -0.48012  -0.47821  -0.46641  -0.46610  -0.45805
 Alpha  occ. eigenvalues --   -0.45775  -0.45724  -0.45701  -0.43793  -0.43757
 Alpha virt. eigenvalues --    0.21115   0.23040   0.23457   0.24935   0.26147
 Alpha virt. eigenvalues --    0.26635   0.27133   0.27490   0.27835   0.28809
 Alpha virt. eigenvalues --    0.30394   0.31402   0.31782   0.31877   0.32009

 Mulliken charges:
               1
     1  C   -0.298373
     2  C   -0.299396
     3  C   -0.484134
     4  H    0.149854
     5  H    0.149580
     6  H    0.152302
     7  H    0.151443
     8  H    0.155406
     9  H    0.155922
    10  H    0.167213
    11  C   -0.298273
    12  C   -0.299676
    13  C   -0.475717
    14  H    0.149621
    15  H    0.149564
    16  H    0.152016
    17  H    0.151934
    18  H    0.155154
    19  H    0.155221
    20  H    0.160297
    21  C   -0.298292
    22  C   -0.299667
    23  C   -0.475712
    24  H    0.149604
    25  H    0.149620
    26  H    0.152012
    27  H    0.152020
    28  H    0.155179
    29  H    0.155127
    30  H    0.160241
    31  C   -0.299864
    32  C   -0.299361
    33  C   -0.482695
    34  H    0.150624
    35  H    0.149859
    36  H    0.151835
    37  H    0.152015
    38  H    0.155482
    39  H    0.161600
    40  H    0.160416
 Sum of Mulliken charges =  -0.00000

 Dipole moment (field-independent basis, Debye):
    X=             -0.0056    Y=              0.0054    Z=              0.0069  Tot=              0.0104
 Quadrupole moment (field-independent basis, Debye-Ang):
   XX=            -85.2830   YY=            -84.2130   ZZ=            -85.2140
   XY=              0.5186   XZ=             -0.0482   YZ=             -0.1187

 Normal termination of Gaussian 16 at Thu May  6 07:03:33 2021.
