 Gaussian 16, Revision A.03,
 Gaussian 16:  EM64L-G16RevA.03 25-Dec-2016

 -------------
 #p 6-31g* mp2
 -------------

 ------------------------------------------------------
 Input file generated by CHIRIPA (05-May-2021 14:57:24)
 ------------------------------------------------------
 Symbolic Z-matrix:
 Charge =  0 Multiplicity = 1

                         Standard orientation:
 ---------------------------------------------------------------------
 Center     Atomic      Atomic             Coordinates (Angstroms)
 Number     Number       Type             X           Y           Z
 ---------------------------------------------------------------------
      1          6           0       -4.772305    0.666138    0.563183
      2          6           0       -3.830931    1.463317   -0.096244
      3          6           0       -2.628971    0.913204   -0.551452
      4          6           0       -2.400010   -0.443818   -0.329285
      5          6           0       -3.318186   -1.264114    0.324440
      6          6           0       -4.513384   -0.692637    0.771054
      7          1           0       -5.703390    1.101777    0.913461
      8          1           0       -4.029330    2.518859   -0.259072
      9          1           0       -1.882776    1.507369   -1.064851
     10          1           0       -3.092143   -2.313173    0.472078
     11          1           0       -5.242642   -1.314145    1.282870
     12          7           0       -1.131127   -1.037507   -0.806644
     13          8           0       -0.953279   -2.235711   -0.598524
     14          8           0       -0.338452   -0.293394   -1.379880
     15          6           0        1.807908    2.734014    0.104973
     16          6           0        1.640810    2.010665    1.290453
     17          6           0        2.080900    0.686884    1.382496
     18          6           0        2.686597    0.115104    0.264690
     19          6           0        2.867398    0.809715   -0.930348
     20          6           0        2.419591    2.132290   -0.999697
     21          1           0        1.463038    3.761891    0.042286
     22          1           0        1.166115    2.475405    2.149945
     23          1           0        1.964170    0.103879    2.287979
     24          1           0        3.344240    0.319412   -1.770373
     25          1           0        2.550686    2.691641   -1.921644
     26          7           0        3.156586   -1.285685    0.350119
     27          8           0        3.687129   -1.766606   -0.648818
     28          8           0        2.985518   -1.876180    1.414398
 ---------------------------------------------------------------------

 SCF Done:  E(RHF) =  -868.336897305     A.U. after   16 cycles
 E2 =    -0.2601981602D+01 EUMP2 =    -0.87093887890720D+03

 The electronic state is 1-A.
 Alpha  occ. eigenvalues --  -20.60889 -20.60866 -20.59582 -20.59555 -15.85910
 Alpha  occ. eigenvalues --  -15.84631 -11.31367 -11.30059 -11.27978 -11.27914
 Alpha  occ. eigenvalues --  -11.27709 -11.27010 -11.26950 -11.26763 -11.26643
 Alpha  occ. eigenvalues --  -11.26615 -11.25891 -11.25775  -1.59948  -1.58625
 Alpha  occ. eigenvalues --   -1.39497  -1.38187  -1.19551  -1.18286  -1.08930
 Alpha  occ. eigenvalues --   -1.07706  -1.04967  -1.03751  -0.95751  -0.94524
 Alpha  occ. eigenvalues --   -0.86358  -0.85170  -0.82583  -0.81379  -0.77617
 Alpha  occ. eigenvalues --   -0.76372  -0.72148  -0.71290  -0.70882  -0.70655
 Alpha  occ. eigenvalues --   -0.69890  -0.69522  -0.65203  -0.64971  -0.64002
 Alpha  occ. eigenvalues --   -0.63831  -0.62312  -0.61129  -0.55464  -0.54359
 Alpha  occ. eigenvalues --   -0.53298  -0.53060  -0.52034  -0.51906  -0.48924
 Alpha  occ. eigenvalues --   -0.48868  -0.47637  -0.47609  -0.44839  -0.43582
 Alpha  occ. eigenvalues --   -0.37547  -0.36592  -0.36254  -0.35297
 Alpha virt. eigenvalues --    0.04908   0.06206   0.11072   0.12318   0.16383
 Alpha virt. eigenvalues --    0.17633   0.21199   0.22165   0.27086   0.28061
 Alpha virt. eigenvalues --    0.28098   0.29075   0.30719   0.31637   0.32313

 Mulliken charges:
               1
     1  C   -0.171078
     2  C   -0.219298
     3  C   -0.171223
     4  C    0.158207
     5  C   -0.170622
     6  C   -0.218738
     7  H    0.225619
     8  H    0.221330
     9  H    0.273022
    10  H    0.278422
    11  H    0.224614
    12  N    0.488417
    13  O   -0.453678
    14  O   -0.464124
    15  C   -0.174424
    16  C   -0.220011
    17  C   -0.174915
    18  C    0.171021
    19  C   -0.153616
    20  C   -0.214955
    21  H    0.217317
    22  H    0.216162
    23  H    0.271699
    24  H    0.275287
    25  H    0.218767
    26  N    0.490551
    27  O   -0.459017
    28  O   -0.464737
 Sum of Mulliken charges =  -0.00000

 Dipole moment (field-independent basis, Debye):
    X=             -6.1553    Y=              6.6650    Z=              1.1711  Tot=              9.1478
 Quadrupole moment (field-independent basis, Debye-Ang):
   XX=            -92.6452   YY=           -102.9693   ZZ=           -102.0370
   XY=             11.3978   XZ=             -6.8692   YZ=             -2.4253

 Normal termination of Gaussian 16 at Fri May  7 12:35:22 2021.
