 Gaussian 16, Revision A.03,
 Gaussian 16:  EM64L-G16RevA.03 25-Dec-2016

 -------------
 #p 6-31g* mp2
 -------------

 ------------------------------------------------------
 Input file generated by CHIRIPA (05-May-2021 14:51:12)
 ------------------------------------------------------
 Symbolic Z-matrix:
 Charge =  0 Multiplicity = 1

                         Standard orientation:
 ---------------------------------------------------------------------
 Center     Atomic      Atomic             Coordinates (Angstroms)
 Number     Number       Type             X           Y           Z
 ---------------------------------------------------------------------
      1          6           0        4.024145   -0.570194    0.187183
      2          6           0        5.114295   -1.425367   -0.459528
      3          6           0        5.153888   -2.850219    0.093667
      4          1           0        4.187423   -0.539026    1.273146
      5          1           0        3.049064   -1.052220    0.031416
      6          1           0        6.086873   -0.941165   -0.303783
      7          1           0        4.948513   -1.454346   -1.544098
      8          1           0        4.197615   -3.355782   -0.075300
      9          1           0        5.342443   -2.839686    1.172062
     10          1           0        5.940363   -3.444029   -0.382470
     11          6           0        3.972019    0.856893   -0.355433
     12          6           0        2.881868    1.712066    0.291279
     13          6           0        2.842276    3.136918   -0.261916
     14          1           0        4.947100    1.338919   -0.199665
     15          1           0        3.808740    0.825725   -1.441395
     16          1           0        3.047650    1.741045    1.375849
     17          1           0        1.909290    1.227865    0.135534
     18          1           0        2.653720    3.126385   -1.340311
     19          1           0        3.798548    3.642481   -0.092949
     20          1           0        2.055801    3.730729    0.214221
     21          6           0       -3.288953   -0.041998   -0.181009
     22          6           0       -2.243136    0.103586    0.924911
     23          6           0       -0.829404    0.305688    0.378732
     24          1           0       -3.017876   -0.890673   -0.823825
     25          1           0       -3.265528    0.852818   -0.818308
     26          1           0       -2.269481   -0.790631    1.560755
     27          1           0       -2.516838    0.951895    1.565282
     28          1           0       -0.780501    1.208111   -0.239202
     29          1           0       -0.531739   -0.544315   -0.243754
     30          1           0       -0.097756    0.407450    1.186320
     31          6           0       -4.707211   -0.244702    0.349258
     32          6           0       -5.753027   -0.390285   -0.756661
     33          6           0       -7.166760   -0.592388   -0.210484
     34          1           0       -4.730636   -1.139517    0.986558
     35          1           0       -4.978288    0.603974    0.992075
     36          1           0       -5.479327   -1.238594   -1.397033
     37          1           0       -5.726683    0.503931   -1.392506
     38          1           0       -7.464425    0.257616    0.412003
     39          1           0       -7.215663   -1.494811    0.407451
     40          1           0       -7.898407   -0.694150   -1.018070
 ---------------------------------------------------------------------

 SCF Done:  E(RHF) =  -470.732933216     A.U. after   11 cycles
 E2 =    -0.1582781328D+01 EUMP2 =    -0.47231571454370D+03

 The electronic state is 1-A.
 Alpha  occ. eigenvalues --  -11.21633 -11.21619 -11.21559 -11.21430 -11.21420
 Alpha  occ. eigenvalues --  -11.21370 -11.21331 -11.21265 -11.21120 -11.21085
 Alpha  occ. eigenvalues --  -11.21043 -11.20992  -1.08459  -1.08351  -1.03572
 Alpha  occ. eigenvalues --   -1.03447  -0.96025  -0.95908  -0.87061  -0.86915
 Alpha  occ. eigenvalues --   -0.79710  -0.79456  -0.78283  -0.78146  -0.65088
 Alpha  occ. eigenvalues --   -0.64987  -0.60983  -0.60852  -0.59460  -0.59209
 Alpha  occ. eigenvalues --   -0.57629  -0.57517  -0.55325  -0.55181  -0.52799
 Alpha  occ. eigenvalues --   -0.52582  -0.52443  -0.52321  -0.49971  -0.49838
 Alpha  occ. eigenvalues --   -0.47948  -0.47828  -0.46686  -0.46519  -0.45852
 Alpha  occ. eigenvalues --   -0.45737  -0.45704  -0.45598  -0.43765  -0.43661
 Alpha virt. eigenvalues --    0.22173   0.22973   0.23854   0.24627   0.25923
 Alpha virt. eigenvalues --    0.26617   0.26991   0.27510   0.27948   0.29101
 Alpha virt. eigenvalues --    0.30787   0.31230   0.31494   0.31795   0.32082

 Mulliken charges:
               1
     1  C   -0.298773
     2  C   -0.299548
     3  C   -0.475624
     4  H    0.149213
     5  H    0.149870
     6  H    0.151873
     7  H    0.151818
     8  H    0.154981
     9  H    0.155069
    10  H    0.160084
    11  C   -0.297237
    12  C   -0.311473
    13  C   -0.475143
    14  H    0.148850
    15  H    0.149157
    16  H    0.150070
    17  H    0.168157
    18  H    0.154584
    19  H    0.154694
    20  H    0.159534
    21  C   -0.298596
    22  C   -0.300215
    23  C   -0.479071
    24  H    0.149514
    25  H    0.149588
    26  H    0.152129
    27  H    0.152272
    28  H    0.155679
    29  H    0.154684
    30  H    0.163614
    31  C   -0.298349
    32  C   -0.299628
    33  C   -0.475719
    34  H    0.149592
    35  H    0.149727
    36  H    0.151921
    37  H    0.151957
    38  H    0.155222
    39  H    0.155213
    40  H    0.160308
 Sum of Mulliken charges =  -0.00000

 Dipole moment (field-independent basis, Debye):
    X=             -0.0544    Y=             -0.0104    Z=              0.0062  Tot=              0.0557
 Quadrupole moment (field-independent basis, Debye-Ang):
   XX=            -85.7658   YY=            -84.9247   ZZ=            -84.4260
   XY=             -0.0255   XZ=              0.6797   YZ=              0.5783

 Normal termination of Gaussian 16 at Wed May  5 18:18:41 2021.
