 Gaussian 16, Revision A.03,
 Gaussian 16:  EM64L-G16RevA.03 25-Dec-2016

 -------------
 #p 6-31g* mp2
 -------------

 ------------------------------------------------------
 Input file generated by CHIRIPA (05-May-2021 14:51:11)
 ------------------------------------------------------
 Symbolic Z-matrix:
 Charge =  0 Multiplicity = 1

                         Standard orientation:
 ---------------------------------------------------------------------
 Center     Atomic      Atomic             Coordinates (Angstroms)
 Number     Number       Type             X           Y           Z
 ---------------------------------------------------------------------
      1          6           0       -4.206877    0.322811   -0.209023
      2          6           0       -5.493752   -0.105873    0.496788
      3          6           0       -6.647553    0.870696    0.266897
      4          1           0       -3.918583    1.322668    0.143282
      5          1           0       -4.401201    0.415083   -1.286575
      6          1           0       -5.296707   -0.198650    1.572512
      7          1           0       -5.778911   -1.104905    0.142903
      8          1           0       -6.872667    0.956471   -0.801076
      9          1           0       -6.387724    1.867876    0.636655
     10          1           0       -7.557570    0.544953    0.780338
     11          6           0       -3.044313   -0.643421    0.011360
     12          6           0       -1.757439   -0.214737   -0.694450
     13          6           0       -0.603637   -1.191305   -0.464560
     14          1           0       -2.849990   -0.735693    1.088913
     15          1           0       -3.332607   -1.643278   -0.340945
     16          1           0       -1.472280    0.784296   -0.340566
     17          1           0       -1.954483   -0.121960   -1.770174
     18          1           0       -0.863466   -2.188486   -0.834318
     19          1           0       -0.378523   -1.277081    0.603413
     20          1           0        0.306380   -0.865563   -0.978000
     21          6           0        3.669208   -0.495480    0.488030
     22          6           0        3.500178   -1.734882   -0.391345
     23          6           0        3.589869   -3.039065    0.401659
     24          1           0        4.638773   -0.547831    1.001984
     25          1           0        2.899154   -0.502797    1.271841
     26          1           0        4.269463   -1.724515   -1.174103
     27          1           0        2.530986   -1.679481   -0.903413
     28          1           0        2.812931   -3.075652    1.172133
     29          1           0        4.561285   -3.120942    0.899904
     30          1           0        3.466333   -3.912307   -0.246451
     31          6           0        3.581983    0.816091   -0.290367
     32          6           0        3.751012    2.055491    0.589007
     33          6           0        3.661321    3.359675   -0.203996
     34          1           0        4.352036    0.823407   -1.074177
     35          1           0        2.612418    0.868441   -0.804321
     36          1           0        4.720204    2.000090    1.101076
     37          1           0        2.981729    2.045125    1.371766
     38          1           0        2.689905    3.441552   -0.702241
     39          1           0        4.438259    3.396261   -0.974470
     40          1           0        3.784857    4.232916    0.444115
 ---------------------------------------------------------------------

 SCF Done:  E(RHF) =  -470.733160939     A.U. after   11 cycles
 E2 =    -0.1582947450D+01 EUMP2 =    -0.47231610838896D+03

 The electronic state is 1-A.
 Alpha  occ. eigenvalues --  -11.21676 -11.21632 -11.21588 -11.21494 -11.21453
 Alpha  occ. eigenvalues --  -11.21392 -11.21373 -11.21303 -11.21162 -11.21095
 Alpha  occ. eigenvalues --  -11.21063 -11.20996  -1.08483  -1.08387  -1.03591
 Alpha  occ. eigenvalues --   -1.03477  -0.96040  -0.95935  -0.87068  -0.86944
 Alpha  occ. eigenvalues --   -0.79672  -0.79530  -0.78292  -0.78204  -0.65123
 Alpha  occ. eigenvalues --   -0.65029  -0.60987  -0.60905  -0.59429  -0.59268
 Alpha  occ. eigenvalues --   -0.57649  -0.57547  -0.55329  -0.55213  -0.52794
 Alpha  occ. eigenvalues --   -0.52609  -0.52460  -0.52357  -0.49979  -0.49868
 Alpha  occ. eigenvalues --   -0.47987  -0.47859  -0.46681  -0.46578  -0.45836
 Alpha  occ. eigenvalues --   -0.45762  -0.45745  -0.45661  -0.43782  -0.43720
 Alpha virt. eigenvalues --    0.20728   0.23051   0.24025   0.24502   0.25885
 Alpha virt. eigenvalues --    0.26370   0.26868   0.27660   0.27904   0.29159
 Alpha virt. eigenvalues --    0.30769   0.31064   0.31820   0.31863   0.32208

 Mulliken charges:
               1
     1  C   -0.298297
     2  C   -0.299666
     3  C   -0.475734
     4  H    0.149694
     5  H    0.149647
     6  H    0.151973
     7  H    0.152027
     8  H    0.155244
     9  H    0.155227
    10  H    0.160368
    11  C   -0.298696
    12  C   -0.299575
    13  C   -0.481639
    14  H    0.149551
    15  H    0.149888
    16  H    0.151764
    17  H    0.152282
    18  H    0.155976
    19  H    0.155242
    20  H    0.165512
    21  C   -0.298041
    22  C   -0.305410
    23  C   -0.475322
    24  H    0.149440
    25  H    0.149933
    26  H    0.151144
    27  H    0.158723
    28  H    0.155451
    29  H    0.154629
    30  H    0.159939
    31  C   -0.300348
    32  C   -0.299493
    33  C   -0.475730
    34  H    0.149518
    35  H    0.150546
    36  H    0.152008
    37  H    0.151781
    38  H    0.155096
    39  H    0.155198
    40  H    0.160149
 Sum of Mulliken charges =  -0.00000

 Dipole moment (field-independent basis, Debye):
    X=             -0.0402    Y=             -0.0082    Z=             -0.0076  Tot=              0.0417
 Quadrupole moment (field-independent basis, Debye-Ang):
   XX=            -84.6301   YY=            -85.9605   ZZ=            -84.2581
   XY=              0.7722   XZ=              0.0002   YZ=              0.9615

 Normal termination of Gaussian 16 at Wed May  5 23:04:16 2021.
