 Gaussian 16, Revision A.03,
 Gaussian 16:  EM64L-G16RevA.03 25-Dec-2016

 -------------
 #p 6-31g* mp2
 -------------

 ------------------------------------------------------
 Input file generated by CHIRIPA (05-May-2021 14:55:19)
 ------------------------------------------------------
 Symbolic Z-matrix:
 Charge =  0 Multiplicity = 1

                         Standard orientation:
 ---------------------------------------------------------------------
 Center     Atomic      Atomic             Coordinates (Angstroms)
 Number     Number       Type             X           Y           Z
 ---------------------------------------------------------------------
      1          6           0        2.665564    2.267163    0.429293
      2          6           0        2.008560    1.600369   -0.610059
      3          6           0        2.260001    0.247380   -0.856524
      4          6           0        3.178661   -0.410960   -0.040471
      5          6           0        3.849210    0.225724    1.002739
      6          6           0        3.582176    1.578926    1.230962
      7          1           0        2.464183    3.318280    0.613667
      8          1           0        1.296207    2.132332   -1.234248
      9          1           0        1.765453   -0.293236   -1.654381
     10          1           0        4.554041   -0.331236    1.608072
     11          1           0        4.093890    2.094208    2.038846
     12          7           0        3.453104   -1.843422   -0.291736
     13          8           0        4.266901   -2.400901    0.441467
     14          8           0        2.849218   -2.381582   -1.217124
     15          6           0       -3.281367    0.449717   -0.020007
     16          6           0       -3.105470    1.892683   -0.494238
     17          6           0       -1.640699    2.329950   -0.526474
     18          1           0       -2.843476    0.343816    0.981981
     19          1           0       -2.712819   -0.218265   -0.681783
     20          1           0       -3.675301    2.557609    0.167413
     21          1           0       -3.544001    1.995207   -1.495135
     22          1           0       -1.062554    1.690554   -1.201397
     23          1           0       -1.194601    2.256151    0.470596
     24          1           0       -1.538016    3.364569   -0.868353
     25          6           0       -4.740212   -0.002043    0.017600
     26          6           0       -4.916110   -1.445009    0.491831
     27          6           0       -6.380880   -1.882276    0.524067
     28          1           0       -5.308760    0.665938    0.679377
     29          1           0       -5.178103    0.103857   -0.984389
     30          1           0       -4.477578   -1.547532    1.492727
     31          1           0       -4.346278   -2.109934   -0.169820
     32          1           0       -6.826979   -1.808477   -0.473003
     33          1           0       -6.959026   -1.242879    1.198990
     34          1           0       -6.483564   -2.916895    0.865946
 ---------------------------------------------------------------------

 SCF Done:  E(RHF) =  -669.535093233     A.U. after   15 cycles
 E2 =    -0.2091468378D+01 EUMP2 =    -0.67162656161052D+03

 The electronic state is 1-A.
 Alpha  occ. eigenvalues --  -20.60724 -20.60719 -15.85775 -11.31129 -11.27684
 Alpha  occ. eigenvalues --  -11.27671 -11.27408 -11.26711 -11.26633 -11.22178
 Alpha  occ. eigenvalues --  -11.21962 -11.21761 -11.21734 -11.21619 -11.21164
 Alpha  occ. eigenvalues --   -1.59799  -1.39353  -1.19290  -1.08788  -1.08685
 Alpha  occ. eigenvalues --   -1.04693  -1.03931  -0.96413  -0.95526  -0.87459
 Alpha  occ. eigenvalues --   -0.86076  -0.82363  -0.80017  -0.78556  -0.77405
 Alpha  occ. eigenvalues --   -0.71994  -0.71121  -0.70397  -0.65420  -0.64940
 Alpha  occ. eigenvalues --   -0.64702  -0.62076  -0.61310  -0.59798  -0.57990
 Alpha  occ. eigenvalues --   -0.55716  -0.55182  -0.53283  -0.53067  -0.52893
 Alpha  occ. eigenvalues --   -0.52508  -0.50344  -0.48755  -0.48751  -0.48294
 Alpha  occ. eigenvalues --   -0.47017  -0.46106  -0.46004  -0.44762  -0.44173
 Alpha  occ. eigenvalues --   -0.37263  -0.36266
 Alpha virt. eigenvalues --    0.05108   0.11323   0.16571   0.20842   0.22575
 Alpha virt. eigenvalues --    0.23961   0.25742   0.26482   0.27238   0.28107
 Alpha virt. eigenvalues --    0.28741   0.30377   0.31059   0.31385   0.32192

 Mulliken charges:
               1
     1  C   -0.173455
     2  C   -0.216266
     3  C   -0.172960
     4  C    0.158701
     5  C   -0.171523
     6  C   -0.218417
     7  H    0.225552
     8  H    0.229370
     9  H    0.274490
    10  H    0.275233
    11  H    0.223010
    12  N    0.488102
    13  O   -0.460622
    14  O   -0.460717
    15  C   -0.298959
    16  C   -0.299998
    17  C   -0.478948
    18  H    0.151063
    19  H    0.150937
    20  H    0.153616
    21  H    0.153537
    22  H    0.148792
    23  H    0.158681
    24  H    0.157357
    25  C   -0.298753
    26  C   -0.300285
    27  C   -0.476003
    28  H    0.149497
    29  H    0.150081
    30  H    0.152730
    31  H    0.154161
    32  H    0.155360
    33  H    0.154812
    34  H    0.161824
 Sum of Mulliken charges =  -0.00000

 Dipole moment (field-independent basis, Debye):
    X=             -1.1083    Y=              5.0248    Z=              0.9252  Tot=              5.2281
 Quadrupole moment (field-independent basis, Debye-Ang):
   XX=           -100.0049   YY=            -99.7582   ZZ=            -91.4141
   XY=             16.2039   XZ=              5.7243   YZ=             -0.1596

 Normal termination of Gaussian 16 at Thu May  6 09:14:54 2021.
