 Gaussian 16, Revision A.03,
 Gaussian 16:  EM64L-G16RevA.03 25-Dec-2016

 -------------
 #p 6-31g* mp2
 -------------

 ------------------------------------------------------
 Input file generated by CHIRIPA (05-May-2021 14:57:24)
 ------------------------------------------------------
 Symbolic Z-matrix:
 Charge =  0 Multiplicity = 1

                         Standard orientation:
 ---------------------------------------------------------------------
 Center     Atomic      Atomic             Coordinates (Angstroms)
 Number     Number       Type             X           Y           Z
 ---------------------------------------------------------------------
      1          6           0        2.836369    2.534247   -0.090989
      2          6           0        2.087715    1.722971    0.768003
      3          6           0        2.352364    0.353370    0.861296
      4          6           0        3.377546   -0.174069    0.077651
      5          6           0        4.141039    0.608115   -0.787541
      6          6           0        3.858840    1.975216   -0.864656
      7          1           0        2.623967    3.597215   -0.157177
      8          1           0        1.293053    2.154390    1.370029
      9          1           0        1.788302   -0.297733    1.518043
     10          1           0        4.926892    0.149269   -1.375174
     11          1           0        4.441881    2.602849   -1.532626
     12          7           0        3.667009   -1.622680    0.167852
     13          8           0        4.575519   -2.063051   -0.533090
     14          8           0        2.979898   -2.290301    0.937786
     15          6           0       -3.191042    2.445691    0.148633
     16          6           0       -2.024722    1.674470    0.186539
     17          6           0       -2.089689    0.282770    0.070352
     18          6           0       -3.343258   -0.307373   -0.083224
     19          6           0       -4.523222    0.433745   -0.124684
     20          6           0       -4.434378    1.823963   -0.006583
     21          1           0       -3.131300    3.526222    0.239632
     22          1           0       -1.057762    2.154603    0.306983
     23          1           0       -1.202585   -0.338345    0.096438
     24          1           0       -5.472709   -0.073429   -0.245792
     25          1           0       -5.341815    2.420381   -0.036364
     26          7           0       -3.424674   -1.779919   -0.207238
     27          8           0       -4.541251   -2.275729   -0.341658
     28          8           0       -2.370372   -2.410408   -0.167672
 ---------------------------------------------------------------------

 SCF Done:  E(RHF) =  -868.336224813     A.U. after   16 cycles
 E2 =    -0.2600649028D+01 EUMP2 =    -0.87093687384084D+03

 The electronic state is 1-A.
 Alpha  occ. eigenvalues --  -20.60988 -20.60968 -20.60843 -20.60823 -15.86047
 Alpha  occ. eigenvalues --  -15.85896 -11.31699 -11.31452 -11.28369 -11.28283
 Alpha  occ. eigenvalues --  -11.28150 -11.28075 -11.28035 -11.27868 -11.27503
 Alpha  occ. eigenvalues --  -11.27333 -11.27177 -11.27084  -1.60051  -1.59911
 Alpha  occ. eigenvalues --   -1.39596  -1.39457  -1.19920  -1.19656  -1.09261
 Alpha  occ. eigenvalues --   -1.09021  -1.05382  -1.05091  -0.96040  -0.95818
 Alpha  occ. eigenvalues --   -0.86772  -0.86479  -0.82887  -0.82642  -0.77891
 Alpha  occ. eigenvalues --   -0.77640  -0.72258  -0.72106  -0.71380  -0.71241
 Alpha  occ. eigenvalues --   -0.71021  -0.70769  -0.65575  -0.65535  -0.65310
 Alpha  occ. eigenvalues --   -0.65009  -0.62808  -0.62341  -0.55871  -0.55603
 Alpha  occ. eigenvalues --   -0.53679  -0.53569  -0.53404  -0.53082  -0.49042
 Alpha  occ. eigenvalues --   -0.48996  -0.48886  -0.48853  -0.44938  -0.44821
 Alpha  occ. eigenvalues --   -0.37908  -0.37653  -0.36988  -0.36704
 Alpha virt. eigenvalues --    0.04663   0.04886   0.10502   0.10931   0.15971
 Alpha virt. eigenvalues --    0.16304   0.19135   0.22028   0.25163   0.26428
 Alpha virt. eigenvalues --    0.28138   0.29090   0.29589   0.31401   0.31928

 Mulliken charges:
               1
     1  C   -0.170979
     2  C   -0.224822
     3  C   -0.174693
     4  C    0.160362
     5  C   -0.168644
     6  C   -0.217889
     7  H    0.224778
     8  H    0.218323
     9  H    0.278951
    10  H    0.278710
    11  H    0.225729
    12  N    0.488015
    13  O   -0.458595
    14  O   -0.455357
    15  C   -0.171226
    16  C   -0.221448
    17  C   -0.173162
    18  C    0.159350
    19  C   -0.170017
    20  C   -0.218328
    21  H    0.224003
    22  H    0.216774
    23  H    0.277033
    24  H    0.277170
    25  H    0.224256
    26  N    0.487570
    27  O   -0.459988
    28  O   -0.455875
 Sum of Mulliken charges =  -0.00000

 Dipole moment (field-independent basis, Debye):
    X=             -0.5783    Y=             10.0464    Z=              0.0314  Tot=             10.0631
 Quadrupole moment (field-independent basis, Debye-Ang):
   XX=           -104.9244   YY=           -111.0232   ZZ=           -103.9718
   XY=              0.0534   XZ=             -5.1808   YZ=             -0.7544

 Normal termination of Gaussian 16 at Fri May  7 12:35:56 2021.
