 Gaussian 16, Revision A.03,
 Gaussian 16:  EM64L-G16RevA.03 25-Dec-2016

 -------------
 #p 6-31g* mp2
 -------------

 ------------------------------------------------------
 Input file generated by CHIRIPA (05-May-2021 14:51:09)
 ------------------------------------------------------
 Symbolic Z-matrix:
 Charge =  0 Multiplicity = 1

                         Standard orientation:
 ---------------------------------------------------------------------
 Center     Atomic      Atomic             Coordinates (Angstroms)
 Number     Number       Type             X           Y           Z
 ---------------------------------------------------------------------
      1          6           0       -2.273275   -0.673321    0.603364
      2          6           0       -1.606821   -0.425341    1.957000
      3          6           0       -0.562306   -1.486363    2.304870
      4          1           0       -2.744718   -1.665611    0.610237
      5          1           0       -1.501380   -0.699407   -0.178232
      6          1           0       -2.379886   -0.398352    2.735626
      7          1           0       -1.137074    0.566553    1.946970
      8          1           0        0.229584   -1.509678    1.549246
      9          1           0       -1.020289   -2.480065    2.342383
     10          1           0       -0.098443   -1.289694    3.276473
     11          6           0       -3.319892    0.379018    0.241558
     12          6           0       -3.986346    0.131038   -1.112078
     13          6           0       -5.030861    1.192060   -1.459948
     14          1           0       -4.091787    0.405105    1.023154
     15          1           0       -2.848449    1.371308    0.234686
     16          1           0       -4.456093   -0.860855   -1.102048
     17          1           0       -3.213282    0.104050   -1.890704
     18          1           0       -4.572878    2.185763   -1.497461
     19          1           0       -5.822751    1.215376   -0.704324
     20          1           0       -5.494724    0.995392   -2.431551
     21          6           0        2.720618    0.890655   -0.580145
     22          6           0        3.205823    1.802310    0.547438
     23          6           0        3.047353    3.286744    0.217082
     24          1           0        3.277341    1.125002   -1.497798
     25          1           0        1.664634    1.109699   -0.790647
     26          1           0        4.260193    1.580651    0.756691
     27          1           0        2.648015    1.565633    1.462561
     28          1           0        1.996522    3.529466    0.028827
     29          1           0        3.617861    3.544569   -0.681054
     30          1           0        3.400322    3.920349    1.036728
     31          6           0        2.872549   -0.596352   -0.264777
     32          6           0        2.387345   -1.508008   -1.392360
     33          6           0        2.545814   -2.992443   -1.062004
     34          1           0        3.928534   -0.815397   -0.054275
     35          1           0        2.315827   -0.830701    0.652875
     36          1           0        2.945153   -1.271331   -2.307483
     37          1           0        1.332974   -1.286349   -1.601613
     38          1           0        1.975307   -3.250266   -0.163868
     39          1           0        3.596646   -3.235164   -0.873749
     40          1           0        2.192845   -3.626046   -1.881649
 ---------------------------------------------------------------------

 SCF Done:  E(RHF) =  -470.733341466     A.U. after   11 cycles
 E2 =    -0.1583419497D+01 EUMP2 =    -0.47231676096308D+03

 The electronic state is 1-A.
 Alpha  occ. eigenvalues --  -11.21680 -11.21640 -11.21635 -11.21627 -11.21470
 Alpha  occ. eigenvalues --  -11.21432 -11.21407 -11.21365 -11.21142 -11.21099
 Alpha  occ. eigenvalues --  -11.21099 -11.21071  -1.08500  -1.08453  -1.03595
 Alpha  occ. eigenvalues --   -1.03548  -0.96044  -0.95996  -0.87065  -0.87010
 Alpha  occ. eigenvalues --   -0.79665  -0.79604  -0.78309  -0.78268  -0.65287
 Alpha  occ. eigenvalues --   -0.64962  -0.61079  -0.60865  -0.59403  -0.59368
 Alpha  occ. eigenvalues --   -0.57646  -0.57610  -0.55418  -0.55210  -0.52731
 Alpha  occ. eigenvalues --   -0.52692  -0.52480  -0.52413  -0.50090  -0.49869
 Alpha  occ. eigenvalues --   -0.48036  -0.47886  -0.46764  -0.46600  -0.45946
 Alpha  occ. eigenvalues --   -0.45807  -0.45712  -0.45567  -0.43843  -0.43808
 Alpha virt. eigenvalues --    0.19171   0.23155   0.23724   0.24827   0.25340
 Alpha virt. eigenvalues --    0.26100   0.27174   0.27899   0.28812   0.29291
 Alpha virt. eigenvalues --    0.30523   0.31332   0.31667   0.31760   0.32092

 Mulliken charges:
               1
     1  C   -0.299809
     2  C   -0.299377
     3  C   -0.483992
     4  H    0.150173
     5  H    0.149952
     6  H    0.152552
     7  H    0.151601
     8  H    0.162250
     9  H    0.155862
    10  H    0.160565
    11  C   -0.298317
    12  C   -0.299727
    13  C   -0.475748
    14  H    0.149844
    15  H    0.149521
    16  H    0.152115
    17  H    0.151943
    18  H    0.155246
    19  H    0.155259
    20  H    0.160448
    21  C   -0.298006
    22  C   -0.299932
    23  C   -0.475650
    24  H    0.149903
    25  H    0.148581
    26  H    0.152209
    27  H    0.152272
    28  H    0.154795
    29  H    0.155284
    30  H    0.160433
    31  C   -0.305216
    32  C   -0.300899
    33  C   -0.477253
    34  H    0.150139
    35  H    0.155898
    36  H    0.152321
    37  H    0.152104
    38  H    0.156889
    39  H    0.155337
    40  H    0.160428
 Sum of Mulliken charges =  -0.00000

 Dipole moment (field-independent basis, Debye):
    X=             -0.0050    Y=             -0.0109    Z=              0.0120  Tot=              0.0169
 Quadrupole moment (field-independent basis, Debye-Ang):
   XX=            -83.8529   YY=            -86.1523   ZZ=            -84.5623
   XY=              1.0155   XZ=             -1.0352   YZ=              0.0967

 Normal termination of Gaussian 16 at Thu May  6 02:07:16 2021.
