 Gaussian 16, Revision A.03,
 Gaussian 16:  EM64L-G16RevA.03 25-Dec-2016

 -------------
 #p 6-31g* mp2
 -------------

 ------------------------------------------------------
 Input file generated by CHIRIPA (05-May-2021 14:57:24)
 ------------------------------------------------------
 Symbolic Z-matrix:
 Charge =  0 Multiplicity = 1

                         Standard orientation:
 ---------------------------------------------------------------------
 Center     Atomic      Atomic             Coordinates (Angstroms)
 Number     Number       Type             X           Y           Z
 ---------------------------------------------------------------------
      1          6           0       -0.771669    0.296221    1.781284
      2          6           0       -1.339488    1.368403    1.085203
      3          6           0       -2.447404    1.169609    0.256017
      4          6           0       -2.964262   -0.120340    0.145649
      5          6           0       -2.420878   -1.208857    0.826202
      6          6           0       -1.313222   -0.986725    1.649794
      7          1           0        0.088886    0.459714    2.423243
      8          1           0       -0.921011    2.365840    1.185412
      9          1           0       -2.906709    1.981765   -0.294309
     10          1           0       -2.860164   -2.191733    0.706196
     11          1           0       -0.874313   -1.821272    2.189180
     12          7           0       -4.137026   -0.343148   -0.729212
     13          8           0       -4.573697   -1.489234   -0.809465
     14          8           0       -4.597360    0.632521   -1.318109
     15          6           0        3.445271   -2.347686   -0.285937
     16          6           0        3.185570   -1.695227   -1.495638
     17          6           0        2.811234   -0.348297   -1.509774
     18          6           0        2.705788    0.318668   -0.290214
     19          6           0        2.957924   -0.303699    0.931415
     20          6           0        3.330821   -1.651066    0.921600
     21          1           0        3.735505   -3.394182   -0.284259
     22          1           0        3.273659   -2.233725   -2.434949
     23          1           0        2.604349    0.181250   -2.431836
     24          1           0        2.861746    0.259506    1.851724
     25          1           0        3.531897   -2.155213    1.862583
     26          7           0        2.310257    1.744834   -0.292501
     27          8           0        2.224422    2.310139    0.795479
     28          8           0        2.093564    2.270353   -1.382230
 ---------------------------------------------------------------------

 SCF Done:  E(RHF) =  -868.339319627     A.U. after   16 cycles
 E2 =    -0.2601251506D+01 EUMP2 =    -0.87094057113236D+03

 The electronic state is 1-A.
 Alpha  occ. eigenvalues --  -20.61772 -20.61699 -20.60501 -20.60483 -15.86754
 Alpha  occ. eigenvalues --  -15.85542 -11.31960 -11.30829 -11.28594 -11.28444
 Alpha  occ. eigenvalues --  -11.28195 -11.27535 -11.27433 -11.27425 -11.27287
 Alpha  occ. eigenvalues --  -11.27068 -11.26471 -11.26172  -1.60790  -1.59572
 Alpha  occ. eigenvalues --   -1.40355  -1.39127  -1.20112  -1.18981  -1.09530
 Alpha  occ. eigenvalues --   -1.08389  -1.05503  -1.04352  -0.96400  -0.95241
 Alpha  occ. eigenvalues --   -0.86907  -0.85746  -0.83244  -0.82064  -0.78322
 Alpha  occ. eigenvalues --   -0.77123  -0.72989  -0.72111  -0.71756  -0.71235
 Alpha  occ. eigenvalues --   -0.70894  -0.70070  -0.65774  -0.65502  -0.64618
 Alpha  occ. eigenvalues --   -0.64309  -0.62864  -0.61678  -0.55995  -0.54879
 Alpha  occ. eigenvalues --   -0.53826  -0.53582  -0.52696  -0.52411  -0.49760
 Alpha  occ. eigenvalues --   -0.49720  -0.48523  -0.48509  -0.45793  -0.44550
 Alpha  occ. eigenvalues --   -0.38104  -0.37251  -0.36755  -0.35954
 Alpha virt. eigenvalues --    0.04168   0.05358   0.10515   0.11672   0.15715
 Alpha virt. eigenvalues --    0.16911   0.20140   0.22046   0.25822   0.27105
 Alpha virt. eigenvalues --    0.27949   0.28958   0.30483   0.31086   0.32942

 Mulliken charges:
               1
     1  C   -0.175472
     2  C   -0.223886
     3  C   -0.170995
     4  C    0.157981
     5  C   -0.172948
     6  C   -0.217410
     7  H    0.225430
     8  H    0.241408
     9  H    0.277400
    10  H    0.272504
    11  H    0.217198
    12  N    0.488000
    13  O   -0.463203
    14  O   -0.459516
    15  C   -0.169974
    16  C   -0.217572
    17  C   -0.168878
    18  C    0.162968
    19  C   -0.175059
    20  C   -0.219918
    21  H    0.228238
    22  H    0.227388
    23  H    0.278649
    24  H    0.269540
    25  H    0.223105
    26  N    0.489658
    27  O   -0.470785
    28  O   -0.453851
 Sum of Mulliken charges =  -0.00000

 Dipole moment (field-independent basis, Debye):
    X=              5.7277    Y=             -4.1208    Z=              2.8343  Tot=              7.6040
 Quadrupole moment (field-independent basis, Debye-Ang):
   XX=           -123.4234   YY=           -103.8037   ZZ=            -99.3311
   XY=            -16.9193   XZ=             -9.1280   YZ=              0.1673

 Normal termination of Gaussian 16 at Thu May  6 19:38:24 2021.
