 Gaussian 16, Revision A.03,
 Gaussian 16:  EM64L-G16RevA.03 25-Dec-2016

 -------------
 #p 6-31g* mp2
 -------------

 ------------------------------------------------------
 Input file generated by CHIRIPA (05-May-2021 14:51:09)
 ------------------------------------------------------
 Symbolic Z-matrix:
 Charge =  0 Multiplicity = 1

                         Standard orientation:
 ---------------------------------------------------------------------
 Center     Atomic      Atomic             Coordinates (Angstroms)
 Number     Number       Type             X           Y           Z
 ---------------------------------------------------------------------
      1          6           0        2.871339    0.134313    0.427015
      2          6           0        1.967440   -1.049415    0.773048
      3          6           0        0.563454   -0.617025    1.196908
      4          1           0        2.938741    0.802459    1.296488
      5          1           0        2.406976    0.717606   -0.380160
      6          1           0        2.434035   -1.631085    1.578383
      7          1           0        1.902336   -1.714919   -0.097286
      8          1           0        0.074646   -0.055249    0.394365
      9          1           0        0.609367    0.029061    2.079555
     10          1           0       -0.065885   -1.478903    1.439720
     11          6           0        4.278244   -0.281876    0.001418
     12          6           0        5.182143    0.901852   -0.344616
     13          6           0        6.586129    0.469462   -0.768476
     14          1           0        4.742607   -0.865170    0.808593
     15          1           0        4.210842   -0.950022   -0.868055
     16          1           0        5.247247    1.567356    0.525719
     17          1           0        4.715548    1.483522   -1.149951
     18          1           0        6.540217   -0.176624   -1.651123
     19          1           0        7.074937   -0.092315    0.034067
     20          1           0        7.215468    1.331340   -1.011288
     21          6           0       -3.996883    0.686066   -0.039922
     22          6           0       -3.259669    2.009595   -0.246739
     23          6           0       -4.117147    3.225311    0.106193
     24          1           0       -4.909664    0.682678   -0.651283
     25          1           0       -4.321850    0.615141    1.007342
     26          1           0       -2.934982    2.077380   -1.292969
     27          1           0       -2.348437    2.009754    0.365039
     28          1           0       -4.429858    3.184889    1.154610
     29          1           0       -5.019735    3.252899   -0.512819
     30          1           0       -3.570612    4.160766   -0.048997
     31          6           0       -3.152701   -0.538503   -0.388511
     32          6           0       -3.889914   -1.862032   -0.181695
     33          6           0       -3.032436   -3.077748   -0.534625
     34          1           0       -2.827733   -0.467579   -1.435774
     35          1           0       -2.239919   -0.535115    0.222850
     36          1           0       -4.801147   -1.862191   -0.793471
     37          1           0       -4.214601   -1.929817    0.864537
     38          1           0       -2.129848   -3.105336    0.084387
     39          1           0       -2.719726   -3.037326   -1.583043
     40          1           0       -3.578972   -4.013202   -0.379435
 ---------------------------------------------------------------------

 SCF Done:  E(RHF) =  -470.732791025     A.U. after   11 cycles
 E2 =    -0.1583223969D+01 EUMP2 =    -0.47231601499394D+03

 The electronic state is 1-A.
 Alpha  occ. eigenvalues --  -11.21639 -11.21614 -11.21558 -11.21534 -11.21428
 Alpha  occ. eigenvalues --  -11.21368 -11.21310 -11.21201 -11.21131 -11.21081
 Alpha  occ. eigenvalues --  -11.21039 -11.21037  -1.08459  -1.08355  -1.03567
 Alpha  occ. eigenvalues --   -1.03474  -0.96031  -0.95916  -0.87060  -0.86930
 Alpha  occ. eigenvalues --   -0.79665  -0.79523  -0.78293  -0.78135  -0.65119
 Alpha  occ. eigenvalues --   -0.64969  -0.60985  -0.60867  -0.59420  -0.59255
 Alpha  occ. eigenvalues --   -0.57659  -0.57511  -0.55384  -0.55154  -0.52762
 Alpha  occ. eigenvalues --   -0.52623  -0.52483  -0.52303  -0.50045  -0.49812
 Alpha  occ. eigenvalues --   -0.47959  -0.47851  -0.46750  -0.46553  -0.45892
 Alpha  occ. eigenvalues --   -0.45762  -0.45673  -0.45388  -0.43772  -0.43711
 Alpha virt. eigenvalues --    0.21510   0.23008   0.23580   0.24410   0.25712
 Alpha virt. eigenvalues --    0.26527   0.26846   0.27249   0.27894   0.29507
 Alpha virt. eigenvalues --    0.29889   0.31506   0.31739   0.31924   0.32277

 Mulliken charges:
               1
     1  C   -0.298857
     2  C   -0.299580
     3  C   -0.482037
     4  H    0.149593
     5  H    0.150065
     6  H    0.151956
     7  H    0.152739
     8  H    0.160338
     9  H    0.155060
    10  H    0.161212
    11  C   -0.298352
    12  C   -0.299676
    13  C   -0.475725
    14  H    0.149572
    15  H    0.149814
    16  H    0.151936
    17  H    0.152007
    18  H    0.155235
    19  H    0.155197
    20  H    0.160303
    21  C   -0.297323
    22  C   -0.301112
    23  C   -0.475566
    24  H    0.149080
    25  H    0.149190
    26  H    0.151272
    27  H    0.153106
    28  H    0.155195
    29  H    0.155135
    30  H    0.160011
    31  C   -0.308977
    32  C   -0.298930
    33  C   -0.477198
    34  H    0.147619
    35  H    0.163786
    36  H    0.151485
    37  H    0.151445
    38  H    0.156010
    39  H    0.154946
    40  H    0.160027
 Sum of Mulliken charges =  -0.00000

 Dipole moment (field-independent basis, Debye):
    X=              0.0546    Y=              0.0046    Z=              0.0164  Tot=              0.0572
 Quadrupole moment (field-independent basis, Debye-Ang):
   XX=            -86.1461   YY=            -85.8582   ZZ=            -83.0562
   XY=              0.6208   XZ=              1.0111   YZ=             -0.2464

 Normal termination of Gaussian 16 at Wed May  5 16:36:46 2021.
