 Gaussian 16, Revision A.03,
 Gaussian 16:  EM64L-G16RevA.03 25-Dec-2016

 -------------
 #p 6-31g* mp2
 -------------

 ------------------------------------------------------
 Input file generated by CHIRIPA (05-May-2021 14:51:11)
 ------------------------------------------------------
 Symbolic Z-matrix:
 Charge =  0 Multiplicity = 1

                         Standard orientation:
 ---------------------------------------------------------------------
 Center     Atomic      Atomic             Coordinates (Angstroms)
 Number     Number       Type             X           Y           Z
 ---------------------------------------------------------------------
      1          6           0       -5.053501   -0.378796    0.221751
      2          6           0       -5.747486   -0.014075   -1.091013
      3          6           0       -7.268213   -0.152947   -1.014219
      4          1           0       -5.315656   -1.410508    0.493395
      5          1           0       -5.441249    0.263864    1.024269
      6          1           0       -5.357542   -0.656295   -1.891084
      7          1           0       -5.483495    1.016824   -1.359662
      8          1           0       -7.675862    0.500064   -0.235759
      9          1           0       -7.549194   -1.182561   -0.770200
     10          1           0       -7.744047    0.112702   -1.963361
     11          6           0       -3.532946   -0.244947    0.160728
     12          6           0       -2.838961   -0.609668    1.473492
     13          6           0       -1.318234   -0.470796    1.396698
     14          1           0       -3.145198   -0.887607   -0.641789
     15          1           0       -3.270790    0.786765   -0.110916
     16          1           0       -3.102952   -1.640567    1.742141
     17          1           0       -3.228904    0.032552    2.273563
     18          1           0       -1.037252    0.558818    1.152679
     19          1           0       -0.910584   -1.123807    0.618238
     20          1           0       -0.842400   -0.736445    2.345841
     21          6           0        3.581799    0.511561   -0.384713
     22          6           0        3.092549    1.774860    0.324298
     23          6           0        1.667657    2.161573   -0.073107
     24          1           0        3.531744    0.665870   -1.471280
     25          1           0        2.898259   -0.317516   -0.154932
     26          1           0        3.777582    2.600980    0.094364
     27          1           0        3.143955    1.617595    1.409304
     28          1           0        0.967434    1.356420    0.171882
     29          1           0        1.604661    2.345393   -1.150531
     30          1           0        1.338057    3.067303    0.445426
     31          6           0        5.004648    0.112182    0.002233
     32          6           0        5.493898   -1.151117   -0.706777
     33          6           0        6.918790   -1.537830   -0.309373
     34          1           0        5.688187    0.941259   -0.227548
     35          1           0        5.054703   -0.042127    1.088800
     36          1           0        5.442490   -0.993852   -1.791784
     37          1           0        4.808863   -1.977238   -0.476844
     38          1           0        6.981785   -1.721650    0.768051
     39          1           0        7.619012   -0.732678   -0.554362
     40          1           0        7.248389   -2.443560   -0.827906
 ---------------------------------------------------------------------

 SCF Done:  E(RHF) =  -470.733230924     A.U. after   11 cycles
 E2 =    -0.1582313175D+01 EUMP2 =    -0.47231554409854D+03

 The electronic state is 1-A.
 Alpha  occ. eigenvalues --  -11.21620 -11.21598 -11.21573 -11.21540 -11.21405
 Alpha  occ. eigenvalues --  -11.21359 -11.21346 -11.21298 -11.21098 -11.21068
 Alpha  occ. eigenvalues --  -11.21049 -11.20964  -1.08435  -1.08382  -1.03547
 Alpha  occ. eigenvalues --   -1.03476  -0.96013  -0.95914  -0.87051  -0.86916
 Alpha  occ. eigenvalues --   -0.79647  -0.79509  -0.78251  -0.78189  -0.65072
 Alpha  occ. eigenvalues --   -0.65007  -0.61000  -0.60832  -0.59359  -0.59300
 Alpha  occ. eigenvalues --   -0.57666  -0.57497  -0.55420  -0.55105  -0.52698
 Alpha  occ. eigenvalues --   -0.52636  -0.52536  -0.52240  -0.50084  -0.49721
 Alpha  occ. eigenvalues --   -0.48028  -0.47753  -0.46701  -0.46483  -0.45822
 Alpha  occ. eigenvalues --   -0.45722  -0.45705  -0.45598  -0.43795  -0.43739
 Alpha virt. eigenvalues --    0.22418   0.22944   0.23682   0.24649   0.26095
 Alpha virt. eigenvalues --    0.26543   0.27100   0.27608   0.27741   0.28953
 Alpha virt. eigenvalues --    0.30694   0.31340   0.31777   0.31785   0.32113

 Mulliken charges:
               1
     1  C   -0.298316
     2  C   -0.299677
     3  C   -0.475713
     4  H    0.149598
     5  H    0.149538
     6  H    0.151952
     7  H    0.152091
     8  H    0.155182
     9  H    0.155144
    10  H    0.160273
    11  C   -0.298477
    12  C   -0.299548
    13  C   -0.480911
    14  H    0.149573
    15  H    0.150178
    16  H    0.151901
    17  H    0.152079
    18  H    0.160653
    19  H    0.154898
    20  H    0.160170
    21  C   -0.298584
    22  C   -0.298852
    23  C   -0.483865
    24  H    0.149399
    25  H    0.150157
    26  H    0.151475
    27  H    0.151854
    28  H    0.164551
    29  H    0.154673
    30  H    0.159021
    31  C   -0.298272
    32  C   -0.299625
    33  C   -0.475674
    34  H    0.149391
    35  H    0.149620
    36  H    0.151842
    37  H    0.151900
    38  H    0.155146
    39  H    0.155130
    40  H    0.160126
 Sum of Mulliken charges =  -0.00000

 Dipole moment (field-independent basis, Debye):
    X=             -0.0314    Y=             -0.0093    Z=              0.0064  Tot=              0.0334
 Quadrupole moment (field-independent basis, Debye-Ang):
   XX=            -87.0250   YY=            -83.7521   ZZ=            -84.1572
   XY=              0.4365   XZ=             -0.5976   YZ=             -0.0539

 Normal termination of Gaussian 16 at Thu May  6 00:40:04 2021.
