 Gaussian 16, Revision A.03,
 Gaussian 16:  EM64L-G16RevA.03 25-Dec-2016

 -------------
 #p 6-31g* mp2
 -------------

 ------------------------------------------------------
 Input file generated by CHIRIPA (05-May-2021 14:51:12)
 ------------------------------------------------------
 Symbolic Z-matrix:
 Charge =  0 Multiplicity = 1

                         Standard orientation:
 ---------------------------------------------------------------------
 Center     Atomic      Atomic             Coordinates (Angstroms)
 Number     Number       Type             X           Y           Z
 ---------------------------------------------------------------------
      1          6           0        2.880135   -0.158702    0.076284
      2          6           0        2.722120    0.127008   -1.417498
      3          6           0        4.054959    0.111505   -2.166561
      4          1           0        3.558060    0.585739    0.515794
      5          1           0        3.363498   -1.136894    0.206273
      6          1           0        2.237945    1.103754   -1.544615
      7          1           0        2.044341   -0.618085   -1.853465
      8          1           0        4.540146   -0.865096   -2.069376
      9          1           0        4.734850    0.866526   -1.758771
     10          1           0        3.918735    0.318057   -3.232694
     11          6           0        1.556409   -0.146625    0.838735
     12          6           0        1.714423   -0.432335    2.332517
     13          6           0        0.381585   -0.416832    3.081580
     14          1           0        1.073046    0.831566    0.708746
     15          1           0        0.878483   -0.891066    0.399225
     16          1           0        2.392202    0.312758    2.768484
     17          1           0        2.198599   -1.409081    2.459634
     18          1           0       -0.298306   -1.171853    2.673791
     19          1           0       -0.103603    0.559769    2.984396
     20          1           0        0.517809   -0.623384    4.147713
     21          6           0       -2.632921   -0.457432   -0.655705
     22          6           0       -1.882510   -1.779634   -0.492460
     23          6           0       -2.725177   -2.990964   -0.892942
     24          1           0       -3.548583   -0.485546   -0.049308
     25          1           0       -2.953650   -0.352572   -1.701426
     26          1           0       -1.562090   -1.881324    0.552340
     27          1           0       -0.968430   -1.748296   -1.099166
     28          1           0       -3.033316   -2.916415   -1.940842
     29          1           0       -3.630349   -3.050199   -0.279952
     30          1           0       -2.169358   -3.925534   -0.768424
     31          6           0       -1.803622    0.762759   -0.259314
     32          6           0       -2.554034    2.084961   -0.422559
     33          6           0       -1.711367    3.296291   -0.022077
     34          1           0       -1.482894    0.657899    0.786407
     35          1           0       -0.887960    0.790874   -0.865712
     36          1           0       -3.468114    2.053623    0.184146
     37          1           0       -2.874453    2.186651   -1.467359
     38          1           0       -0.806195    3.355526   -0.635067
     39          1           0       -1.403227    3.221742    1.025822
     40          1           0       -2.267185    4.230861   -0.146596
 ---------------------------------------------------------------------

 SCF Done:  E(RHF) =  -470.730625185     A.U. after   11 cycles
 E2 =    -0.1586861791D+01 EUMP2 =    -0.47231748697632D+03

 The electronic state is 1-A.
 Alpha  occ. eigenvalues --  -11.21634 -11.21625 -11.21552 -11.21547 -11.21352
 Alpha  occ. eigenvalues --  -11.21311 -11.21184 -11.21130 -11.21111 -11.21104
 Alpha  occ. eigenvalues --  -11.21098 -11.21082  -1.08501  -1.08284  -1.03540
 Alpha  occ. eigenvalues --   -1.03526  -0.95991  -0.95952  -0.87008  -0.86982
 Alpha  occ. eigenvalues --   -0.79652  -0.79618  -0.78794  -0.77594  -0.65050
 Alpha  occ. eigenvalues --   -0.65021  -0.61065  -0.60823  -0.59356  -0.59332
 Alpha  occ. eigenvalues --   -0.57655  -0.57540  -0.55306  -0.55212  -0.52737
 Alpha  occ. eigenvalues --   -0.52658  -0.52469  -0.52362  -0.50013  -0.49836
 Alpha  occ. eigenvalues --   -0.48069  -0.48049  -0.46792  -0.46679  -0.46419
 Alpha  occ. eigenvalues --   -0.45599  -0.45492  -0.44597  -0.43761  -0.43715
 Alpha virt. eigenvalues --    0.20789   0.22074   0.22377   0.23706   0.25096
 Alpha virt. eigenvalues --    0.26381   0.26819   0.27674   0.28342   0.29725
 Alpha virt. eigenvalues --    0.31020   0.31389   0.31662   0.31754   0.32398

 Mulliken charges:
               1
     1  C   -0.297382
     2  C   -0.301116
     3  C   -0.475543
     4  H    0.149002
     5  H    0.148688
     6  H    0.151446
     7  H    0.151356
     8  H    0.155386
     9  H    0.155482
    10  H    0.159984
    11  C   -0.308691
    12  C   -0.298516
    13  C   -0.481604
    14  H    0.154241
    15  H    0.160048
    16  H    0.151413
    17  H    0.151210
    18  H    0.158077
    19  H    0.155280
    20  H    0.160716
    21  C   -0.296933
    22  C   -0.308007
    23  C   -0.474699
    24  H    0.149167
    25  H    0.149037
    26  H    0.156344
    27  H    0.153062
    28  H    0.155390
    29  H    0.155400
    30  H    0.159793
    31  C   -0.307298
    32  C   -0.299029
    33  C   -0.476611
    34  H    0.158629
    35  H    0.153960
    36  H    0.151405
    37  H    0.151382
    38  H    0.154600
    39  H    0.154190
    40  H    0.160743
 Sum of Mulliken charges =  -0.00000

 Dipole moment (field-independent basis, Debye):
    X=             -0.0164    Y=             -0.0114    Z=              0.0036  Tot=              0.0203
 Quadrupole moment (field-independent basis, Debye-Ang):
   XX=            -85.8401   YY=            -84.8117   ZZ=            -84.4613
   XY=             -0.3175   XZ=              0.1141   YZ=             -0.1206

 Normal termination of Gaussian 16 at Thu May  6 02:19:17 2021.
