 Gaussian 16, Revision A.03,
 Gaussian 16:  EM64L-G16RevA.03 25-Dec-2016

 -------------
 #p 6-31g* mp2
 -------------

 ------------------------------------------------------
 Input file generated by CHIRIPA (05-May-2021 14:55:24)
 ------------------------------------------------------
 Symbolic Z-matrix:
 Charge =  0 Multiplicity = 1

                         Standard orientation:
 ---------------------------------------------------------------------
 Center     Atomic      Atomic             Coordinates (Angstroms)
 Number     Number       Type             X           Y           Z
 ---------------------------------------------------------------------
      1          6           0       -1.813040    1.680379    1.478663
      2          6           0       -1.843941    1.750907    0.082027
      3          6           0       -2.522163    0.781631   -0.663002
      4          6           0       -3.161499   -0.249022    0.024234
      5          6           0       -3.148779   -0.346701    1.414769
      6          6           0       -2.464409    0.633646    2.139412
      7          1           0       -1.283793    2.437635    2.049501
      8          1           0       -1.338971    2.562682   -0.433793
      9          1           0       -2.562028    0.812045   -1.745086
     10          1           0       -3.661553   -1.167841    1.900783
     11          1           0       -2.442082    0.576338    3.223968
     12          7           0       -3.882756   -1.281010   -0.753704
     13          8           0       -4.438081   -2.178951   -0.124455
     14          8           0       -3.879096   -1.172401   -1.977970
     15          6           0        4.491672   -0.349690   -0.349194
     16          6           0        4.704695   -1.450432    0.690505
     17          6           0        5.902954   -2.343887    0.368468
     18          1           0        4.353059   -0.809338   -1.337352
     19          1           0        5.400745    0.264061   -0.414699
     20          1           0        3.794991   -2.061080    0.755023
     21          1           0        4.842626   -0.988118    1.676333
     22          1           0        6.823361   -1.752722    0.324021
     23          1           0        5.769773   -2.831781   -0.602523
     24          1           0        6.036869   -3.123831    1.124519
     25          6           0        3.297453    0.551770   -0.041072
     26          6           0        3.084430    1.652511   -1.080771
     27          6           0        1.886171    2.545966   -0.758735
     28          1           0        2.388380   -0.061982    0.024432
     29          1           0        3.436066    1.011418    0.947085
     30          1           0        2.946499    1.190197   -2.066600
     31          1           0        3.994134    2.263160   -1.145290
     32          1           0        2.019352    3.033860    0.212256
     33          1           0        0.965764    1.954802   -0.714287
     34          1           0        1.752257    3.325911   -1.514786
 ---------------------------------------------------------------------

 SCF Done:  E(RHF) =  -669.535291488     A.U. after   15 cycles
 E2 =    -0.2091542088D+01 EUMP2 =    -0.67162683357566D+03

 The electronic state is 1-A.
 Alpha  occ. eigenvalues --  -20.60777 -20.60772 -15.85830 -11.31199 -11.27771
 Alpha  occ. eigenvalues --  -11.27764 -11.27498 -11.26778 -11.26731 -11.22152
 Alpha  occ. eigenvalues --  -11.21857 -11.21856 -11.21815 -11.21681 -11.21260
 Alpha  occ. eigenvalues --   -1.59852  -1.39406  -1.19374  -1.08832  -1.08760
 Alpha  occ. eigenvalues --   -1.04780  -1.03963  -0.96438  -0.95596  -0.87475
 Alpha  occ. eigenvalues --   -0.86164  -0.82430  -0.80044  -0.78621  -0.77477
 Alpha  occ. eigenvalues --   -0.72048  -0.71176  -0.70467  -0.65469  -0.65020
 Alpha  occ. eigenvalues --   -0.64785  -0.62159  -0.61336  -0.59809  -0.58030
 Alpha  occ. eigenvalues --   -0.55760  -0.55247  -0.53248  -0.53132  -0.52944
 Alpha  occ. eigenvalues --   -0.52649  -0.50353  -0.48809  -0.48803  -0.48340
 Alpha  occ. eigenvalues --   -0.47047  -0.46172  -0.46070  -0.44811  -0.44208
 Alpha  occ. eigenvalues --   -0.37333  -0.36356
 Alpha virt. eigenvalues --    0.05052   0.11172   0.16492   0.21032   0.22541
 Alpha virt. eigenvalues --    0.23995   0.26165   0.26319   0.27214   0.28024
 Alpha virt. eigenvalues --    0.28759   0.30300   0.31241   0.31465   0.31835

 Mulliken charges:
               1
     1  C   -0.171454
     2  C   -0.219137
     3  C   -0.173436
     4  C    0.158564
     5  C   -0.170770
     6  C   -0.218607
     7  H    0.226488
     8  H    0.228956
     9  H    0.275815
    10  H    0.275648
    11  H    0.223530
    12  N    0.488087
    13  O   -0.460429
    14  O   -0.460435
    15  C   -0.298780
    16  C   -0.300056
    17  C   -0.475977
    18  H    0.151521
    19  H    0.149782
    20  H    0.153212
    21  H    0.150951
    22  H    0.155163
    23  H    0.156483
    24  H    0.161047
    25  C   -0.299217
    26  C   -0.298832
    27  C   -0.484603
    28  H    0.151964
    29  H    0.147745
    30  H    0.154742
    31  H    0.153580
    32  H    0.152159
    33  H    0.156495
    34  H    0.159799
 Sum of Mulliken charges =  -0.00000

 Dipole moment (field-independent basis, Debye):
    X=              2.6076    Y=              3.5821    Z=              2.7458  Tot=              5.2125
 Quadrupole moment (field-independent basis, Debye-Ang):
   XX=           -111.3555   YY=            -96.3560   ZZ=            -90.8557
   XY=            -10.7328   XZ=             -9.6495   YZ=             -2.5230

 Normal termination of Gaussian 16 at Thu May  6 01:35:50 2021.
