 Gaussian 16, Revision A.03,
 Gaussian 16:  EM64L-G16RevA.03 25-Dec-2016

 -------------
 #p 6-31g* mp2
 -------------

 ------------------------------------------------------
 Input file generated by CHIRIPA (05-May-2021 14:51:10)
 ------------------------------------------------------
 Symbolic Z-matrix:
 Charge =  0 Multiplicity = 1

                         Standard orientation:
 ---------------------------------------------------------------------
 Center     Atomic      Atomic             Coordinates (Angstroms)
 Number     Number       Type             X           Y           Z
 ---------------------------------------------------------------------
      1          6           0        4.636711    0.724987    0.096771
      2          6           0        6.145020    0.902478   -0.080674
      3          6           0        6.599266    2.346950    0.131353
      4          1           0        4.111005    1.383419   -0.608244
      5          1           0        4.351761    1.055677    1.105157
      6          1           0        6.427249    0.570257   -1.087944
      7          1           0        6.667198    0.243406    0.624713
      8          1           0        6.346064    2.686145    1.141025
      9          1           0        6.104752    3.014852   -0.581363
     10          1           0        7.680782    2.451121   -0.000290
     11          6           0        4.167302   -0.713688   -0.112025
     12          6           0        2.658993   -0.891178    0.065420
     13          6           0        2.204747   -2.335650   -0.146607
     14          1           0        4.452252   -1.044377   -1.120411
     15          1           0        4.693008   -1.372119    0.592990
     16          1           0        2.136815   -0.232107   -0.639967
     17          1           0        2.376764   -0.558957    1.072690
     18          1           0        2.699261   -3.003552    0.566109
     19          1           0        2.457949   -2.674845   -1.156279
     20          1           0        1.123231   -2.439821   -0.014964
     21          6           0       -4.702108    0.638198   -0.273141
     22          6           0       -6.034194    1.018823    0.373896
     23          6           0       -6.622023    2.309098   -0.198326
     24          1           0       -3.986969    1.460875   -0.136309
     25          1           0       -4.847225    0.527156   -1.356656
     26          1           0       -5.886906    1.127761    1.456049
     27          1           0       -6.746187    0.195064    0.235674
     28          1           0       -6.797399    2.208524   -1.274304
     29          1           0       -5.933236    3.146519   -0.046995
     30          1           0       -7.574082    2.562501    0.278362
     31          6           0       -4.101905   -0.649498    0.288395
     32          6           0       -2.769819   -1.030122   -0.358643
     33          6           0       -2.181990   -2.320398    0.213580
     34          1           0       -3.956789   -0.538455    1.371911
     35          1           0       -4.817044   -1.472175    0.151562
     36          1           0       -2.057826   -0.206364   -0.220420
     37          1           0       -2.917107   -1.139059   -1.440795
     38          1           0       -2.870777   -3.157819    0.062249
     39          1           0       -2.006615   -2.219823    1.289558
     40          1           0       -1.229932   -2.573800   -0.263108
 ---------------------------------------------------------------------

 SCF Done:  E(RHF) =  -470.733317896     A.U. after   11 cycles
 E2 =    -0.1582175249D+01 EUMP2 =    -0.47231549314505D+03

 The electronic state is 1-A.
 Alpha  occ. eigenvalues --  -11.21612 -11.21604 -11.21599 -11.21591 -11.21410
 Alpha  occ. eigenvalues --  -11.21399 -11.21351 -11.21339 -11.21085 -11.21073
 Alpha  occ. eigenvalues --  -11.21070 -11.21032  -1.08437  -1.08421  -1.03548
 Alpha  occ. eigenvalues --   -1.03511  -0.96018  -0.95944  -0.87052  -0.86946
 Alpha  occ. eigenvalues --   -0.79622  -0.79562  -0.78248  -0.78234  -0.65065
 Alpha  occ. eigenvalues --   -0.65052  -0.60936  -0.60916  -0.59629  -0.59148
 Alpha  occ. eigenvalues --   -0.57734  -0.57435  -0.55274  -0.55254  -0.52983
 Alpha  occ. eigenvalues --   -0.52520  -0.52447  -0.52196  -0.49927  -0.49909
 Alpha  occ. eigenvalues --   -0.47982  -0.47831  -0.46632  -0.46616  -0.45794
 Alpha  occ. eigenvalues --   -0.45774  -0.45714  -0.45702  -0.43949  -0.43598
 Alpha virt. eigenvalues --    0.21847   0.23020   0.23424   0.25039   0.26589
 Alpha virt. eigenvalues --    0.26690   0.26866   0.27432   0.27626   0.28769
 Alpha virt. eigenvalues --    0.30145   0.31337   0.31457   0.31800   0.32044

 Mulliken charges:
               1
     1  C   -0.298229
     2  C   -0.299638
     3  C   -0.475699
     4  H    0.149598
     5  H    0.149427
     6  H    0.151944
     7  H    0.151951
     8  H    0.155141
     9  H    0.155161
    10  H    0.160253
    11  C   -0.298433
    12  C   -0.298865
    13  C   -0.483800
    14  H    0.149520
    15  H    0.149682
    16  H    0.151765
    17  H    0.151761
    18  H    0.155346
    19  H    0.154850
    20  H    0.167754
    21  C   -0.298287
    22  C   -0.299658
    23  C   -0.475712
    24  H    0.149712
    25  H    0.149519
    26  H    0.151947
    27  H    0.151954
    28  H    0.155177
    29  H    0.155195
    30  H    0.160267
    31  C   -0.298482
    32  C   -0.299458
    33  C   -0.482380
    34  H    0.149571
    35  H    0.149721
    36  H    0.152362
    37  H    0.151941
    38  H    0.155635
    39  H    0.155261
    40  H    0.166225
 Sum of Mulliken charges =  -0.00000

 Dipole moment (field-independent basis, Debye):
    X=             -0.0165    Y=             -0.0039    Z=              0.0011  Tot=              0.0170
 Quadrupole moment (field-independent basis, Debye-Ang):
   XX=            -85.0976   YY=            -86.2932   ZZ=            -83.3801
   XY=              0.2967   XZ=              0.2903   YZ=              0.3605

 Normal termination of Gaussian 16 at Wed May  5 19:46:39 2021.
