 Gaussian 16, Revision A.03,
 Gaussian 16:  EM64L-G16RevA.03 25-Dec-2016

 -------------
 #p 6-31g* mp2
 -------------

 ------------------------------------------------------
 Input file generated by CHIRIPA (05-May-2021 14:51:13)
 ------------------------------------------------------
 Symbolic Z-matrix:
 Charge =  0 Multiplicity = 1

                         Standard orientation:
 ---------------------------------------------------------------------
 Center     Atomic      Atomic             Coordinates (Angstroms)
 Number     Number       Type             X           Y           Z
 ---------------------------------------------------------------------
      1          6           0       -3.555325   -0.567191   -0.128055
      2          6           0       -4.887786   -1.286383   -0.340881
      3          6           0       -4.826848   -2.767261    0.034727
      4          1           0       -2.777654   -1.066009   -0.722490
      5          1           0       -3.256558   -0.667434    0.924601
      6          1           0       -5.184635   -1.183633   -1.392517
      7          1           0       -5.662415   -0.785678    0.253981
      8          1           0       -4.554881   -2.886546    1.088485
      9          1           0       -4.074386   -3.286762   -0.567369
     10          1           0       -5.789950   -3.261957   -0.125178
     11          6           0       -3.600347    0.914027   -0.499127
     12          6           0       -2.267886    1.633219   -0.286301
     13          6           0       -2.328823    3.114097   -0.661909
     14          1           0       -3.899113    1.014270   -1.551783
     15          1           0       -4.378018    1.412845    0.095309
     16          1           0       -1.493257    1.132514   -0.881163
     17          1           0       -1.971037    1.530469    0.765336
     18          1           0       -3.081286    3.633598   -0.059813
     19          1           0       -2.600791    3.233382   -1.715667
     20          1           0       -1.365721    3.608793   -0.502003
     21          6           0        4.335723   -0.116563    0.237390
     22          6           0        4.866844   -0.764515   -1.041693
     23          6           0        6.384679   -0.642563   -1.179890
     24          1           0        4.622461    0.943892    0.249999
     25          1           0        4.822471   -0.582312    1.105463
     26          1           0        4.378218   -0.298636   -1.907036
     27          1           0        4.578643   -1.823506   -1.051351
     28          1           0        6.888313   -1.123911   -0.335344
     29          1           0        6.686749    0.409624   -1.195891
     30          1           0        6.742967   -1.112436   -2.101145
     31          6           0        2.819948   -0.230273    0.389792
     32          6           0        2.288829    0.417679    1.668875
     33          6           0        0.770993    0.295728    1.807071
     34          1           0        2.333201    0.235476   -0.478281
     35          1           0        2.533211   -1.290729    0.377183
     36          1           0        2.577028    1.476670    1.678532
     37          1           0        2.777454   -0.048201    2.534217
     38          1           0        0.468922   -0.756460    1.823072
     39          1           0        0.267358    0.777075    0.962525
     40          1           0        0.412705    0.765599    2.728326
 ---------------------------------------------------------------------

 SCF Done:  E(RHF) =  -470.732639540     A.U. after   11 cycles
 E2 =    -0.1582995540D+01 EUMP2 =    -0.47231563508008D+03

 The electronic state is 1-A.
 Alpha  occ. eigenvalues --  -11.21592 -11.21581 -11.21564 -11.21541 -11.21382
 Alpha  occ. eigenvalues --  -11.21379 -11.21323 -11.21318 -11.21082 -11.21063
 Alpha  occ. eigenvalues --  -11.21055 -11.20915  -1.08424  -1.08390  -1.03547
 Alpha  occ. eigenvalues --   -1.03466  -0.95981  -0.95928  -0.87021  -0.86927
 Alpha  occ. eigenvalues --   -0.79722  -0.79450  -0.78288  -0.78145  -0.65050
 Alpha  occ. eigenvalues --   -0.65026  -0.60952  -0.60876  -0.59357  -0.59306
 Alpha  occ. eigenvalues --   -0.57644  -0.57501  -0.55270  -0.55207  -0.52700
 Alpha  occ. eigenvalues --   -0.52625  -0.52443  -0.52311  -0.49967  -0.49873
 Alpha  occ. eigenvalues --   -0.48113  -0.47674  -0.46663  -0.46543  -0.45891
 Alpha  occ. eigenvalues --   -0.45717  -0.45689  -0.45433  -0.43771  -0.43739
 Alpha virt. eigenvalues --    0.22245   0.23009   0.23709   0.24781   0.26065
 Alpha virt. eigenvalues --    0.26248   0.26954   0.27672   0.27867   0.29211
 Alpha virt. eigenvalues --    0.30572   0.31040   0.31586   0.31829   0.32336

 Mulliken charges:
               1
     1  C   -0.298621
     2  C   -0.299605
     3  C   -0.475674
     4  H    0.149701
     5  H    0.150381
     6  H    0.151805
     7  H    0.151852
     8  H    0.155212
     9  H    0.155118
    10  H    0.160152
    11  C   -0.297502
    12  C   -0.305330
    13  C   -0.475924
    14  H    0.149157
    15  H    0.149497
    16  H    0.151593
    17  H    0.158778
    18  H    0.155393
    19  H    0.155148
    20  H    0.159772
    21  C   -0.298216
    22  C   -0.299618
    23  C   -0.475683
    24  H    0.149564
    25  H    0.149566
    26  H    0.151763
    27  H    0.151886
    28  H    0.155192
    29  H    0.155161
    30  H    0.160177
    31  C   -0.298234
    32  C   -0.299513
    33  C   -0.483172
    34  H    0.148975
    35  H    0.149583
    36  H    0.151350
    37  H    0.151333
    38  H    0.154664
    39  H    0.166086
    40  H    0.158235
 Sum of Mulliken charges =  -0.00000

 Dipole moment (field-independent basis, Debye):
    X=             -0.0351    Y=              0.0073    Z=             -0.0036  Tot=              0.0360
 Quadrupole moment (field-independent basis, Debye-Ang):
   XX=            -86.0097   YY=            -85.1465   ZZ=            -83.8163
   XY=             -0.3215   XZ=             -0.0143   YZ=              0.0497

 Normal termination of Gaussian 16 at Wed May  5 18:23:21 2021.
