 Gaussian 16, Revision A.03,
 Gaussian 16:  EM64L-G16RevA.03 25-Dec-2016

 -------------
 #p 6-31g* mp2
 -------------

 ------------------------------------------------------
 Input file generated by CHIRIPA (05-May-2021 14:51:09)
 ------------------------------------------------------
 Symbolic Z-matrix:
 Charge =  0 Multiplicity = 1

                         Standard orientation:
 ---------------------------------------------------------------------
 Center     Atomic      Atomic             Coordinates (Angstroms)
 Number     Number       Type             X           Y           Z
 ---------------------------------------------------------------------
      1          6           0       -4.494762   -0.350427   -0.420964
      2          6           0       -5.764767   -0.623326    0.385633
      3          6           0       -6.552555   -1.823603   -0.140219
      4          1           0       -4.764993   -0.181354   -1.472313
      5          1           0       -3.857384   -1.245295   -0.402080
      6          1           0       -6.398929    0.272266    0.366385
      7          1           0       -5.491500   -0.791580    1.435219
      8          1           0       -5.941014   -2.731016   -0.105300
      9          1           0       -6.853599   -1.661126   -1.180207
     10          1           0       -7.456469   -2.000717    0.450908
     11          6           0       -3.696414    0.846499    0.092588
     12          6           0       -2.426409    1.119398   -0.714009
     13          6           0       -1.638621    2.319674   -0.188157
     14          1           0       -4.333792    1.741367    0.073704
     15          1           0       -3.426184    0.677426    1.143937
     16          1           0       -2.699676    1.287651   -1.763595
     17          1           0       -1.792248    0.223806   -0.694761
     18          1           0       -1.337577    2.157197    0.851831
     19          1           0       -2.250162    3.227088   -0.223076
     20          1           0       -0.734707    2.496788   -0.779284
     21          6           0        4.818601   -0.014723    0.243242
     22          6           0        5.813413   -0.833388   -0.580240
     23          6           0        7.255665   -0.354578   -0.411583
     24          1           0        4.892266    1.041743   -0.048991
     25          1           0        5.101332   -0.066106    1.303816
     26          1           0        5.528086   -0.781608   -1.638788
     27          1           0        5.737236   -1.888055   -0.286149
     28          1           0        7.564033   -0.422504    0.636699
     29          1           0        7.353696    0.690228   -0.723625
     30          1           0        7.950012   -0.953637   -1.008970
     31          6           0        3.372575   -0.481349    0.085134
     32          6           0        2.377763    0.337316    0.908616
     33          6           0        0.935511   -0.141493    0.739959
     34          1           0        3.089844   -0.429966   -0.975440
     35          1           0        3.298910   -1.537814    0.377367
     36          1           0        2.453941    1.391983    0.614525
     37          1           0        2.663090    0.285536    1.967164
     38          1           0        0.837481   -1.186300    1.052001
     39          1           0        0.627143   -0.073567   -0.308324
     40          1           0        0.241165    0.457565    1.337346
 ---------------------------------------------------------------------

 SCF Done:  E(RHF) =  -470.732089318     A.U. after   11 cycles
 E2 =    -0.1583485100D+01 EUMP2 =    -0.47231557441751D+03

 The electronic state is 1-A.
 Alpha  occ. eigenvalues --  -11.21603 -11.21593 -11.21568 -11.21491 -11.21406
 Alpha  occ. eigenvalues --  -11.21355 -11.21346 -11.21294 -11.21072 -11.21045
 Alpha  occ. eigenvalues --  -11.21022 -11.20997  -1.08437  -1.08371  -1.03581
 Alpha  occ. eigenvalues --   -1.03430  -0.96071  -0.95848  -0.87057  -0.86898
 Alpha  occ. eigenvalues --   -0.79615  -0.79532  -0.78255  -0.78181  -0.65115
 Alpha  occ. eigenvalues --   -0.64977  -0.61153  -0.60772  -0.59341  -0.59270
 Alpha  occ. eigenvalues --   -0.57667  -0.57502  -0.55446  -0.55042  -0.52670
 Alpha  occ. eigenvalues --   -0.52588  -0.52457  -0.52307  -0.49919  -0.49845
 Alpha  occ. eigenvalues --   -0.47938  -0.47859  -0.46702  -0.46472  -0.45824
 Alpha  occ. eigenvalues --   -0.45738  -0.45716  -0.45543  -0.43771  -0.43716
 Alpha virt. eigenvalues --    0.21551   0.22981   0.23559   0.25216   0.26152
 Alpha virt. eigenvalues --    0.26373   0.26788   0.27570   0.27826   0.29185
 Alpha virt. eigenvalues --    0.29676   0.30788   0.31327   0.32213   0.32477

 Mulliken charges:
               1
     1  C   -0.298354
     2  C   -0.299608
     3  C   -0.475682
     4  H    0.149444
     5  H    0.149780
     6  H    0.151815
     7  H    0.151890
     8  H    0.155166
     9  H    0.155095
    10  H    0.160119
    11  C   -0.297797
    12  C   -0.305301
    13  C   -0.475114
    14  H    0.149185
    15  H    0.149151
    16  H    0.151153
    17  H    0.158708
    18  H    0.155760
    19  H    0.154510
    20  H    0.159584
    21  C   -0.298255
    22  C   -0.299639
    23  C   -0.475703
    24  H    0.149679
    25  H    0.149535
    26  H    0.151907
    27  H    0.151907
    28  H    0.155183
    29  H    0.155199
    30  H    0.160249
    31  C   -0.298592
    32  C   -0.300267
    33  C   -0.478812
    34  H    0.149473
    35  H    0.149576
    36  H    0.152402
    37  H    0.151618
    38  H    0.153737
    39  H    0.157507
    40  H    0.163795
 Sum of Mulliken charges =  -0.00000

 Dipole moment (field-independent basis, Debye):
    X=              0.0185    Y=             -0.0058    Z=              0.0016  Tot=              0.0194
 Quadrupole moment (field-independent basis, Debye-Ang):
   XX=            -86.3507   YY=            -84.8379   ZZ=            -83.8626
   XY=             -1.1565   XZ=              0.2083   YZ=             -1.1083

 Normal termination of Gaussian 16 at Wed May  5 21:23:05 2021.
