 Gaussian 16, Revision A.03,
 Gaussian 16:  EM64L-G16RevA.03 25-Dec-2016

 -------------
 #p 6-31g* mp2
 -------------

 ------------------------------------------------------
 Input file generated by CHIRIPA (05-May-2021 14:53:11)
 ------------------------------------------------------
 Symbolic Z-matrix:
 Charge =  0 Multiplicity = 1

                         Standard orientation:
 ---------------------------------------------------------------------
 Center     Atomic      Atomic             Coordinates (Angstroms)
 Number     Number       Type             X           Y           Z
 ---------------------------------------------------------------------
      1          6           0       -3.272123   -0.669803   -0.196157
      2          6           0       -3.226813   -1.391550    1.151068
      3          6           0       -3.672994   -2.850841    1.055224
      4          1           0       -4.294376   -0.716666   -0.595841
      5          1           0       -2.631855   -1.203698   -0.911984
      6          1           0       -3.865889   -0.855663    1.864527
      7          1           0       -2.204591   -1.342798    1.547682
      8          1           0       -3.029857   -3.405753    0.364537
      9          1           0       -4.700593   -2.915850    0.683183
     10          1           0       -3.632870   -3.347740    2.029565
     11          6           0       -2.828903    0.789975   -0.116592
     12          6           0       -2.874213    1.511722   -1.463816
     13          6           0       -2.428032    2.971013   -1.367972
     14          1           0       -3.469171    1.323870    0.599236
     15          1           0       -1.806650    0.836838    0.283093
     16          1           0       -3.896434    1.462970   -1.860430
     17          1           0       -2.235137    0.975835   -2.177275
     18          1           0       -1.400432    3.036022   -0.995931
     19          1           0       -3.071169    3.525925   -0.677286
     20          1           0       -2.468156    3.467912   -2.342314
     21          6           0        3.049422   -1.488532   -1.838421
     22          6           0        4.030456   -0.958760   -0.993770
     23          6           0        3.672872   -0.158710    0.095543
     24          6           0        2.318807    0.092425    0.311710
     25          6           0        1.318035   -0.420921   -0.511833
     26          6           0        1.698724   -1.218397   -1.595186
     27          1           0        3.336176   -2.109030   -2.682311
     28          1           0        5.080195   -1.166883   -1.180249
     29          1           0        4.411757    0.264197    0.765331
     30          1           0        0.279721   -0.195904   -0.300432
     31          1           0        0.934682   -1.628486   -2.249488
     32          7           0        1.928018    0.938040    1.461762
     33          8           0        0.728230    1.144476    1.630669
     34          8           0        2.828906    1.378386    2.172489
 ---------------------------------------------------------------------

 SCF Done:  E(RHF) =  -669.535732906     A.U. after   15 cycles
 E2 =    -0.2092694202D+01 EUMP2 =    -0.67162842710771D+03

 The electronic state is 1-A.
 Alpha  occ. eigenvalues --  -20.60934 -20.60924 -15.85967 -11.31282 -11.27844
 Alpha  occ. eigenvalues --  -11.27835 -11.27580 -11.26854 -11.26844 -11.21537
 Alpha  occ. eigenvalues --  -11.21480 -11.21407 -11.21093 -11.21050 -11.20803
 Alpha  occ. eigenvalues --   -1.59996  -1.39553  -1.19452  -1.08857  -1.08344
 Alpha  occ. eigenvalues --   -1.04849  -1.03418  -0.95868  -0.95696  -0.86873
 Alpha  occ. eigenvalues --   -0.86252  -0.82535  -0.79475  -0.78153  -0.77565
 Alpha  occ. eigenvalues --   -0.72193  -0.71309  -0.70572  -0.65179  -0.65099
 Alpha  occ. eigenvalues --   -0.64724  -0.62180  -0.60826  -0.59222  -0.57458
 Alpha  occ. eigenvalues --   -0.55382  -0.55138  -0.53179  -0.52942  -0.52553
 Alpha  occ. eigenvalues --   -0.52258  -0.49812  -0.48971  -0.48937  -0.47779
 Alpha  occ. eigenvalues --   -0.46526  -0.45679  -0.45526  -0.44955  -0.43674
 Alpha  occ. eigenvalues --   -0.37431  -0.36448
 Alpha virt. eigenvalues --    0.04926   0.11185   0.16438   0.19170   0.22956
 Alpha virt. eigenvalues --    0.24405   0.25830   0.26599   0.27821   0.28110
 Alpha virt. eigenvalues --    0.30158   0.31236   0.31502   0.31951   0.32081

 Mulliken charges:
               1
     1  C   -0.297817
     2  C   -0.301020
     3  C   -0.475175
     4  H    0.150308
     5  H    0.136792
     6  H    0.155710
     7  H    0.156840
     8  H    0.150620
     9  H    0.154816
    10  H    0.161837
    11  C   -0.317256
    12  C   -0.298619
    13  C   -0.476143
    14  H    0.154947
    15  H    0.172225
    16  H    0.151484
    17  H    0.141673
    18  H    0.161166
    19  H    0.157851
    20  H    0.157422
    21  C   -0.170139
    22  C   -0.219040
    23  C   -0.169689
    24  C    0.154972
    25  C   -0.174574
    26  C   -0.222656
    27  H    0.226107
    28  H    0.223851
    29  H    0.275846
    30  H    0.288159
    31  H    0.224465
    32  N    0.491102
    33  O   -0.467198
    34  O   -0.458865
 Sum of Mulliken charges =  -0.00000

 Dipole moment (field-independent basis, Debye):
    X=              1.4495    Y=             -2.8632    Z=             -3.8647  Tot=              5.0234
 Quadrupole moment (field-independent basis, Debye-Ang):
   XX=            -82.6607   YY=            -97.1008   ZZ=            -97.7322
   XY=             -7.2046   XZ=             -8.4100   YZ=             -0.7812

 Normal termination of Gaussian 16 at Wed May  5 16:57:03 2021.
