 Gaussian 16, Revision A.03,
 Gaussian 16:  EM64L-G16RevA.03 25-Dec-2016

 -------------
 #p 6-31g* mp2
 -------------

 ------------------------------------------------------
 Input file generated by CHIRIPA (05-May-2021 14:51:09)
 ------------------------------------------------------
 Symbolic Z-matrix:
 Charge =  0 Multiplicity = 1

                         Standard orientation:
 ---------------------------------------------------------------------
 Center     Atomic      Atomic             Coordinates (Angstroms)
 Number     Number       Type             X           Y           Z
 ---------------------------------------------------------------------
      1          6           0        4.434892   -0.647697    0.333178
      2          6           0        5.584793   -1.167349   -0.530346
      3          6           0        6.142593   -2.500825   -0.031854
      4          1           0        4.783796   -0.536596    1.368971
      5          1           0        3.632125   -1.397755    0.352516
      6          1           0        6.384573   -0.415942   -0.549176
      7          1           0        5.233164   -1.277044   -1.564242
      8          1           0        5.361846   -3.268308   -0.029647
      9          1           0        6.519798   -2.402314    0.991187
     10          1           0        6.963606   -2.853894   -0.663630
     11          6           0        3.866683    0.684589   -0.152498
     12          6           0        2.716782    1.204241    0.711026
     13          6           0        2.158982    2.537717    0.212534
     14          1           0        4.669450    1.434646   -0.171836
     15          1           0        3.517778    0.573488   -1.188291
     16          1           0        3.068411    1.313936    1.744921
     17          1           0        1.917001    0.452834    0.729855
     18          1           0        1.781777    2.439206   -0.810507
     19          1           0        2.939729    3.305200    0.210326
     20          1           0        1.337969    2.890785    0.844310
     21          6           0       -3.835209    0.674002   -0.156357
     22          6           0       -2.310497    0.637587   -0.265511
     23          6           0       -1.693810    2.030499   -0.396986
     24          1           0       -4.247907    1.177221   -1.041453
     25          1           0       -4.119226    1.285163    0.711519
     26          1           0       -2.029409    0.025537   -1.132113
     27          1           0       -1.901390    0.134225    0.619856
     28          1           0       -1.945363    2.646782    0.472219
     29          1           0       -2.074108    2.537476   -1.289705
     30          1           0       -0.603147    1.981079   -0.473616
     31          6           0       -4.466367   -0.710893   -0.024323
     32          6           0       -5.991077   -0.674479    0.084831
     33          6           0       -6.607766   -2.067391    0.216307
     34          1           0       -4.182348   -1.322055   -0.892199
     35          1           0       -4.053667   -1.214113    0.860774
     36          1           0       -6.400184   -0.171117   -0.800536
     37          1           0       -6.272165   -0.062429    0.951434
     38          1           0       -6.227466   -2.574369    1.109025
     39          1           0       -6.356212   -2.683674   -0.652899
     40          1           0       -7.698428   -2.017970    0.292936
 ---------------------------------------------------------------------

 SCF Done:  E(RHF) =  -470.732775918     A.U. after   11 cycles
 E2 =    -0.1582656904D+01 EUMP2 =    -0.47231543282233D+03

 The electronic state is 1-A.
 Alpha  occ. eigenvalues --  -11.21625 -11.21608 -11.21590 -11.21567 -11.21416
 Alpha  occ. eigenvalues --  -11.21383 -11.21357 -11.21322 -11.21075 -11.21069
 Alpha  occ. eigenvalues --  -11.21063 -11.20932  -1.08446  -1.08403  -1.03567
 Alpha  occ. eigenvalues --   -1.03479  -0.96052  -0.95893  -0.87096  -0.86884
 Alpha  occ. eigenvalues --   -0.79651  -0.79521  -0.78256  -0.78219  -0.65084
 Alpha  occ. eigenvalues --   -0.65036  -0.61016  -0.60896  -0.59548  -0.59146
 Alpha  occ. eigenvalues --   -0.57663  -0.57499  -0.55302  -0.55228  -0.52915
 Alpha  occ. eigenvalues --   -0.52454  -0.52409  -0.52288  -0.49912  -0.49883
 Alpha  occ. eigenvalues --   -0.47924  -0.47868  -0.46641  -0.46597  -0.45797
 Alpha  occ. eigenvalues --   -0.45764  -0.45720  -0.45687  -0.43897  -0.43604
 Alpha virt. eigenvalues --    0.21635   0.23069   0.23545   0.25238   0.26484
 Alpha virt. eigenvalues --    0.26672   0.27239   0.27375   0.27633   0.29002
 Alpha virt. eigenvalues --    0.30499   0.31219   0.31513   0.31889   0.32180

 Mulliken charges:
               1
     1  C   -0.298340
     2  C   -0.299669
     3  C   -0.475721
     4  H    0.149662
     5  H    0.149638
     6  H    0.151947
     7  H    0.151957
     8  H    0.155221
     9  H    0.155180
    10  H    0.160275
    11  C   -0.298314
    12  C   -0.301623
    13  C   -0.480296
    14  H    0.149708
    15  H    0.149760
    16  H    0.152329
    17  H    0.152829
    18  H    0.155538
    19  H    0.156459
    20  H    0.163582
    21  C   -0.298311
    22  C   -0.299131
    23  C   -0.484949
    24  H    0.149604
    25  H    0.149460
    26  H    0.151102
    27  H    0.151364
    28  H    0.153920
    29  H    0.154295
    30  H    0.172870
    31  C   -0.298198
    32  C   -0.299606
    33  C   -0.475681
    34  H    0.149321
    35  H    0.149513
    36  H    0.151917
    37  H    0.151918
    38  H    0.155139
    39  H    0.155112
    40  H    0.160217
 Sum of Mulliken charges =  -0.00000

 Dipole moment (field-independent basis, Debye):
    X=              0.0432    Y=              0.0178    Z=              0.0048  Tot=              0.0469
 Quadrupole moment (field-independent basis, Debye-Ang):
   XX=            -85.0705   YY=            -86.3151   ZZ=            -83.4428
   XY=              0.3234   XZ=              0.4229   YZ=              0.7034

 Normal termination of Gaussian 16 at Wed May  5 16:38:56 2021.
