 Gaussian 16, Revision A.03,
 Gaussian 16:  EM64L-G16RevA.03 25-Dec-2016

 -------------
 #p 6-31g* mp2
 -------------

 ------------------------------------------------------
 Input file generated by CHIRIPA (05-May-2021 14:57:25)
 ------------------------------------------------------
 Symbolic Z-matrix:
 Charge =  0 Multiplicity = 1

                         Standard orientation:
 ---------------------------------------------------------------------
 Center     Atomic      Atomic             Coordinates (Angstroms)
 Number     Number       Type             X           Y           Z
 ---------------------------------------------------------------------
      1          6           0       -3.373414    0.526532   -1.188687
      2          6           0       -2.979794    1.238274   -0.050702
      3          6           0       -2.089219    0.673540    0.867174
      4          6           0       -1.609706   -0.610825    0.614655
      5          6           0       -1.983045   -1.345213   -0.509881
      6          6           0       -2.874662   -0.760670   -1.414246
      7          1           0       -4.065639    0.972926   -1.896467
      8          1           0       -3.365521    2.238108    0.127040
      9          1           0       -1.767873    1.202256    1.756339
     10          1           0       -1.581570   -2.340052   -0.659982
     11          1           0       -3.178611   -1.315755   -2.297163
     12          7           0       -0.666342   -1.219169    1.579219
     13          8           0       -0.258212   -2.352252    1.333885
     14          8           0       -0.352926   -0.551386    2.562313
     15          6           0        1.036034    2.813150    0.273942
     16          6           0        0.500726    2.244281   -0.886382
     17          6           0        0.897428    0.969145   -1.300149
     18          6           0        1.835675    0.287956   -0.526221
     19          6           0        2.387251    0.827841    0.634631
     20          6           0        1.975931    2.104363    1.029414
     21          1           0        0.722188    3.804244    0.587994
     22          1           0       -0.229378    2.792421   -1.475055
     23          1           0        0.499101    0.505015   -2.194206
     24          1           0        3.113295    0.257070    1.200757
     25          1           0        2.393345    2.543668    1.930981
     26          7           0        2.263383   -1.062707   -0.954209
     27          8           0        3.091465   -1.642270   -0.254908
     28          8           0        1.762441   -1.516218   -1.980865
 ---------------------------------------------------------------------

 SCF Done:  E(RHF) =  -868.335766862     A.U. after   16 cycles
 E2 =    -0.2608321732D+01 EUMP2 =    -0.87094408859345D+03

 The electronic state is 1-A.
 Alpha  occ. eigenvalues --  -20.60846 -20.60780 -20.60348 -20.60265 -15.85838
 Alpha  occ. eigenvalues --  -15.85370 -11.31222 -11.30844 -11.27918 -11.27815
 Alpha  occ. eigenvalues --  -11.27732 -11.27467 -11.27362 -11.27263 -11.26980
 Alpha  occ. eigenvalues --  -11.26883 -11.26537 -11.26436  -1.59887  -1.59368
 Alpha  occ. eigenvalues --   -1.39433  -1.38923  -1.19525  -1.19047  -1.08897
 Alpha  occ. eigenvalues --   -1.08453  -1.04915  -1.04451  -0.95701  -0.95254
 Alpha  occ. eigenvalues --   -0.86305  -0.85868  -0.82527  -0.82069  -0.77547
 Alpha  occ. eigenvalues --   -0.77083  -0.72069  -0.71594  -0.71493  -0.70620
 Alpha  occ. eigenvalues --   -0.70444  -0.70185  -0.65150  -0.64921  -0.64704
 Alpha  occ. eigenvalues --   -0.64472  -0.62240  -0.61802  -0.55447  -0.55023
 Alpha  occ. eigenvalues --   -0.53930  -0.52999  -0.52557  -0.52172  -0.48842
 Alpha  occ. eigenvalues --   -0.48816  -0.48365  -0.48321  -0.44817  -0.44292
 Alpha  occ. eigenvalues --   -0.37801  -0.37437  -0.36319  -0.35490
 Alpha virt. eigenvalues --    0.04853   0.05525   0.10986   0.11672   0.16416
 Alpha virt. eigenvalues --    0.16910   0.21058   0.21774   0.26997   0.27550
 Alpha virt. eigenvalues --    0.28173   0.28588   0.30617   0.31204   0.32469

 Mulliken charges:
               1
     1  C   -0.174544
     2  C   -0.223671
     3  C   -0.162068
     4  C    0.156167
     5  C   -0.169446
     6  C   -0.222504
     7  H    0.224675
     8  H    0.218877
     9  H    0.272445
    10  H    0.285014
    11  H    0.226616
    12  N    0.485864
    13  O   -0.452205
    14  O   -0.463426
    15  C   -0.177730
    16  C   -0.214385
    17  C   -0.170983
    18  C    0.146035
    19  C   -0.159941
    20  C   -0.213281
    21  H    0.221165
    22  H    0.216832
    23  H    0.271783
    24  H    0.281210
    25  H    0.225152
    26  N    0.491910
    27  O   -0.451097
    28  O   -0.468465
 Sum of Mulliken charges =  -0.00000

 Dipole moment (field-independent basis, Debye):
    X=             -4.6130    Y=              6.5606    Z=             -1.6895  Tot=              8.1961
 Quadrupole moment (field-independent basis, Debye-Ang):
   XX=            -98.7364   YY=           -102.2335   ZZ=           -106.9318
   XY=              6.6804   XZ=             10.2061   YZ=              3.9014

 Normal termination of Gaussian 16 at Thu May  6 05:08:37 2021.
