 Gaussian 16, Revision A.03,
 Gaussian 16:  EM64L-G16RevA.03 25-Dec-2016

 -------------
 #p 6-31g* mp2
 -------------

 ------------------------------------------------------
 Input file generated by CHIRIPA (05-May-2021 14:57:21)
 ------------------------------------------------------
 Symbolic Z-matrix:
 Charge =  0 Multiplicity = 1

                         Standard orientation:
 ---------------------------------------------------------------------
 Center     Atomic      Atomic             Coordinates (Angstroms)
 Number     Number       Type             X           Y           Z
 ---------------------------------------------------------------------
      1          6           0        2.236428    2.353274   -0.379955
      2          6           0        2.657755    2.040145    0.916562
      3          6           0        3.205528    0.785860    1.201624
      4          6           0        3.317712   -0.135485    0.161514
      5          6           0        2.907035    0.146625   -1.140426
      6          6           0        2.362191    1.407183   -1.402508
      7          1           0        1.812042    3.330070   -0.592472
      8          1           0        2.561298    2.772925    1.712661
      9          1           0        3.539735    0.517091    2.196353
     10          1           0        3.015971   -0.604575   -1.913245
     11          1           0        2.035825    1.647600   -2.410342
     12          7           0        3.896065   -1.466661    0.451132
     13          8           0        3.984108   -2.260867   -0.482743
     14          8           0        4.250383   -1.690625    1.606527
     15          6           0       -5.365953   -0.390382    1.181266
     16          6           0       -5.216014   -0.986199   -0.075334
     17          6           0       -4.032707   -0.823133   -0.801791
     18          6           0       -3.015162   -0.054280   -0.238982
     19          6           0       -3.134356    0.552049    1.010597
     20          6           0       -4.326478    0.375490    1.719272
     21          1           0       -6.288598   -0.522296    1.738688
     22          1           0       -6.021610   -1.581522   -0.495633
     23          1           0       -3.889988   -1.273187   -1.776728
     24          1           0       -2.313649    1.139848    1.403473
     25          1           0       -4.440129    0.839385    2.694941
     26          7           0       -1.757781    0.125492   -0.998637
     27          8           0       -0.876222    0.807623   -0.480767
     28          8           0       -1.677614   -0.419135   -2.097541
 ---------------------------------------------------------------------

 SCF Done:  E(RHF) =  -868.338178297     A.U. after   16 cycles
 E2 =    -0.2600029645D+01 EUMP2 =    -0.87093820794274D+03

 The electronic state is 1-A.
 Alpha  occ. eigenvalues --  -20.61251 -20.61235 -20.59760 -20.59742 -15.86280
 Alpha  occ. eigenvalues --  -15.84795 -11.31526 -11.29857 -11.28099 -11.28069
 Alpha  occ. eigenvalues --  -11.27797 -11.27077 -11.27054 -11.26467 -11.26305
 Alpha  occ. eigenvalues --  -11.26074 -11.25462 -11.25250  -1.60322  -1.58835
 Alpha  occ. eigenvalues --   -1.39879  -1.38397  -1.19689  -1.17984  -1.09107
 Alpha  occ. eigenvalues --   -1.07444  -1.05075  -1.03360  -0.95964  -0.94340
 Alpha  occ. eigenvalues --   -0.86478  -0.84794  -0.82799  -0.81198  -0.77864
 Alpha  occ. eigenvalues --   -0.76282  -0.72521  -0.71632  -0.71030  -0.70797
 Alpha  occ. eigenvalues --   -0.70151  -0.69148  -0.65345  -0.65078  -0.63667
 Alpha  occ. eigenvalues --   -0.63412  -0.62427  -0.60754  -0.55580  -0.53912
 Alpha  occ. eigenvalues --   -0.53408  -0.53169  -0.51713  -0.51498  -0.49277
 Alpha  occ. eigenvalues --   -0.49202  -0.47795  -0.47757  -0.45308  -0.43872
 Alpha  occ. eigenvalues --   -0.37658  -0.36672  -0.35879  -0.34874
 Alpha virt. eigenvalues --    0.04660   0.06257   0.10985   0.12753   0.16185
 Alpha virt. eigenvalues --    0.17842   0.21136   0.22663   0.27042   0.28018
 Alpha virt. eigenvalues --    0.28568   0.29518   0.30703   0.32160   0.32213

 Mulliken charges:
               1
     1  C   -0.159845
     2  C   -0.219453
     3  C   -0.173608
     4  C    0.157413
     5  C   -0.169439
     6  C   -0.197245
     7  H    0.220430
     8  H    0.215196
     9  H    0.269010
    10  H    0.273376
    11  H    0.223611
    12  N    0.487971
    13  O   -0.462501
    14  O   -0.466149
    15  C   -0.170195
    16  C   -0.218375
    17  C   -0.170261
    18  C    0.158139
    19  C   -0.170587
    20  C   -0.218265
    21  H    0.226880
    22  H    0.224814
    23  H    0.276307
    24  H    0.273618
    25  H    0.223873
    26  N    0.490384
    27  O   -0.463898
    28  O   -0.461202
 Sum of Mulliken charges =  -0.00000

 Dipole moment (field-independent basis, Debye):
    X=             -6.8663    Y=              4.1067    Z=              1.4260  Tot=              8.1267
 Quadrupole moment (field-independent basis, Debye-Ang):
   XX=            -93.0235   YY=           -105.5802   ZZ=            -99.5520
   XY=             19.8047   XZ=             -9.4165   YZ=              4.5823

 Normal termination of Gaussian 16 at Thu May  6 21:02:35 2021.
