 Gaussian 16, Revision A.03,
 Gaussian 16:  EM64L-G16RevA.03 25-Dec-2016

 -------------
 #p 6-31g* mp2
 -------------

 ------------------------------------------------------
 Input file generated by CHIRIPA (05-May-2021 14:51:07)
 ------------------------------------------------------
 Symbolic Z-matrix:
 Charge =  0 Multiplicity = 1

                         Standard orientation:
 ---------------------------------------------------------------------
 Center     Atomic      Atomic             Coordinates (Angstroms)
 Number     Number       Type             X           Y           Z
 ---------------------------------------------------------------------
      1          6           0       -3.915671    0.453403    0.401335
      2          6           0       -3.163642    1.444771   -0.487274
      3          6           0       -2.146169    2.280950    0.289481
      4          1           0       -4.426898    1.003932    1.202902
      5          1           0       -3.191183   -0.211494    0.891665
      6          1           0       -3.889428    2.106709   -0.976854
      7          1           0       -2.654303    0.891836   -1.286931
      8          1           0       -1.400145    1.635957    0.764909
      9          1           0       -2.642288    2.857733    1.076747
     10          1           0       -1.620068    2.982874   -0.365028
     11          6           0       -4.936393   -0.389813   -0.360794
     12          6           0       -5.688423   -1.381181    0.527815
     13          6           0       -6.705895   -2.217360   -0.248939
     14          1           0       -5.660882    0.275084   -0.851124
     15          1           0       -4.425167   -0.940342   -1.162361
     16          1           0       -6.197762   -0.828245    1.327473
     17          1           0       -4.962637   -2.043119    1.017396
     18          1           0       -6.209777   -2.794143   -1.036206
     19          1           0       -7.451920   -1.572367   -0.724367
     20          1           0       -7.231996   -2.919284    0.405569
     21          6           0        4.772725   -0.712345   -0.029685
     22          6           0        6.296800   -0.617589    0.049059
     23          6           0        6.976062   -1.987262    0.029200
     24          1           0        4.405444   -1.317574    0.810402
     25          1           0        4.492551   -1.248336   -0.947080
     26          1           0        6.573975   -0.080724    0.965337
     27          1           0        6.660480   -0.012355   -0.791207
     28          1           0        6.728498   -2.526743   -0.890731
     29          1           0        6.641502   -2.595499    0.875791
     30          1           0        8.065227   -1.896103    0.086386
     31          6           0        4.079340    0.648755   -0.010856
     32          6           0        2.555265    0.553999   -0.089600
     33          6           0        1.876002    1.923672   -0.069741
     34          1           0        4.359514    1.184746    0.906537
     35          1           0        4.446621    1.253984   -0.850943
     36          1           0        2.191585   -0.051235    0.750665
     37          1           0        2.278090    0.017134   -1.005878
     38          1           0        2.210563    2.531909   -0.916333
     39          1           0        2.123567    2.463153    0.850190
     40          1           0        0.786837    1.832513   -0.126927
 ---------------------------------------------------------------------

 SCF Done:  E(RHF) =  -470.732899169     A.U. after   11 cycles
 E2 =    -0.1582411220D+01 EUMP2 =    -0.47231531038889D+03

 The electronic state is 1-A.
 Alpha  occ. eigenvalues --  -11.21623 -11.21609 -11.21586 -11.21560 -11.21419
 Alpha  occ. eigenvalues --  -11.21378 -11.21359 -11.21317 -11.21082 -11.21077
 Alpha  occ. eigenvalues --  -11.21061 -11.20921  -1.08446  -1.08398  -1.03559
 Alpha  occ. eigenvalues --   -1.03481  -0.96037  -0.95902  -0.87085  -0.86890
 Alpha  occ. eigenvalues --   -0.79649  -0.79519  -0.78257  -0.78214  -0.65081
 Alpha  occ. eigenvalues --   -0.65030  -0.60996  -0.60886  -0.59474  -0.59213
 Alpha  occ. eigenvalues --   -0.57606  -0.57570  -0.55309  -0.55212  -0.52908
 Alpha  occ. eigenvalues --   -0.52469  -0.52432  -0.52286  -0.49923  -0.49860
 Alpha  occ. eigenvalues --   -0.47943  -0.47847  -0.46633  -0.46589  -0.45799
 Alpha  occ. eigenvalues --   -0.45756  -0.45721  -0.45683  -0.43892  -0.43608
 Alpha virt. eigenvalues --    0.22118   0.23027   0.23585   0.24973   0.26582
 Alpha virt. eigenvalues --    0.26682   0.27199   0.27474   0.27558   0.28896
 Alpha virt. eigenvalues --    0.31086   0.31384   0.31452   0.31853   0.32140

 Mulliken charges:
               1
     1  C   -0.298596
     2  C   -0.300341
     3  C   -0.480023
     4  H    0.149761
     5  H    0.149765
     6  H    0.152256
     7  H    0.152160
     8  H    0.157912
     9  H    0.155884
    10  H    0.162189
    11  C   -0.298321
    12  C   -0.299676
    13  C   -0.475718
    14  H    0.149580
    15  H    0.149704
    16  H    0.151958
    17  H    0.151956
    18  H    0.155203
    19  H    0.155197
    20  H    0.160283
    21  C   -0.298187
    22  C   -0.299610
    23  C   -0.475678
    24  H    0.149458
    25  H    0.149336
    26  H    0.151923
    27  H    0.151918
    28  H    0.155112
    29  H    0.155115
    30  H    0.160208
    31  C   -0.298190
    32  C   -0.299260
    33  C   -0.484404
    34  H    0.149497
    35  H    0.149607
    36  H    0.151021
    37  H    0.151268
    38  H    0.154124
    39  H    0.154639
    40  H    0.170969
 Sum of Mulliken charges =  -0.00000

 Dipole moment (field-independent basis, Debye):
    X=             -0.0509    Y=              0.0168    Z=              0.0039  Tot=              0.0537
 Quadrupole moment (field-independent basis, Debye-Ang):
   XX=            -85.3905   YY=            -85.5638   ZZ=            -83.8789
   XY=             -0.5132   XZ=             -0.5114   YZ=             -0.1948

 Normal termination of Gaussian 16 at Wed May  5 22:53:46 2021.
