 Gaussian 16, Revision A.03,
 Gaussian 16:  EM64L-G16RevA.03 25-Dec-2016

 -------------
 #p 6-31g* mp2
 -------------

 ------------------------------------------------------
 Input file generated by CHIRIPA (05-May-2021 14:57:21)
 ------------------------------------------------------
 Symbolic Z-matrix:
 Charge =  0 Multiplicity = 1

                         Standard orientation:
 ---------------------------------------------------------------------
 Center     Atomic      Atomic             Coordinates (Angstroms)
 Number     Number       Type             X           Y           Z
 ---------------------------------------------------------------------
      1          6           0        1.929326   -2.140075   -0.118427
      2          6           0        3.209535   -2.258940   -0.669297
      3          6           0        4.104166   -1.185539   -0.624652
      4          6           0        3.683627   -0.002603   -0.018765
      5          6           0        2.414784    0.146745    0.538929
      6          6           0        1.536729   -0.939728    0.482868
      7          1           0        1.240793   -2.978996   -0.157542
      8          1           0        3.517149   -3.189943   -1.136899
      9          1           0        5.101139   -1.250277   -1.043308
     10          1           0        2.136777    1.087484    0.998430
     11          1           0        0.543118   -0.844556    0.911499
     12          7           0        4.621959    1.140678    0.034541
     13          8           0        4.227285    2.172150    0.573925
     14          8           0        5.734330    0.983661   -0.464070
     15          6           0       -3.641392   -2.308681    0.351178
     16          6           0       -2.584874   -1.577987    0.904694
     17          6           0       -2.512427   -0.192567    0.731751
     18          6           0       -3.518110    0.432693   -0.003736
     19          6           0       -4.583406   -0.267656   -0.567602
     20          6           0       -4.635533   -1.652340   -0.381910
     21          1           0       -3.689777   -3.384623    0.490477
     22          1           0       -1.811405   -2.085059    1.474492
     23          1           0       -1.705680    0.397517    1.149336
     24          1           0       -5.339631    0.265757   -1.130642
     25          1           0       -5.457210   -2.217248   -0.812923
     26          7           0       -3.452171    1.898985   -0.193571
     27          8           0       -4.350681    2.426251   -0.845727
     28          8           0       -2.503224    2.493236    0.313386
 ---------------------------------------------------------------------

 SCF Done:  E(RHF) =  -868.335898226     A.U. after   16 cycles
 E2 =    -0.2600688212D+01 EUMP2 =    -0.87093658643787D+03

 The electronic state is 1-A.
 Alpha  occ. eigenvalues --  -20.61349 -20.61342 -20.60828 -20.60813 -15.86412
 Alpha  occ. eigenvalues --  -15.85884 -11.31979 -11.31392 -11.28681 -11.28520
 Alpha  occ. eigenvalues --  -11.28347 -11.27997 -11.27991 -11.27854 -11.27738
 Alpha  occ. eigenvalues --  -11.27554 -11.27152 -11.27043  -1.60418  -1.59897
 Alpha  occ. eigenvalues --   -1.39968  -1.39445  -1.20177  -1.19605  -1.09523
 Alpha  occ. eigenvalues --   -1.08990  -1.05639  -1.05038  -0.96329  -0.95788
 Alpha  occ. eigenvalues --   -0.87009  -0.86451  -0.83183  -0.82623  -0.78213
 Alpha  occ. eigenvalues --   -0.77619  -0.72625  -0.72101  -0.71744  -0.71287
 Alpha  occ. eigenvalues --   -0.71222  -0.70740  -0.65856  -0.65655  -0.65266
 Alpha  occ. eigenvalues --   -0.65120  -0.63048  -0.62293  -0.56097  -0.55582
 Alpha  occ. eigenvalues --   -0.53931  -0.53739  -0.53345  -0.53134  -0.49397
 Alpha  occ. eigenvalues --   -0.49369  -0.48876  -0.48842  -0.45330  -0.44818
 Alpha  occ. eigenvalues --   -0.38140  -0.37624  -0.37227  -0.36621
 Alpha virt. eigenvalues --    0.04346   0.04924   0.10398   0.11012   0.15660
 Alpha virt. eigenvalues --    0.16361   0.18262   0.22136   0.24752   0.26056
 Alpha virt. eigenvalues --    0.27956   0.29393   0.30159   0.30829   0.32620

 Mulliken charges:
               1
     1  C   -0.171404
     2  C   -0.218384
     3  C   -0.169985
     4  C    0.158953
     5  C   -0.170298
     6  C   -0.218922
     7  H    0.220831
     8  H    0.223629
     9  H    0.276868
    10  H    0.280535
    11  H    0.215712
    12  N    0.487928
    13  O   -0.457137
    14  O   -0.460270
    15  C   -0.170568
    16  C   -0.221329
    17  C   -0.171699
    18  C    0.160062
    19  C   -0.169255
    20  C   -0.217967
    21  H    0.226823
    22  H    0.217253
    23  H    0.271162
    24  H    0.278870
    25  H    0.226577
    26  N    0.488399
    27  O   -0.457038
    28  O   -0.459346
 Sum of Mulliken charges =  -0.00000

 Dipole moment (field-independent basis, Debye):
    X=             -3.6684    Y=             -9.0443    Z=              0.3420  Tot=              9.7659
 Quadrupole moment (field-independent basis, Debye-Ang):
   XX=           -120.2903   YY=           -108.7445   ZZ=           -103.6413
   XY=              1.4566   XZ=             -2.0544   YZ=              2.1457

 Normal termination of Gaussian 16 at Wed May  5 20:55:18 2021.
