 Gaussian 16, Revision A.03,
 Gaussian 16:  EM64L-G16RevA.03 25-Dec-2016

 -------------
 #p 6-31g* mp2
 -------------

 ------------------------------------------------------
 Input file generated by CHIRIPA (05-May-2021 14:55:20)
 ------------------------------------------------------
 Symbolic Z-matrix:
 Charge =  0 Multiplicity = 1

                         Standard orientation:
 ---------------------------------------------------------------------
 Center     Atomic      Atomic             Coordinates (Angstroms)
 Number     Number       Type             X           Y           Z
 ---------------------------------------------------------------------
      1          6           0        1.235788    1.412981    1.088827
      2          6           0        1.755073    1.874376   -0.125248
      3          6           0        2.883667    1.272229   -0.689378
      4          6           0        3.470467    0.206141   -0.009369
      5          6           0        2.976674   -0.276371    1.201680
      6          6           0        1.847167    0.340970    1.747256
      7          1           0        0.358714    1.886645    1.519850
      8          1           0        1.282333    2.706730   -0.638812
      9          1           0        3.306491    1.609295   -1.628008
     10          1           0        3.469689   -1.108036    1.690236
     11          1           0        1.446064   -0.019465    2.690255
     12          7           0        4.665742   -0.439367   -0.596767
     13          8           0        5.164338   -1.376960    0.022071
     14          8           0        5.081370    0.004498   -1.664884
     15          6           0       -4.919435   -0.524909   -0.301207
     16          6           0       -5.815917    0.697287   -0.099863
     17          6           0       -7.272151    0.431803   -0.482868
     18          1           0       -4.971895   -0.841071   -1.352033
     19          1           0       -5.310298   -1.360089    0.296369
     20          1           0       -5.422687    1.530316   -0.696562
     21          1           0       -5.761167    1.010694    0.950563
     22          1           0       -7.687085   -0.381812    0.120838
     23          1           0       -7.346682    0.140763   -1.535646
     24          1           0       -7.895268    1.318687   -0.331130
     25          6           0       -3.460652   -0.275166    0.077357
     26          6           0       -2.564170   -1.497362   -0.123988
     27          6           0       -1.107935   -1.231878    0.259018
     28          1           0       -3.069789    0.560014   -0.520220
     29          1           0       -3.408191    0.040997    1.128182
     30          1           0       -2.618919   -1.810768   -1.174415
     31          1           0       -2.957400   -2.330390    0.472712
     32          1           0       -1.033404   -0.940837    1.311796
     33          1           0       -0.693001   -0.418263   -0.344689
     34          1           0       -0.484818   -2.118760    0.107280
 ---------------------------------------------------------------------

 SCF Done:  E(RHF) =  -669.534666634     A.U. after   15 cycles
 E2 =    -0.2092424600D+01 EUMP2 =    -0.67162709123441D+03

 The electronic state is 1-A.
 Alpha  occ. eigenvalues --  -20.60738 -20.60732 -15.85793 -11.31145 -11.27746
 Alpha  occ. eigenvalues --  -11.27727 -11.27464 -11.26742 -11.26713 -11.22046
 Alpha  occ. eigenvalues --  -11.22024 -11.21941 -11.21818 -11.21491 -11.21436
 Alpha  occ. eigenvalues --   -1.59814  -1.39368  -1.19336  -1.08909  -1.08728
 Alpha  occ. eigenvalues --   -1.04741  -1.03967  -0.96427  -0.95561  -0.87442
 Alpha  occ. eigenvalues --   -0.86138  -0.82397  -0.80038  -0.78734  -0.77442
 Alpha  occ. eigenvalues --   -0.72012  -0.71138  -0.70446  -0.65537  -0.64990
 Alpha  occ. eigenvalues --   -0.64750  -0.62095  -0.61362  -0.59787  -0.58058
 Alpha  occ. eigenvalues --   -0.55723  -0.55241  -0.53504  -0.53039  -0.52836
 Alpha  occ. eigenvalues --   -0.52493  -0.50364  -0.48770  -0.48766  -0.48339
 Alpha  occ. eigenvalues --   -0.47072  -0.46270  -0.46198  -0.44777  -0.44231
 Alpha  occ. eigenvalues --   -0.37216  -0.36326
 Alpha virt. eigenvalues --    0.05098   0.11220   0.16576   0.20787   0.22539
 Alpha virt. eigenvalues --    0.23989   0.25912   0.26702   0.27046   0.27793
 Alpha virt. eigenvalues --    0.28798   0.30564   0.31056   0.31562   0.31607

 Mulliken charges:
               1
     1  C   -0.166713
     2  C   -0.220920
     3  C   -0.170649
     4  C    0.158235
     5  C   -0.171739
     6  C   -0.213686
     7  H    0.226168
     8  H    0.223135
     9  H    0.275479
    10  H    0.275489
    11  H    0.222957
    12  N    0.488128
    13  O   -0.460613
    14  O   -0.460729
    15  C   -0.298287
    16  C   -0.299703
    17  C   -0.475912
    18  H    0.151386
    19  H    0.150802
    20  H    0.150952
    21  H    0.150872
    22  H    0.156001
    23  H    0.156213
    24  H    0.160808
    25  C   -0.297658
    26  C   -0.301160
    27  C   -0.473883
    28  H    0.146428
    29  H    0.145619
    30  H    0.154246
    31  H    0.152504
    32  H    0.144159
    33  H    0.158648
    34  H    0.163423
 Sum of Mulliken charges =  -0.00000

 Dipole moment (field-independent basis, Debye):
    X=             -4.2423    Y=              2.2514    Z=              2.0469  Tot=              5.2207
 Quadrupole moment (field-independent basis, Debye-Ang):
   XX=           -125.8663   YY=            -92.1642   ZZ=            -91.2683
   XY=              7.0070   XZ=              7.1706   YZ=             -2.6615

 Normal termination of Gaussian 16 at Thu May  6 12:26:14 2021.
