 Gaussian 16, Revision A.03,
 Gaussian 16:  EM64L-G16RevA.03 25-Dec-2016

 -------------
 #p 6-31g* mp2
 -------------

 ------------------------------------------------------
 Input file generated by CHIRIPA (05-May-2021 14:51:13)
 ------------------------------------------------------
 Symbolic Z-matrix:
 Charge =  0 Multiplicity = 1

                         Standard orientation:
 ---------------------------------------------------------------------
 Center     Atomic      Atomic             Coordinates (Angstroms)
 Number     Number       Type             X           Y           Z
 ---------------------------------------------------------------------
      1          6           0        2.131538    1.128368    0.422398
      2          6           0        1.277314    2.361349    0.125674
      3          6           0        0.909269    3.143043    1.387138
      4          1           0        1.588610    0.472435    1.116608
      5          1           0        3.048093    1.442066    0.940969
      6          1           0        0.363287    2.045568   -0.393414
      7          1           0        1.822258    3.014331   -0.568060
      8          1           0        1.811024    3.486095    1.904588
      9          1           0        0.343763    2.511827    2.080226
     10          1           0        0.298597    4.020325    1.151946
     11          6           0        2.507567    0.336515   -0.828720
     12          6           0        3.361791   -0.896466   -0.531996
     13          6           0        3.729836   -1.678160   -1.793460
     14          1           0        1.591012    0.022817   -1.347291
     15          1           0        3.050495    0.992448   -1.522929
     16          1           0        2.816847   -1.549448    0.161738
     17          1           0        4.275818   -0.580685   -0.012908
     18          1           0        4.295342   -1.046944   -2.486548
     19          1           0        2.828081   -2.021212   -2.310910
     20          1           0        4.340509   -2.555442   -1.558268
     21          6           0       -1.670597   -0.742909    0.605875
     22          6           0       -1.348443   -2.113967    1.201191
     23          6           0       -0.047206   -2.118895    2.004032
     24          1           0       -0.839324   -0.425517   -0.038481
     25          1           0       -1.736505   -0.004903    1.417291
     26          1           0       -1.284528   -2.849433    0.389021
     27          1           0       -2.180663   -2.428218    1.844052
     28          1           0       -0.103658   -1.406659    2.833571
     29          1           0        0.797568   -1.830268    1.370272
     30          1           0        0.163797   -3.108771    2.420544
     31          6           0       -2.968509   -0.721973   -0.199553
     32          6           0       -3.290663    0.649084   -0.794869
     33          6           0       -4.591900    0.654011   -1.597710
     34          1           0       -2.902600   -1.459980   -1.010970
     35          1           0       -3.799781   -1.039366    0.444802
     36          1           0       -2.458443    0.963335   -1.437732
     37          1           0       -3.354578    1.384549    0.017301
     38          1           0       -5.436674    0.365385   -0.963950
     39          1           0       -4.535447   -0.058224   -2.427249
     40          1           0       -4.802901    1.643888   -2.014222
 ---------------------------------------------------------------------

 SCF Done:  E(RHF) =  -470.732460628     A.U. after   11 cycles
 E2 =    -0.1585562101D+01 EUMP2 =    -0.47231802272886D+03

 The electronic state is 1-A.
 Alpha  occ. eigenvalues --  -11.21690 -11.21666 -11.21617 -11.21525 -11.21490
 Alpha  occ. eigenvalues --  -11.21428 -11.21398 -11.21264 -11.21140 -11.21115
 Alpha  occ. eigenvalues --  -11.21094 -11.21018  -1.08544  -1.08387  -1.03609
 Alpha  occ. eigenvalues --   -1.03508  -0.96063  -0.95957  -0.87081  -0.86974
 Alpha  occ. eigenvalues --   -0.79687  -0.79577  -0.78351  -0.78212  -0.65396
 Alpha  occ. eigenvalues --   -0.64844  -0.61079  -0.60844  -0.59427  -0.59322
 Alpha  occ. eigenvalues --   -0.57712  -0.57536  -0.55373  -0.55243  -0.52747
 Alpha  occ. eigenvalues --   -0.52682  -0.52483  -0.52377  -0.50081  -0.49869
 Alpha  occ. eigenvalues --   -0.48058  -0.47900  -0.46811  -0.46574  -0.46172
 Alpha  occ. eigenvalues --   -0.45839  -0.45529  -0.45259  -0.43861  -0.43755
 Alpha virt. eigenvalues --    0.19526   0.22568   0.23477   0.23870   0.25235
 Alpha virt. eigenvalues --    0.26022   0.26530   0.28295   0.29121   0.29635
 Alpha virt. eigenvalues --    0.30435   0.31211   0.31661   0.31922   0.32438

 Mulliken charges:
               1
     1  C   -0.305502
     2  C   -0.301620
     3  C   -0.475953
     4  H    0.157974
     5  H    0.149445
     6  H    0.154521
     7  H    0.151259
     8  H    0.154871
     9  H    0.155380
    10  H    0.159946
    11  C   -0.300345
    12  C   -0.306507
    13  C   -0.475174
    14  H    0.149089
    15  H    0.150208
    16  H    0.157318
    17  H    0.152727
    18  H    0.155394
    19  H    0.154617
    20  H    0.160448
    21  C   -0.305800
    22  C   -0.298999
    23  C   -0.485962
    24  H    0.156210
    25  H    0.150090
    26  H    0.151903
    27  H    0.152469
    28  H    0.155331
    29  H    0.164531
    30  H    0.161061
    31  C   -0.298208
    32  C   -0.300974
    33  C   -0.475767
    34  H    0.149576
    35  H    0.150137
    36  H    0.152456
    37  H    0.152536
    38  H    0.155417
    39  H    0.155288
    40  H    0.160608
 Sum of Mulliken charges =  -0.00000

 Dipole moment (field-independent basis, Debye):
    X=             -0.0280    Y=             -0.0270    Z=              0.0160  Tot=              0.0420
 Quadrupole moment (field-independent basis, Debye-Ang):
   XX=            -84.6645   YY=            -84.9336   ZZ=            -85.1017
   XY=              0.6881   XZ=             -0.7748   YZ=             -0.3256

 Normal termination of Gaussian 16 at Wed May  5 16:50:46 2021.
