 Gaussian 16, Revision A.03,
 Gaussian 16:  EM64L-G16RevA.03 25-Dec-2016

 -------------
 #p 6-31g* mp2
 -------------

 ------------------------------------------------------
 Input file generated by CHIRIPA (05-May-2021 14:55:19)
 ------------------------------------------------------
 Symbolic Z-matrix:
 Charge =  0 Multiplicity = 1

                         Standard orientation:
 ---------------------------------------------------------------------
 Center     Atomic      Atomic             Coordinates (Angstroms)
 Number     Number       Type             X           Y           Z
 ---------------------------------------------------------------------
      1          6           0        3.067092    2.648098    0.082126
      2          6           0        4.224207    1.967379    0.474844
      3          6           0        4.310546    0.578366    0.341673
      4          6           0        3.216022   -0.101407   -0.190508
      5          6           0        2.049483    0.548360   -0.590856
      6          6           0        1.985330    1.937668   -0.448535
      7          1           0        3.008639    3.727232    0.189130
      8          1           0        5.065866    2.516515    0.887284
      9          1           0        5.194277    0.026273    0.637697
     10          1           0        1.226787   -0.026378   -0.998614
     11          1           0        1.085434    2.463692   -0.754365
     12          7           0        3.295682   -1.572050   -0.336334
     13          8           0        2.317634   -2.147855   -0.808042
     14          8           0        4.334657   -2.121088    0.023838
     15          6           0       -4.610581    0.124289   -0.266052
     16          6           0       -6.047379    0.049362    0.251620
     17          6           0       -7.057836    0.663049   -0.717997
     18          1           0       -4.349500    1.174801   -0.453681
     19          1           0       -4.549952   -0.390688   -1.234824
     20          1           0       -6.104980    0.563131    1.219784
     21          1           0       -6.305004   -1.001078    0.438220
     22          1           0       -7.029702    0.145518   -1.682347
     23          1           0       -6.828542    1.718614   -0.896343
     24          1           0       -8.078484    0.598760   -0.328117
     25          6           0       -3.588827   -0.485177    0.692227
     26          6           0       -2.152029   -0.410252    0.174555
     27          6           0       -1.141571   -1.023938    1.144172
     28          1           0       -3.649456    0.029799    1.660998
     29          1           0       -3.849906   -1.535690    0.879856
     30          1           0       -1.894403    0.640189   -0.012045
     31          1           0       -2.094428   -0.924020   -0.793608
     32          1           0       -1.370866   -2.079503    1.322518
     33          1           0       -1.169705   -0.506406    2.108522
     34          1           0       -0.120924   -0.959649    0.754293
 ---------------------------------------------------------------------

 SCF Done:  E(RHF) =  -669.535403029     A.U. after   15 cycles
 E2 =    -0.2092061149D+01 EUMP2 =    -0.67162746417792D+03

 The electronic state is 1-A.
 Alpha  occ. eigenvalues --  -20.60837 -20.60829 -15.85871 -11.31220 -11.27787
 Alpha  occ. eigenvalues --  -11.27770 -11.27529 -11.26803 -11.26792 -11.21787
 Alpha  occ. eigenvalues --  -11.21703 -11.21531 -11.21469 -11.21173 -11.20943
 Alpha  occ. eigenvalues --   -1.59898  -1.39454  -1.19395  -1.08792  -1.08547
 Alpha  occ. eigenvalues --   -1.04798  -1.03620  -0.96048  -0.95625  -0.87057
 Alpha  occ. eigenvalues --   -0.86193  -0.82459  -0.79692  -0.78374  -0.77515
 Alpha  occ. eigenvalues --   -0.72092  -0.71216  -0.70515  -0.65176  -0.65045
 Alpha  occ. eigenvalues --   -0.64812  -0.62199  -0.61009  -0.59401  -0.57673
 Alpha  occ. eigenvalues --   -0.55313  -0.55292  -0.53200  -0.52966  -0.52635
 Alpha  occ. eigenvalues --   -0.52364  -0.49966  -0.48854  -0.48848  -0.48001
 Alpha  occ. eigenvalues --   -0.46731  -0.45911  -0.45834  -0.44865  -0.43847
 Alpha  occ. eigenvalues --   -0.37370  -0.36373
 Alpha virt. eigenvalues --    0.04990   0.11156   0.16497   0.20606   0.22856
 Alpha virt. eigenvalues --    0.24028   0.26155   0.26550   0.27447   0.27943
 Alpha virt. eigenvalues --    0.29153   0.30062   0.31514   0.31642   0.32042

 Mulliken charges:
               1
     1  C   -0.170728
     2  C   -0.218309
     3  C   -0.170827
     4  C    0.159188
     5  C   -0.172149
     6  C   -0.219809
     7  H    0.225717
     8  H    0.223589
     9  H    0.275688
    10  H    0.278803
    11  H    0.224185
    12  N    0.488655
    13  O   -0.460975
    14  O   -0.459464
    15  C   -0.298198
    16  C   -0.299801
    17  C   -0.475731
    18  H    0.146689
    19  H    0.150560
    20  H    0.151645
    21  H    0.153362
    22  H    0.155768
    23  H    0.154065
    24  H    0.160768
    25  C   -0.297935
    26  C   -0.302083
    27  C   -0.479799
    28  H    0.149227
    29  H    0.152918
    30  H    0.141162
    31  H    0.154929
    32  H    0.161722
    33  H    0.152597
    34  H    0.164573
 Sum of Mulliken charges =  -0.00000

 Dipole moment (field-independent basis, Debye):
    X=             -0.2487    Y=              5.0945    Z=              0.5294  Tot=              5.1279
 Quadrupole moment (field-independent basis, Debye-Ang):
   XX=            -92.8211   YY=            -95.5829   ZZ=            -95.1789
   XY=             17.6658   XZ=              3.3187   YZ=             -0.3806

 Normal termination of Gaussian 16 at Thu May  6 09:12:56 2021.
