 Gaussian 16, Revision A.03,
 Gaussian 16:  EM64L-G16RevA.03 25-Dec-2016

 -------------
 #p 6-31g* mp2
 -------------

 ------------------------------------------------------
 Input file generated by CHIRIPA (05-May-2021 14:51:09)
 ------------------------------------------------------
 Symbolic Z-matrix:
 Charge =  0 Multiplicity = 1

                         Standard orientation:
 ---------------------------------------------------------------------
 Center     Atomic      Atomic             Coordinates (Angstroms)
 Number     Number       Type             X           Y           Z
 ---------------------------------------------------------------------
      1          6           0       -1.990102   -1.438626   -0.404906
      2          6           0       -0.740923   -1.925378    0.330355
      3          6           0        0.132707   -2.839242   -0.529538
      4          1           0       -2.577121   -2.307656   -0.732232
      5          1           0       -1.686184   -0.905467   -1.316372
      6          1           0       -1.047063   -2.456262    1.240880
      7          1           0       -0.156907   -1.055085    0.656136
      8          1           0        0.466485   -2.316044   -1.431456
      9          1           0       -0.428729   -3.725182   -0.843389
     10          1           0        1.020158   -3.175522    0.015628
     11          6           0       -2.873580   -0.524050    0.441702
     12          6           0       -4.122760   -0.037299   -0.293560
     13          6           0       -4.996390    0.876566    0.566334
     14          1           0       -3.177499   -1.057209    1.353167
     15          1           0       -2.286562    0.344979    0.769027
     16          1           0       -4.706775   -0.907591   -0.619340
     17          1           0       -3.816619    0.493586   -1.204085
     18          1           0       -4.434954    1.762505    0.880185
     19          1           0       -5.330168    0.353367    1.468252
     20          1           0       -5.883841    1.212846    0.021168
     21          6           0        2.759700    0.315499   -0.198952
     22          6           0        4.043975    0.040013    0.583820
     23          6           0        4.688183   -1.295723    0.211529
     24          1           0        2.046069   -0.500164   -0.019035
     25          1           0        2.984246    0.302798   -1.274504
     26          1           0        3.817341    0.054602    1.657616
     27          1           0        4.754559    0.856523    0.402171
     28          1           0        4.942460   -1.317324   -0.853120
     29          1           0        3.999916   -2.123801    0.409458
     30          1           0        5.604784   -1.472457    0.782902
     31          6           0        2.103982    1.647177    0.162156
     32          6           0        0.819708    1.922664   -0.620615
     33          6           0        0.175500    3.258399   -0.248324
     34          1           0        1.879437    1.659879    1.237708
     35          1           0        2.817614    2.462841   -0.017760
     36          1           0        0.109124    1.106153   -0.438966
     37          1           0        1.046342    1.908075   -1.694413
     38          1           0        0.863766    4.086478   -0.446255
     39          1           0       -0.078777    3.280000    0.816325
     40          1           0       -0.741101    3.435133   -0.819698
 ---------------------------------------------------------------------

 SCF Done:  E(RHF) =  -470.732351564     A.U. after   11 cycles
 E2 =    -0.1585356540D+01 EUMP2 =    -0.47231770810416D+03

 The electronic state is 1-A.
 Alpha  occ. eigenvalues --  -11.21646 -11.21646 -11.21621 -11.21592 -11.21442
 Alpha  occ. eigenvalues --  -11.21414 -11.21383 -11.21315 -11.21137 -11.21114
 Alpha  occ. eigenvalues --  -11.21080 -11.21064  -1.08533  -1.08399  -1.03575
 Alpha  occ. eigenvalues --   -1.03556  -0.96054  -0.95968  -0.87059  -0.86992
 Alpha  occ. eigenvalues --   -0.79652  -0.79611  -0.78364  -0.78205  -0.65539
 Alpha  occ. eigenvalues --   -0.64739  -0.60999  -0.60937  -0.59419  -0.59337
 Alpha  occ. eigenvalues --   -0.57662  -0.57591  -0.55484  -0.55112  -0.52726
 Alpha  occ. eigenvalues --   -0.52687  -0.52441  -0.52420  -0.50039  -0.49873
 Alpha  occ. eigenvalues --   -0.48005  -0.47896  -0.46781  -0.46645  -0.46116
 Alpha  occ. eigenvalues --   -0.45816  -0.45717  -0.45226  -0.43825  -0.43797
 Alpha virt. eigenvalues --    0.19742   0.21934   0.23671   0.24543   0.26303
 Alpha virt. eigenvalues --    0.26505   0.27010   0.27269   0.27952   0.30049
 Alpha virt. eigenvalues --    0.30803   0.31333   0.31674   0.31884   0.32381

 Mulliken charges:
               1
     1  C   -0.299513
     2  C   -0.307038
     3  C   -0.478520
     4  H    0.150514
     5  H    0.150921
     6  H    0.152597
     7  H    0.155969
     8  H    0.157419
     9  H    0.156390
    10  H    0.160146
    11  C   -0.300808
    12  C   -0.299478
    13  C   -0.475914
    14  H    0.149711
    15  H    0.151228
    16  H    0.152016
    17  H    0.152080
    18  H    0.155586
    19  H    0.155124
    20  H    0.160336
    21  C   -0.309376
    22  C   -0.299062
    23  C   -0.476464
    24  H    0.162827
    25  H    0.148955
    26  H    0.151625
    27  H    0.151816
    28  H    0.155333
    29  H    0.155690
    30  H    0.160190
    31  C   -0.297599
    32  C   -0.309477
    33  C   -0.475397
    34  H    0.148997
    35  H    0.149998
    36  H    0.160473
    37  H    0.151970
    38  H    0.155790
    39  H    0.155008
    40  H    0.159938
 Sum of Mulliken charges =  -0.00000

 Dipole moment (field-independent basis, Debye):
    X=             -0.0161    Y=             -0.0190    Z=             -0.0133  Tot=              0.0282
 Quadrupole moment (field-independent basis, Debye-Ang):
   XX=            -85.1334   YY=            -85.2344   ZZ=            -84.4090
   XY=              1.7164   XZ=             -0.1233   YZ=             -1.0747

 Normal termination of Gaussian 16 at Thu May  6 05:20:53 2021.
