 Gaussian 16, Revision A.03,
 Gaussian 16:  EM64L-G16RevA.03 25-Dec-2016

 -------------
 #p 6-31g* mp2
 -------------

 ------------------------------------------------------
 Input file generated by CHIRIPA (05-May-2021 14:53:16)
 ------------------------------------------------------
 Symbolic Z-matrix:
 Charge =  0 Multiplicity = 1

                         Standard orientation:
 ---------------------------------------------------------------------
 Center     Atomic      Atomic             Coordinates (Angstroms)
 Number     Number       Type             X           Y           Z
 ---------------------------------------------------------------------
      1          6           0        2.605427    0.202282    0.912163
      2          6           0        1.498313   -0.843127    1.051447
      3          6           0        0.338446   -0.363125    1.924432
      4          1           0        2.980548    0.465093    1.910742
      5          1           0        2.180521    1.121623    0.485945
      6          1           0        1.925463   -1.760691    1.475989
      7          1           0        1.125915   -1.103621    0.052408
      8          1           0       -0.114495    0.539268    1.501191
      9          1           0        0.689595   -0.121535    2.932861
     10          1           0       -0.441676   -1.125922    2.010505
     11          6           0        3.771920   -0.262878    0.042308
     12          6           0        4.879035    0.782532   -0.096977
     13          6           0        6.038902    0.302529   -0.969961
     14          1           0        4.196827   -1.182219    0.468526
     15          1           0        3.396799   -0.525688   -0.956271
     16          1           0        5.251432    1.043025    0.902063
     17          1           0        4.451885    1.700096   -0.521518
     18          1           0        5.687752    0.060940   -1.978390
     19          1           0        6.491843   -0.599864   -0.546720
     20          1           0        6.819024    1.065327   -1.056035
     21          6           0       -3.000923    2.472821   -0.044641
     22          6           0       -1.984180    2.080840   -0.921627
     23          6           0       -1.693050    0.726650   -1.111265
     24          6           0       -2.441869   -0.213104   -0.404569
     25          6           0       -3.461022    0.145936    0.476172
     26          6           0       -3.734806    1.505823    0.650234
     27          1           0       -3.220342    3.527001    0.096623
     28          1           0       -1.412606    2.829632   -1.462607
     29          1           0       -0.911344    0.395397   -1.784040
     30          1           0       -4.013610   -0.623584    1.001439
     31          1           0       -4.524990    1.807327    1.331958
     32          7           0       -2.142844   -1.649740   -0.597086
     33          8           0       -2.817065   -2.458175    0.037341
     34          8           0       -1.239910   -1.940138   -1.378762
 ---------------------------------------------------------------------

 SCF Done:  E(RHF) =  -669.535356544     A.U. after   15 cycles
 E2 =    -0.2094431966D+01 EUMP2 =    -0.67162978850930D+03

 The electronic state is 1-A.
 Alpha  occ. eigenvalues --  -20.60946 -20.60941 -15.85948 -11.31224 -11.27813
 Alpha  occ. eigenvalues --  -11.27804 -11.27576 -11.26856 -11.26833 -11.21495
 Alpha  occ. eigenvalues --  -11.21191 -11.21131 -11.21049 -11.20960 -11.20726
 Alpha  occ. eigenvalues --   -1.59991  -1.39551  -1.19435  -1.08842  -1.08189
 Alpha  occ. eigenvalues --   -1.04835  -1.03280  -0.95772  -0.95679  -0.86783
 Alpha  occ. eigenvalues --   -0.86232  -0.82524  -0.79336  -0.77990  -0.77570
 Alpha  occ. eigenvalues --   -0.72186  -0.71324  -0.70549  -0.65097  -0.64870
 Alpha  occ. eigenvalues --   -0.64797  -0.62185  -0.60698  -0.59116  -0.57348
 Alpha  occ. eigenvalues --   -0.55345  -0.55186  -0.53155  -0.52926  -0.52425
 Alpha  occ. eigenvalues --   -0.52136  -0.49661  -0.48962  -0.48937  -0.47660
 Alpha  occ. eigenvalues --   -0.46386  -0.45609  -0.45500  -0.44745  -0.43530
 Alpha  occ. eigenvalues --   -0.37360  -0.36421
 Alpha virt. eigenvalues --    0.04912   0.11151   0.16395   0.21139   0.22993
 Alpha virt. eigenvalues --    0.24360   0.26529   0.27394   0.27529   0.28051
 Alpha virt. eigenvalues --    0.28629   0.30756   0.31409   0.31764   0.32213

 Mulliken charges:
               1
     1  C   -0.297143
     2  C   -0.308202
     3  C   -0.485527
     4  H    0.148116
     5  H    0.142027
     6  H    0.154512
     7  H    0.166598
     8  H    0.155074
     9  H    0.153435
    10  H    0.162340
    11  C   -0.298301
    12  C   -0.298933
    13  C   -0.475531
    14  H    0.151521
    15  H    0.151071
    16  H    0.151432
    17  H    0.148362
    18  H    0.155372
    19  H    0.156249
    20  H    0.158982
    21  C   -0.170793
    22  C   -0.218796
    23  C   -0.173094
    24  C    0.163961
    25  C   -0.170831
    26  C   -0.217948
    27  H    0.226088
    28  H    0.223816
    29  H    0.275136
    30  H    0.275737
    31  H    0.223930
    32  N    0.489792
    33  O   -0.459255
    34  O   -0.459197
 Sum of Mulliken charges =  -0.00000

 Dipole moment (field-independent basis, Debye):
    X=             -1.1931    Y=              4.9525    Z=              0.6197  Tot=              5.1318
 Quadrupole moment (field-independent basis, Debye-Ang):
   XX=            -87.9828   YY=            -97.0290   ZZ=            -93.5437
   XY=            -11.6190   XZ=             -3.1457   YZ=             -3.5549

 Normal termination of Gaussian 16 at Thu May  6 05:55:28 2021.
