 Gaussian 16, Revision A.03,
 Gaussian 16:  EM64L-G16RevA.03 25-Dec-2016

 -------------
 #p 6-31g* mp2
 -------------

 ------------------------------------------------------
 Input file generated by CHIRIPA (05-May-2021 14:51:09)
 ------------------------------------------------------
 Symbolic Z-matrix:
 Charge =  0 Multiplicity = 1

                         Standard orientation:
 ---------------------------------------------------------------------
 Center     Atomic      Atomic             Coordinates (Angstroms)
 Number     Number       Type             X           Y           Z
 ---------------------------------------------------------------------
      1          6           0       -2.284613    1.576518   -0.104093
      2          6           0       -1.253563    1.954468    0.959897
      3          6           0       -0.800175    3.410751    0.852784
      4          1           0       -1.857281    1.756688   -1.100020
      5          1           0       -3.155512    2.240306   -0.012899
      6          1           0       -0.385459    1.289264    0.867615
      7          1           0       -1.683331    1.773197    1.953405
      8          1           0       -1.652120    4.088839    0.966743
      9          1           0       -0.346874    3.602157   -0.125216
     10          1           0       -0.063244    3.659465    1.622805
     11          6           0       -2.747589    0.123752   -0.010006
     12          6           0       -3.778639   -0.254197   -1.073996
     13          6           0       -4.232028   -1.710480   -0.966882
     14          1           0       -1.876691   -0.540036   -0.101200
     15          1           0       -3.174922   -0.056417    0.985921
     16          1           0       -3.348871   -0.072926   -2.067503
     17          1           0       -4.646743    0.411007   -0.981714
     18          1           0       -4.685328   -1.901886    0.011117
     19          1           0       -3.380082   -2.388568   -1.080841
     20          1           0       -4.968959   -1.959194   -1.736904
     21          6           0        2.868896   -0.524928   -0.537263
     22          6           0        4.028392    0.385011   -0.130365
     23          6           0        4.724213    1.028291   -1.330289
     24          1           0        3.244712   -1.309045   -1.208730
     25          1           0        2.139462    0.058762   -1.115734
     26          1           0        4.754749   -0.199894    0.448347
     27          1           0        3.649807    1.166940    0.540364
     28          1           0        4.017644    1.635392   -1.905433
     29          1           0        5.128865    0.260792   -1.997974
     30          1           0        5.549862    1.674622   -1.016568
     31          6           0        2.163306   -1.175344    0.651362
     32          6           0        1.003811   -2.085281    0.244463
     33          6           0        0.307990   -2.728562    1.444388
     34          1           0        2.892740   -1.759032    1.229832
     35          1           0        1.787490   -0.391226    1.322829
     36          1           0        1.382396   -2.867210   -0.426265
     37          1           0        0.277453   -1.500376   -0.334248
     38          1           0       -0.096663   -1.961063    2.112072
     39          1           0        1.014558   -3.335662    2.019532
     40          1           0       -0.517659   -3.374893    1.130667
 ---------------------------------------------------------------------

 SCF Done:  E(RHF) =  -470.733229640     A.U. after   11 cycles
 E2 =    -0.1584091858D+01 EUMP2 =    -0.47231732149796D+03

 The electronic state is 1-A.
 Alpha  occ. eigenvalues --  -11.21675 -11.21636 -11.21626 -11.21616 -11.21445
 Alpha  occ. eigenvalues --  -11.21437 -11.21385 -11.21360 -11.21135 -11.21091
 Alpha  occ. eigenvalues --  -11.21079 -11.21070  -1.08504  -1.08435  -1.03570
 Alpha  occ. eigenvalues --   -1.03558  -0.96030  -0.95988  -0.87033  -0.87015
 Alpha  occ. eigenvalues --   -0.79659  -0.79601  -0.78324  -0.78247  -0.65369
 Alpha  occ. eigenvalues --   -0.64867  -0.60985  -0.60948  -0.59414  -0.59341
 Alpha  occ. eigenvalues --   -0.57638  -0.57606  -0.55398  -0.55198  -0.52711
 Alpha  occ. eigenvalues --   -0.52692  -0.52452  -0.52411  -0.49966  -0.49949
 Alpha  occ. eigenvalues --   -0.47962  -0.47959  -0.46824  -0.46584  -0.46059
 Alpha  occ. eigenvalues --   -0.45804  -0.45717  -0.45381  -0.43822  -0.43810
 Alpha virt. eigenvalues --    0.19182   0.22681   0.23850   0.24477   0.26034
 Alpha virt. eigenvalues --    0.26542   0.27104   0.27442   0.28140   0.29782
 Alpha virt. eigenvalues --    0.30826   0.31463   0.31751   0.31903   0.32415

 Mulliken charges:
               1
     1  C   -0.297598
     2  C   -0.304962
     3  C   -0.475536
     4  H    0.149133
     5  H    0.149960
     6  H    0.155495
     7  H    0.152237
     8  H    0.155713
     9  H    0.155061
    10  H    0.160198
    11  C   -0.308295
    12  C   -0.299144
    13  C   -0.475836
    14  H    0.159608
    15  H    0.149880
    16  H    0.151710
    17  H    0.152001
    18  H    0.155377
    19  H    0.155155
    20  H    0.160315
    21  C   -0.298633
    22  C   -0.299715
    23  C   -0.475696
    24  H    0.149891
    25  H    0.149024
    26  H    0.152074
    27  H    0.152195
    28  H    0.155108
    29  H    0.155181
    30  H    0.160446
    31  C   -0.300958
    32  C   -0.305983
    33  C   -0.476204
    34  H    0.150121
    35  H    0.152191
    36  H    0.152388
    37  H    0.155630
    38  H    0.156823
    39  H    0.155227
    40  H    0.160417
 Sum of Mulliken charges =  -0.00000

 Dipole moment (field-independent basis, Debye):
    X=             -0.0005    Y=             -0.0060    Z=              0.0154  Tot=              0.0166
 Quadrupole moment (field-independent basis, Debye-Ang):
   XX=            -84.2887   YY=            -85.4022   ZZ=            -84.9555
   XY=             -1.5001   XZ=             -0.0840   YZ=              0.5713

 Normal termination of Gaussian 16 at Thu May  6 02:08:47 2021.
