 Gaussian 16, Revision A.03,
 Gaussian 16:  EM64L-G16RevA.03 25-Dec-2016

 -------------
 #p 6-31g* mp2
 -------------

 ------------------------------------------------------
 Input file generated by CHIRIPA (05-May-2021 14:51:11)
 ------------------------------------------------------
 Symbolic Z-matrix:
 Charge =  0 Multiplicity = 1

                         Standard orientation:
 ---------------------------------------------------------------------
 Center     Atomic      Atomic             Coordinates (Angstroms)
 Number     Number       Type             X           Y           Z
 ---------------------------------------------------------------------
      1          6           0       -2.873193   -0.064697   -0.294507
      2          6           0       -4.272476   -0.444954   -0.779685
      3          6           0       -4.426407   -1.946794   -1.021704
      4          1           0       -2.132584   -0.395979   -1.035246
      5          1           0       -2.653331   -0.610965    0.633204
      6          1           0       -4.490176    0.102919   -1.705459
      7          1           0       -5.009856   -0.112558   -0.037795
      8          1           0       -4.235602   -2.506980   -0.100625
      9          1           0       -3.712970   -2.290279   -1.777764
     10          1           0       -5.434189   -2.196418   -1.368004
     11          6           0       -2.703737    1.433405   -0.048132
     12          6           0       -1.304454    1.813661    0.437046
     13          6           0       -1.150523    3.315502    0.679065
     14          1           0       -2.923599    1.979673   -0.975843
     15          1           0       -3.444347    1.764687    0.692607
     16          1           0       -0.567074    1.481266   -0.304843
     17          1           0       -1.086754    1.265789    1.362821
     18          1           0       -1.863961    3.658987    1.435126
     19          1           0       -1.341329    3.875688   -0.242014
     20          1           0       -0.142741    3.565126    1.025365
     21          6           0        3.346399   -0.695501   -0.350234
     22          6           0        4.242206    0.542884   -0.306442
     23          6           0        5.353654    0.505906   -1.355781
     24          1           0        3.963551   -1.592098   -0.201298
     25          1           0        2.903433   -0.783806   -1.351921
     26          1           0        4.682262    0.629598    0.695280
     27          1           0        3.622823    1.436650   -0.455309
     28          1           0        4.930187    0.443412   -2.363436
     29          1           0        5.995647   -0.368226   -1.206310
     30          1           0        5.982009    1.400683   -1.306738
     31          6           0        2.230531   -0.673207    0.692873
     32          6           0        1.334724   -1.911592    0.649081
     33          6           0        0.223276   -1.874614    1.698419
     34          1           0        2.673498   -0.584903    1.694561
     35          1           0        1.613380    0.223389    0.543936
     36          1           0        1.954108   -2.805357    0.797948
     37          1           0        0.894667   -1.998306   -0.352640
     38          1           0       -0.418717   -1.000482    1.548950
     39          1           0        0.646743   -1.812119    2.706076
     40          1           0       -0.405079   -2.769390    1.649377
 ---------------------------------------------------------------------

 SCF Done:  E(RHF) =  -470.732298847     A.U. after   11 cycles
 E2 =    -0.1584530517D+01 EUMP2 =    -0.47231682936403D+03

 The electronic state is 1-A.
 Alpha  occ. eigenvalues --  -11.21695 -11.21624 -11.21581 -11.21526 -11.21454
 Alpha  occ. eigenvalues --  -11.21380 -11.21350 -11.21269 -11.21141 -11.21084
 Alpha  occ. eigenvalues --  -11.21057 -11.20920  -1.08506  -1.08364  -1.03592
 Alpha  occ. eigenvalues --   -1.03470  -0.96038  -0.95916  -0.87047  -0.86945
 Alpha  occ. eigenvalues --   -0.79704  -0.79535  -0.78396  -0.78098  -0.65140
 Alpha  occ. eigenvalues --   -0.65009  -0.60997  -0.60883  -0.59442  -0.59246
 Alpha  occ. eigenvalues --   -0.57672  -0.57523  -0.55334  -0.55207  -0.52736
 Alpha  occ. eigenvalues --   -0.52629  -0.52445  -0.52353  -0.49972  -0.49919
 Alpha  occ. eigenvalues --   -0.48141  -0.47804  -0.46736  -0.46685  -0.46045
 Alpha  occ. eigenvalues --   -0.45702  -0.45685  -0.45139  -0.43828  -0.43726
 Alpha virt. eigenvalues --    0.20968   0.23057   0.23831   0.24036   0.25331
 Alpha virt. eigenvalues --    0.26112   0.26902   0.27821   0.28556   0.29703
 Alpha virt. eigenvalues --    0.30713   0.31402   0.31768   0.31804   0.31868

 Mulliken charges:
               1
     1  C   -0.302788
     2  C   -0.299341
     3  C   -0.475680
     4  H    0.149318
     5  H    0.154682
     6  H    0.151819
     7  H    0.152014
     8  H    0.155510
     9  H    0.155080
    10  H    0.160306
    11  C   -0.298048
    12  C   -0.306843
    13  C   -0.475551
    14  H    0.149605
    15  H    0.149860
    16  H    0.153384
    17  H    0.156456
    18  H    0.155689
    19  H    0.155365
    20  H    0.160747
    21  C   -0.297997
    22  C   -0.299524
    23  C   -0.475630
    24  H    0.149570
    25  H    0.148829
    26  H    0.151918
    27  H    0.151514
    28  H    0.155002
    29  H    0.155202
    30  H    0.160148
    31  C   -0.304546
    32  C   -0.298501
    33  C   -0.485176
    34  H    0.148924
    35  H    0.156396
    36  H    0.151470
    37  H    0.151343
    38  H    0.166671
    39  H    0.153686
    40  H    0.159114
 Sum of Mulliken charges =  -0.00000

 Dipole moment (field-independent basis, Debye):
    X=             -0.0571    Y=              0.0403    Z=              0.0078  Tot=              0.0703
 Quadrupole moment (field-independent basis, Debye-Ang):
   XX=            -85.1525   YY=            -85.7499   ZZ=            -83.9746
   XY=             -0.6100   XZ=              0.6060   YZ=             -0.5132

 Normal termination of Gaussian 16 at Thu May  6 07:02:37 2021.
