 Gaussian 16, Revision A.03,
 Gaussian 16:  EM64L-G16RevA.03 25-Dec-2016

 -------------
 #p 6-31g* mp2
 -------------

 ------------------------------------------------------
 Input file generated by CHIRIPA (05-May-2021 14:51:08)
 ------------------------------------------------------
 Symbolic Z-matrix:
 Charge =  0 Multiplicity = 1

                         Standard orientation:
 ---------------------------------------------------------------------
 Center     Atomic      Atomic             Coordinates (Angstroms)
 Number     Number       Type             X           Y           Z
 ---------------------------------------------------------------------
      1          6           0        3.341572   -0.351055    0.452647
      2          6           0        2.035365   -0.448131   -0.336266
      3          6           0        0.892200   -1.046145    0.484310
      4          1           0        3.625455   -1.352431    0.804219
      5          1           0        3.174903    0.259885    1.350627
      6          1           0        2.204797   -1.057560   -1.233209
      7          1           0        1.754659    0.553563   -0.686164
      8          1           0        0.694480   -0.435832    1.371454
      9          1           0        1.147175   -2.056109    0.821301
     10          1           0       -0.031952   -1.106309   -0.098942
     11          6           0        4.493783    0.244835   -0.354230
     12          6           0        5.799990    0.341911    0.434683
     13          6           0        6.943155    0.939925   -0.385893
     14          1           0        4.660452   -0.366105   -1.252211
     15          1           0        4.209900    1.246211   -0.705802
     16          1           0        6.080696   -0.659783    0.784581
     17          1           0        5.630558    0.951340    1.331626
     18          1           0        6.688180    1.949889   -0.722884
     19          1           0        7.140875    0.329612   -1.273038
     20          1           0        7.867308    1.000089    0.197359
     21          6           0       -3.692418    0.782642   -0.070968
     22          6           0       -4.843445    1.777481    0.082068
     23          6           0       -4.376923    3.232842    0.036511
     24          1           0       -2.956111    0.958250    0.725247
     25          1           0       -3.176008    0.973524   -1.021903
     26          1           0       -5.358390    1.583884    1.031788
     27          1           0       -5.577192    1.599359   -0.714491
     28          1           0       -3.881562    3.448973   -0.915595
     29          1           0       -3.661517    3.433411    0.840605
     30          1           0       -5.215757    3.926990    0.147764
     31          6           0       -4.142936   -0.676422   -0.027449
     32          6           0       -2.991910   -1.671261   -0.180484
     33          6           0       -3.458432   -3.126622   -0.134928
     34          1           0       -4.659348   -0.867304    0.923486
     35          1           0       -4.879244   -0.852030   -0.823664
     36          1           0       -2.258164   -1.493138    0.616074
     37          1           0       -2.476965   -1.477664   -1.130204
     38          1           0       -4.173839   -3.327190   -0.939022
     39          1           0       -3.953794   -3.342753    0.817178
     40          1           0       -2.619599   -3.820769   -0.246182
 ---------------------------------------------------------------------

 SCF Done:  E(RHF) =  -470.732840115     A.U. after   11 cycles
 E2 =    -0.1582755623D+01 EUMP2 =    -0.47231559573759D+03

 The electronic state is 1-A.
 Alpha  occ. eigenvalues --  -11.21602 -11.21582 -11.21565 -11.21548 -11.21398
 Alpha  occ. eigenvalues --  -11.21372 -11.21339 -11.21312 -11.21075 -11.21056
 Alpha  occ. eigenvalues --  -11.21056 -11.20941  -1.08432  -1.08391  -1.03545
 Alpha  occ. eigenvalues --   -1.03472  -0.95983  -0.95929  -0.87023  -0.86931
 Alpha  occ. eigenvalues --   -0.79692  -0.79476  -0.78260  -0.78193  -0.65059
 Alpha  occ. eigenvalues --   -0.65024  -0.60931  -0.60884  -0.59539  -0.59152
 Alpha  occ. eigenvalues --   -0.57658  -0.57470  -0.55260  -0.55226  -0.52780
 Alpha  occ. eigenvalues --   -0.52594  -0.52403  -0.52321  -0.49916  -0.49881
 Alpha  occ. eigenvalues --   -0.48022  -0.47743  -0.46634  -0.46585  -0.45784
 Alpha  occ. eigenvalues --   -0.45762  -0.45703  -0.45669  -0.43811  -0.43613
 Alpha virt. eigenvalues --    0.22338   0.23044   0.23769   0.24658   0.26222
 Alpha virt. eigenvalues --    0.26542   0.26717   0.27580   0.27982   0.29036
 Alpha virt. eigenvalues --    0.30614   0.31019   0.31431   0.31939   0.32032

 Mulliken charges:
               1
     1  C   -0.298385
     2  C   -0.299572
     3  C   -0.482904
     4  H    0.149445
     5  H    0.149294
     6  H    0.151460
     7  H    0.151795
     8  H    0.153449
     9  H    0.154124
    10  H    0.170490
    11  C   -0.298194
    12  C   -0.299573
    13  C   -0.475674
    14  H    0.149395
    15  H    0.149569
    16  H    0.151872
    17  H    0.151857
    18  H    0.155149
    19  H    0.155133
    20  H    0.160173
    21  C   -0.298755
    22  C   -0.299562
    23  C   -0.475681
    24  H    0.150066
    25  H    0.149213
    26  H    0.151961
    27  H    0.151961
    28  H    0.155134
    29  H    0.155105
    30  H    0.160257
    31  C   -0.297533
    32  C   -0.305913
    33  C   -0.475485
    34  H    0.149493
    35  H    0.149403
    36  H    0.159549
    37  H    0.151216
    38  H    0.154929
    39  H    0.155204
    40  H    0.160534
 Sum of Mulliken charges =  -0.00000

 Dipole moment (field-independent basis, Debye):
    X=             -0.0387    Y=             -0.0095    Z=              0.0027  Tot=              0.0400
 Quadrupole moment (field-independent basis, Debye-Ang):
   XX=            -85.7367   YY=            -85.2893   ZZ=            -83.8762
   XY=             -0.8081   XZ=              0.4210   YZ=              0.4949

 Normal termination of Gaussian 16 at Thu May  6 05:16:26 2021.
