 Gaussian 16, Revision A.03,
 Gaussian 16:  EM64L-G16RevA.03 25-Dec-2016

 -------------
 #p 6-31g* mp2
 -------------

 ------------------------------------------------------
 Input file generated by CHIRIPA (05-May-2021 14:51:14)
 ------------------------------------------------------
 Symbolic Z-matrix:
 Charge =  0 Multiplicity = 1

                         Standard orientation:
 ---------------------------------------------------------------------
 Center     Atomic      Atomic             Coordinates (Angstroms)
 Number     Number       Type             X           Y           Z
 ---------------------------------------------------------------------
      1          6           0       -3.385338   -0.177104    0.684381
      2          6           0       -2.053846   -0.879574    0.416706
      3          6           0       -0.972278   -0.502155    1.429405
      4          1           0       -3.228840    0.910176    0.667771
      5          1           0       -3.727153   -0.428245    1.698030
      6          1           0       -1.715331   -0.628289   -0.596645
      7          1           0       -2.213570   -1.965306    0.433764
      8          1           0       -1.284952   -0.768507    2.444241
      9          1           0       -0.783882    0.576107    1.407978
     10          1           0       -0.028846   -1.015634    1.219318
     11          6           0       -4.476583   -0.544250   -0.319669
     12          6           0       -5.808075    0.158221   -0.051994
     13          6           0       -6.889643   -0.219198   -1.064693
     14          1           0       -4.134768   -0.293108   -1.333318
     15          1           0       -4.633082   -1.631530   -0.303059
     16          1           0       -5.648352    1.243952   -0.069052
     17          1           0       -6.146590   -0.093065    0.961357
     18          1           0       -7.078039   -1.297460   -1.043265
     19          1           0       -6.576969    0.047154   -2.079529
     20          1           0       -7.833075    0.294280   -0.854606
     21          6           0        3.659663    1.065174   -0.066108
     22          6           0        2.141532    1.163343   -0.219811
     23          6           0        1.613814    2.578903    0.015766
     24          1           0        3.942281    1.400482    0.941185
     25          1           0        4.138243    1.758098   -0.771950
     26          1           0        1.665991    0.469431    0.485145
     27          1           0        1.862476    0.827580   -1.226791
     28          1           0        2.061151    3.280228   -0.696017
     29          1           0        1.863549    2.920043    1.025645
     30          1           0        0.526425    2.626281   -0.099126
     31          6           0        4.202258   -0.343821   -0.298604
     32          6           0        5.720390   -0.441990   -0.144900
     33          6           0        6.248107   -1.857549   -0.380478
     34          1           0        3.723678   -1.036744    0.407238
     35          1           0        3.919640   -0.679129   -1.305898
     36          1           0        5.999445   -0.106226    0.862078
     37          1           0        6.195930    0.251923   -0.849857
     38          1           0        5.998371   -2.198690   -1.390357
     39          1           0        5.800770   -2.558874    0.331305
     40          1           0        7.335496   -1.904927   -0.265587
 ---------------------------------------------------------------------

 SCF Done:  E(RHF) =  -470.732626206     A.U. after   11 cycles
 E2 =    -0.1583110638D+01 EUMP2 =    -0.47231573684353D+03

 The electronic state is 1-A.
 Alpha  occ. eigenvalues --  -11.21611 -11.21607 -11.21583 -11.21466 -11.21415
 Alpha  occ. eigenvalues --  -11.21371 -11.21356 -11.21302 -11.21075 -11.21066
 Alpha  occ. eigenvalues --  -11.21058 -11.21056  -1.08445  -1.08385  -1.03571
 Alpha  occ. eigenvalues --   -1.03464  -0.96028  -0.95922  -0.87025  -0.86963
 Alpha  occ. eigenvalues --   -0.79669  -0.79501  -0.78259  -0.78195  -0.65106
 Alpha  occ. eigenvalues --   -0.65000  -0.61079  -0.60805  -0.59443  -0.59241
 Alpha  occ. eigenvalues --   -0.57610  -0.57571  -0.55359  -0.55139  -0.52749
 Alpha  occ. eigenvalues --   -0.52637  -0.52459  -0.52322  -0.49964  -0.49856
 Alpha  occ. eigenvalues --   -0.47979  -0.47805  -0.46732  -0.46479  -0.45797
 Alpha  occ. eigenvalues --   -0.45742  -0.45735  -0.45617  -0.43787  -0.43697
 Alpha virt. eigenvalues --    0.21371   0.23031   0.23562   0.24979   0.25933
 Alpha virt. eigenvalues --    0.26561   0.26880   0.27369   0.27815   0.29231
 Alpha virt. eigenvalues --    0.30693   0.31252   0.31580   0.31878   0.32803

 Mulliken charges:
               1
     1  C   -0.298612
     2  C   -0.299839
     3  C   -0.480536
     4  H    0.149510
     5  H    0.149615
     6  H    0.152635
     7  H    0.151971
     8  H    0.154921
     9  H    0.159171
    10  H    0.162228
    11  C   -0.298318
    12  C   -0.299667
    13  C   -0.475712
    14  H    0.149554
    15  H    0.149705
    16  H    0.151971
    17  H    0.151942
    18  H    0.155185
    19  H    0.155196
    20  H    0.160285
    21  C   -0.297631
    22  C   -0.306971
    23  C   -0.476375
    24  H    0.149369
    25  H    0.148953
    26  H    0.162229
    27  H    0.150534
    28  H    0.155078
    29  H    0.155132
    30  H    0.159307
    31  C   -0.298201
    32  C   -0.299570
    33  C   -0.475701
    34  H    0.148786
    35  H    0.149509
    36  H    0.151960
    37  H    0.151957
    38  H    0.155111
    39  H    0.155113
    40  H    0.160204
 Sum of Mulliken charges =  -0.00000

 Dipole moment (field-independent basis, Debye):
    X=             -0.0260    Y=             -0.0162    Z=              0.0186  Tot=              0.0358
 Quadrupole moment (field-independent basis, Debye-Ang):
   XX=            -85.8990   YY=            -85.1702   ZZ=            -83.8797
   XY=              0.5910   XZ=             -0.7471   YZ=             -0.9165

 Normal termination of Gaussian 16 at Wed May  5 23:16:15 2021.
