 Gaussian 16, Revision A.03,
 Gaussian 16:  EM64L-G16RevA.03 25-Dec-2016

 -------------
 #p 6-31g* mp2
 -------------

 ------------------------------------------------------
 Input file generated by CHIRIPA (05-May-2021 14:57:21)
 ------------------------------------------------------
 Symbolic Z-matrix:
 Charge =  0 Multiplicity = 1

                         Standard orientation:
 ---------------------------------------------------------------------
 Center     Atomic      Atomic             Coordinates (Angstroms)
 Number     Number       Type             X           Y           Z
 ---------------------------------------------------------------------
      1          6           0        5.779084    1.317609    0.008809
      2          6           0        5.056368    1.067926   -1.162456
      3          6           0        3.886350    0.303571   -1.125483
      4          6           0        3.466016   -0.197868    0.105439
      5          6           0        4.164180    0.033512    1.289635
      6          6           0        5.331472    0.800517    1.228965
      7          1           0        6.686923    1.912407   -0.029117
      8          1           0        5.401618    1.468234   -2.111456
      9          1           0        3.307528    0.094933   -2.017029
     10          1           0        3.795037   -0.378939    2.220783
     11          1           0        5.890718    0.992816    2.140179
     12          7           0        2.228813   -1.008459    0.157124
     13          8           0        1.879588   -1.438910    1.254116
     14          8           0        1.631745   -1.197999   -0.900335
     15          6           0       -2.490579   -2.109769   -0.595535
     16          6           0       -2.121973   -0.942281   -1.272012
     17          6           0       -2.768535    0.267916   -1.003811
     18          6           0       -3.783936    0.274450   -0.048716
     19          6           0       -4.173927   -0.871918    0.641961
     20          6           0       -3.513576   -2.070931    0.357611
     21          1           0       -1.982958   -3.045535   -0.810152
     22          1           0       -1.327854   -0.969469   -2.012743
     23          1           0       -2.503236    1.186595   -1.512793
     24          1           0       -4.969282   -0.813473    1.375045
     25          1           0       -3.801944   -2.976061    0.884516
     26          7           0       -4.475721    1.549711    0.243763
     27          8           0       -5.367137    1.529007    1.089688
     28          8           0       -4.113428    2.545817   -0.378453
 ---------------------------------------------------------------------

 SCF Done:  E(RHF) =  -868.339859827     A.U. after   16 cycles
 E2 =    -0.2598436305D+01 EUMP2 =    -0.87093829613245D+03

 The electronic state is 1-A.
 Alpha  occ. eigenvalues --  -20.61536 -20.61489 -20.59953 -20.59948 -15.86551
 Alpha  occ. eigenvalues --  -15.84995 -11.31687 -11.30095 -11.28246 -11.28210
 Alpha  occ. eigenvalues --  -11.27919 -11.27195 -11.27173 -11.26648 -11.26585
 Alpha  occ. eigenvalues --  -11.26205 -11.25602 -11.25422  -1.60575  -1.59034
 Alpha  occ. eigenvalues --   -1.40139  -1.38595  -1.19835  -1.18213  -1.09271
 Alpha  occ. eigenvalues --   -1.07633  -1.05205  -1.03577  -0.96147  -0.94528
 Alpha  occ. eigenvalues --   -0.86614  -0.84969  -0.82992  -0.81378  -0.78064
 Alpha  occ. eigenvalues --   -0.76478  -0.72795  -0.71875  -0.71222  -0.70942
 Alpha  occ. eigenvalues --   -0.70352  -0.69291  -0.65495  -0.65206  -0.63855
 Alpha  occ. eigenvalues --   -0.63546  -0.62559  -0.60938  -0.55710  -0.54025
 Alpha  occ. eigenvalues --   -0.53543  -0.53296  -0.51913  -0.51655  -0.49548
 Alpha  occ. eigenvalues --   -0.49508  -0.47992  -0.47949  -0.45591  -0.44062
 Alpha  occ. eigenvalues --   -0.37797  -0.36797  -0.36119  -0.35166
 Alpha virt. eigenvalues --    0.04453   0.06040   0.10861   0.12502   0.15995
 Alpha virt. eigenvalues --    0.17640   0.21014   0.22671   0.26940   0.27816
 Alpha virt. eigenvalues --    0.28572   0.29509   0.30606   0.31988   0.32352

 Mulliken charges:
               1
     1  C   -0.169836
     2  C   -0.218234
     3  C   -0.170546
     4  C    0.158279
     5  C   -0.170108
     6  C   -0.218326
     7  H    0.227637
     8  H    0.224800
     9  H    0.273159
    10  H    0.276558
    11  H    0.225428
    12  N    0.490830
    13  O   -0.457027
    14  O   -0.471160
    15  C   -0.165719
    16  C   -0.211281
    17  C   -0.175108
    18  C    0.157843
    19  C   -0.172933
    20  C   -0.218558
    21  H    0.228968
    22  H    0.232725
    23  H    0.270522
    24  H    0.271456
    25  H    0.220152
    26  N    0.488264
    27  O   -0.463572
    28  O   -0.464213
 Sum of Mulliken charges =  -0.00000

 Dipole moment (field-independent basis, Debye):
    X=              7.2901    Y=             -1.7645    Z=             -1.2047  Tot=              7.5967
 Quadrupole moment (field-independent basis, Debye-Ang):
   XX=            -93.0646   YY=           -108.5589   ZZ=            -97.9817
   XY=             29.1690   XZ=              2.3987   YZ=             -2.1052

 Normal termination of Gaussian 16 at Wed May  5 19:17:37 2021.
