 Gaussian 16, Revision A.03,
 Gaussian 16:  EM64L-G16RevA.03 25-Dec-2016

 -------------
 #p 6-31g* mp2
 -------------

 ------------------------------------------------------
 Input file generated by CHIRIPA (05-May-2021 14:57:24)
 ------------------------------------------------------
 Symbolic Z-matrix:
 Charge =  0 Multiplicity = 1

                         Standard orientation:
 ---------------------------------------------------------------------
 Center     Atomic      Atomic             Coordinates (Angstroms)
 Number     Number       Type             X           Y           Z
 ---------------------------------------------------------------------
      1          6           0        1.372054    2.425729    0.877720
      2          6           0        1.828347    1.490654    1.812574
      3          6           0        2.586743    0.389710    1.403544
      4          6           0        2.871606    0.254245    0.045680
      5          6           0        2.431351    1.168815   -0.909845
      6          6           0        1.674479    2.262114   -0.478115
      7          1           0        0.783506    3.278000    1.204282
      8          1           0        1.595001    1.615172    2.866182
      9          1           0        2.952661   -0.349255    2.106005
     10          1           0        2.679994    1.017841   -1.953301
     11          1           0        1.321445    2.986727   -1.206365
     12          7           0        3.673679   -0.907228   -0.399357
     13          8           0        3.911107   -1.003906   -1.601405
     14          8           0        4.049728   -1.698921    0.462296
     15          6           0       -0.433580   -1.468949   -0.074865
     16          6           0       -1.409106   -1.902188    0.829112
     17          6           0       -2.690062   -1.342310    0.813721
     18          6           0       -2.962333   -0.346743   -0.123298
     19          6           0       -2.011811    0.106174   -1.036896
     20          6           0       -0.737510   -0.467916   -1.003348
     21          1           0        0.558913   -1.909396   -0.055856
     22          1           0       -1.175894   -2.679439    1.551289
     23          1           0       -3.464180   -1.658940    1.502128
     24          1           0       -2.274053    0.882719   -1.745152
     25          1           0        0.018115   -0.129490   -1.706584
     26          7           0       -4.314902    0.253497   -0.149203
     27          8           0       -4.529645    1.129123   -0.984549
     28          8           0       -5.134691   -0.163025    0.666329
 ---------------------------------------------------------------------

 SCF Done:  E(RHF) =  -868.336494458     A.U. after   16 cycles
 E2 =    -0.2604132570D+01 EUMP2 =    -0.87094062702795D+03

 The electronic state is 1-A.
 Alpha  occ. eigenvalues --  -20.61881 -20.61874 -20.60960 -20.60951 -15.86922
 Alpha  occ. eigenvalues --  -15.86008 -11.32194 -11.31296 -11.28742 -11.28725
 Alpha  occ. eigenvalues --  -11.28356 -11.27847 -11.27827 -11.27697 -11.27655
 Alpha  occ. eigenvalues --  -11.27492 -11.26819 -11.26770  -1.60973  -1.60037
 Alpha  occ. eigenvalues --   -1.40520  -1.39593  -1.20366  -1.19442  -1.09742
 Alpha  occ. eigenvalues --   -1.08843  -1.05747  -1.04834  -0.96597  -0.95698
 Alpha  occ. eigenvalues --   -0.87128  -0.86236  -0.83424  -0.82537  -0.78509
 Alpha  occ. eigenvalues --   -0.77614  -0.73117  -0.72387  -0.72220  -0.71403
 Alpha  occ. eigenvalues --   -0.71364  -0.70504  -0.65984  -0.65699  -0.65090
 Alpha  occ. eigenvalues --   -0.64869  -0.63081  -0.62221  -0.56155  -0.55319
 Alpha  occ. eigenvalues --   -0.54378  -0.53797  -0.53027  -0.52725  -0.49895
 Alpha  occ. eigenvalues --   -0.49875  -0.48989  -0.48976  -0.45924  -0.45016
 Alpha  occ. eigenvalues --   -0.38325  -0.37493  -0.37301  -0.36243
 Alpha virt. eigenvalues --    0.03957   0.04924   0.10210   0.11221   0.15460
 Alpha virt. eigenvalues --    0.16478   0.20340   0.21473   0.25923   0.27074
 Alpha virt. eigenvalues --    0.27843   0.28024   0.30397   0.30498   0.31809

 Mulliken charges:
               1
     1  C   -0.166680
     2  C   -0.214191
     3  C   -0.173460
     4  C    0.155236
     5  C   -0.185685
     6  C   -0.215751
     7  H    0.231906
     8  H    0.227847
     9  H    0.276348
    10  H    0.275921
    11  H    0.226832
    12  N    0.486143
    13  O   -0.458632
    14  O   -0.459415
    15  C   -0.172153
    16  C   -0.220729
    17  C   -0.172711
    18  C    0.157824
    19  C   -0.175531
    20  C   -0.210703
    21  H    0.229108
    22  H    0.224676
    23  H    0.274893
    24  H    0.271782
    25  H    0.221828
    26  N    0.487902
    27  O   -0.462310
    28  O   -0.460295
 Sum of Mulliken charges =  -0.00000

 Dipole moment (field-independent basis, Debye):
    X=              2.1082    Y=              2.1444    Z=              1.8409  Tot=              3.5259
 Quadrupole moment (field-independent basis, Debye-Ang):
   XX=           -150.8631   YY=            -99.5340   ZZ=            -97.5996
   XY=             16.8001   XZ=              2.8160   YZ=             -3.2525

 Normal termination of Gaussian 16 at Thu May  6 03:27:27 2021.
