 Gaussian 16, Revision A.03,
 Gaussian 16:  EM64L-G16RevA.03 25-Dec-2016

 -------------
 #p 6-31g* mp2
 -------------

 ------------------------------------------------------
 Input file generated by CHIRIPA (05-May-2021 14:53:13)
 ------------------------------------------------------
 Symbolic Z-matrix:
 Charge =  0 Multiplicity = 1

                         Standard orientation:
 ---------------------------------------------------------------------
 Center     Atomic      Atomic             Coordinates (Angstroms)
 Number     Number       Type             X           Y           Z
 ---------------------------------------------------------------------
      1          6           0        4.053895    0.179119   -0.066639
      2          6           0        5.532336   -0.136965   -0.295306
      3          6           0        6.301847    1.038734   -0.898116
      4          1           0        3.595223    0.468093   -1.022179
      5          1           0        3.970902    1.051429    0.596372
      6          1           0        5.612506   -1.009267   -0.956576
      7          1           0        5.987498   -0.425405    0.660857
      8          1           0        6.251591    1.910926   -0.238301
      9          1           0        5.874469    1.323748   -1.864923
     10          1           0        7.356563    0.790987   -1.053213
     11          6           0        3.271288   -0.986475    0.535561
     12          6           0        1.792847   -0.670391    0.764228
     13          6           0        1.023337   -1.846090    1.367038
     14          1           0        3.354282   -1.858785   -0.127449
     15          1           0        3.729961   -1.275449    1.491101
     16          1           0        1.337686   -0.381951   -0.191935
     17          1           0        1.712677    0.201911    1.425498
     18          1           0        1.450715   -2.131104    2.333845
     19          1           0        1.073593   -2.718282    0.707223
     20          1           0       -0.031379   -1.598343    1.522135
     21          6           0       -1.917903    2.601831    0.314668
     22          6           0       -3.275666    2.342970    0.529127
     23          6           0       -3.809303    1.079798    0.256775
     24          6           0       -2.952614    0.094327   -0.231302
     25          6           0       -1.595583    0.321376   -0.455372
     26          6           0       -1.083666    1.591989   -0.176032
     27          1           0       -1.511797    3.585984    0.528952
     28          1           0       -3.925905    3.125316    0.910135
     29          1           0       -4.856680    0.852164    0.413627
     30          1           0       -0.972262   -0.478641   -0.835979
     31          1           0       -0.028817    1.790170   -0.343545
     32          7           0       -3.506054   -1.246875   -0.523328
     33          8           0       -2.730313   -2.098077   -0.952650
     34          8           0       -4.705104   -1.421512   -0.317366
 ---------------------------------------------------------------------

 SCF Done:  E(RHF) =  -669.534683819     A.U. after   15 cycles
 E2 =    -0.2093160865D+01 EUMP2 =    -0.67162784468451D+03

 The electronic state is 1-A.
 Alpha  occ. eigenvalues --  -20.60745 -20.60739 -15.85794 -11.31144 -11.27711
 Alpha  occ. eigenvalues --  -11.27667 -11.27441 -11.26730 -11.26668 -11.22284
 Alpha  occ. eigenvalues --  -11.22009 -11.21923 -11.21842 -11.21446 -11.21291
 Alpha  occ. eigenvalues --   -1.59818  -1.39371  -1.19316  -1.08939  -1.08710
 Alpha  occ. eigenvalues --   -1.04733  -1.03972  -0.96389  -0.95547  -0.87396
 Alpha  occ. eigenvalues --   -0.86107  -0.82401  -0.80082  -0.78798  -0.77407
 Alpha  occ. eigenvalues --   -0.72013  -0.71142  -0.70439  -0.65587  -0.64961
 Alpha  occ. eigenvalues --   -0.64711  -0.62225  -0.61286  -0.59721  -0.58006
 Alpha  occ. eigenvalues --   -0.55662  -0.55195  -0.53177  -0.52996  -0.52877
 Alpha  occ. eigenvalues --   -0.52630  -0.50314  -0.48773  -0.48769  -0.48361
 Alpha  occ. eigenvalues --   -0.47114  -0.46299  -0.46219  -0.44781  -0.44227
 Alpha  occ. eigenvalues --   -0.37296  -0.36282
 Alpha virt. eigenvalues --    0.05075   0.11271   0.16545   0.20337   0.22713
 Alpha virt. eigenvalues --    0.23918   0.25409   0.26050   0.27102   0.28334
 Alpha virt. eigenvalues --    0.29058   0.30782   0.31112   0.31471   0.32100

 Mulliken charges:
               1
     1  C   -0.298941
     2  C   -0.299909
     3  C   -0.476052
     4  H    0.146569
     5  H    0.147261
     6  H    0.154155
     7  H    0.153466
     8  H    0.154451
     9  H    0.154964
    10  H    0.162172
    11  C   -0.297672
    12  C   -0.303562
    13  C   -0.479390
    14  H    0.153426
    15  H    0.152619
    16  H    0.139835
    17  H    0.150754
    18  H    0.157450
    19  H    0.162647
    20  H    0.164805
    21  C   -0.171630
    22  C   -0.218501
    23  C   -0.171219
    24  C    0.157834
    25  C   -0.174246
    26  C   -0.218987
    27  H    0.225389
    28  H    0.223215
    29  H    0.275343
    30  H    0.279819
    31  H    0.226591
    32  N    0.488610
    33  O   -0.460810
    34  O   -0.460457
 Sum of Mulliken charges =  -0.00000

 Dipole moment (field-independent basis, Debye):
    X=              2.0589    Y=              4.6096    Z=              1.0879  Tot=              5.1644
 Quadrupole moment (field-independent basis, Debye-Ang):
   XX=           -102.3415   YY=            -94.1511   ZZ=            -94.8580
   XY=            -16.2053   XZ=             -4.4794   YZ=              0.0957

 Normal termination of Gaussian 16 at Thu May  6 10:30:18 2021.
