 Gaussian 16, Revision A.03,
 Gaussian 16:  EM64L-G16RevA.03 25-Dec-2016

 -------------
 #p 6-31g* mp2
 -------------

 ------------------------------------------------------
 Input file generated by CHIRIPA (05-May-2021 14:53:16)
 ------------------------------------------------------
 Symbolic Z-matrix:
 Charge =  0 Multiplicity = 1

                         Standard orientation:
 ---------------------------------------------------------------------
 Center     Atomic      Atomic             Coordinates (Angstroms)
 Number     Number       Type             X           Y           Z
 ---------------------------------------------------------------------
      1          6           0        2.597537    0.613195   -0.197239
      2          6           0        2.773351    1.873372   -1.045195
      3          6           0        1.475154    2.665560   -1.203038
      4          1           0        1.830065   -0.025394   -0.655645
      5          1           0        2.217095    0.896699    0.793863
      6          1           0        3.154661    1.587704   -2.033938
      7          1           0        3.540630    2.508946   -0.584821
      8          1           0        1.093809    2.978883   -0.225794
      9          1           0        0.705647    2.052406   -1.683144
     10          1           0        1.623654    3.562304   -1.812675
     11          6           0        3.886603   -0.189414   -0.030339
     12          6           0        3.710789   -1.449590    0.817617
     13          6           0        5.008987   -2.241778    0.975460
     14          1           0        4.267046   -0.472918   -1.021442
     15          1           0        4.654075    0.449176    0.428066
     16          1           0        2.943510   -2.085165    0.357243
     17          1           0        3.329479   -1.163922    1.806360
     18          1           0        5.778494   -1.628624    1.455566
     19          1           0        5.390331   -2.555101   -0.001785
     20          1           0        4.860486   -3.138523    1.585097
     21          6           0       -2.313064    1.536124    1.938749
     22          6           0       -1.745910    1.787748    0.685137
     23          6           0       -1.861475    0.852053   -0.347175
     24          6           0       -2.554117   -0.330051   -0.089939
     25          6           0       -3.130196   -0.609753    1.148281
     26          6           0       -3.002182    0.340286    2.165920
     27          1           0       -2.218455    2.268566    2.734974
     28          1           0       -1.210171    2.715588    0.505856
     29          1           0       -1.432118    1.021259   -1.327194
     30          1           0       -3.658344   -1.543774    1.296884
     31          1           0       -3.443660    0.142189    3.138493
     32          7           0       -2.683051   -1.328221   -1.175034
     33          8           0       -3.298252   -2.361969   -0.922985
     34          8           0       -2.166466   -1.057938   -2.257034
 ---------------------------------------------------------------------

 SCF Done:  E(RHF) =  -669.534801050     A.U. after   15 cycles
 E2 =    -0.2092501097D+01 EUMP2 =    -0.67162730214739D+03

 The electronic state is 1-A.
 Alpha  occ. eigenvalues --  -20.60753 -20.60747 -15.85803 -11.31131 -11.27699
 Alpha  occ. eigenvalues --  -11.27673 -11.27431 -11.26717 -11.26653 -11.22065
 Alpha  occ. eigenvalues --  -11.21907 -11.21675 -11.21652 -11.21523 -11.21107
 Alpha  occ. eigenvalues --   -1.59827  -1.39382  -1.19300  -1.08711  -1.08688
 Alpha  occ. eigenvalues --   -1.04704  -1.03850  -0.96335  -0.95546  -0.87369
 Alpha  occ. eigenvalues --   -0.86102  -0.82383  -0.79940  -0.78476  -0.77414
 Alpha  occ. eigenvalues --   -0.72023  -0.71149  -0.70428  -0.65346  -0.64954
 Alpha  occ. eigenvalues --   -0.64708  -0.62114  -0.61243  -0.59688  -0.57903
 Alpha  occ. eigenvalues --   -0.55659  -0.55214  -0.53058  -0.53038  -0.52855
 Alpha  occ. eigenvalues --   -0.52661  -0.50256  -0.48782  -0.48777  -0.48225
 Alpha  occ. eigenvalues --   -0.46926  -0.46021  -0.45911  -0.44794  -0.44074
 Alpha  occ. eigenvalues --   -0.37285  -0.36267
 Alpha virt. eigenvalues --    0.05083   0.11280   0.16535   0.20403   0.22791
 Alpha virt. eigenvalues --    0.24037   0.25305   0.25773   0.27417   0.27756
 Alpha virt. eigenvalues --    0.29162   0.29857   0.31524   0.31568   0.32457

 Mulliken charges:
               1
     1  C   -0.300201
     2  C   -0.299030
     3  C   -0.481675
     4  H    0.154552
     5  H    0.147201
     6  H    0.156890
     7  H    0.152858
     8  H    0.147803
     9  H    0.154282
    10  H    0.164300
    11  C   -0.298740
    12  C   -0.300312
    13  C   -0.475936
    14  H    0.151887
    15  H    0.148732
    16  H    0.155647
    17  H    0.150275
    18  H    0.154228
    19  H    0.156586
    20  H    0.161018
    21  C   -0.171841
    22  C   -0.220122
    23  C   -0.175473
    24  C    0.159428
    25  C   -0.170962
    26  C   -0.218423
    27  H    0.225173
    28  H    0.228195
    29  H    0.278969
    30  H    0.275259
    31  H    0.223078
    32  N    0.488056
    33  O   -0.460427
    34  O   -0.461276
 Sum of Mulliken charges =  -0.00000

 Dipole moment (field-independent basis, Debye):
    X=              0.5827    Y=              3.4672    Z=              3.7820  Tot=              5.1638
 Quadrupole moment (field-independent basis, Debye-Ang):
   XX=            -96.8143   YY=            -95.9906   ZZ=            -93.3099
   XY=             -6.7648   XZ=            -11.9782   YZ=             -3.0897

 Normal termination of Gaussian 16 at Wed May  5 18:42:51 2021.
