 Gaussian 16, Revision A.03,
 Gaussian 16:  EM64L-G16RevA.03 25-Dec-2016

 -------------
 #p 6-31g* mp2
 -------------

 ------------------------------------------------------
 Input file generated by CHIRIPA (05-May-2021 14:55:22)
 ------------------------------------------------------
 Symbolic Z-matrix:
 Charge =  0 Multiplicity = 1

                         Standard orientation:
 ---------------------------------------------------------------------
 Center     Atomic      Atomic             Coordinates (Angstroms)
 Number     Number       Type             X           Y           Z
 ---------------------------------------------------------------------
      1          6           0        2.073906    2.008459    0.747822
      2          6           0        1.806931    1.377480   -0.471649
      3          6           0        2.516333    0.233561   -0.849465
      4          6           0        3.490259   -0.254503    0.020336
      5          6           0        3.779298    0.351703    1.241917
      6          6           0        3.057503    1.494463    1.599212
      7          1           0        1.518012    2.896633    1.033348
      8          1           0        1.043617    1.774433   -1.134843
      9          1           0        2.329985   -0.274736   -1.787722
     10          1           0        4.546110   -0.067431    1.882029
     11          1           0        3.266971    1.982413    2.546879
     12          7           0        4.247830   -1.464906   -0.368778
     13          8           0        5.100876   -1.875108    0.415240
     14          8           0        3.974225   -1.980499   -1.450416
     15          6           0       -3.753938    0.343967   -0.557490
     16          6           0       -3.365823    1.786607   -0.231694
     17          6           0       -2.256766    2.319738   -1.139195
     18          1           0       -2.865976   -0.296833   -0.468931
     19          1           0       -4.077524    0.286543   -1.606008
     20          1           0       -3.044380    1.841556    0.816290
     21          1           0       -4.254854    2.424016   -0.320853
     22          1           0       -2.571097    2.293879   -2.187588
     23          1           0       -1.353745    1.708111   -1.043984
     24          1           0       -1.994947    3.352530   -0.888889
     25          6           0       -4.861490   -0.203131    0.341255
     26          6           0       -5.249605   -1.645771    0.015459
     27          6           0       -6.358662   -2.178903    0.922960
     28          1           0       -4.537904   -0.145708    1.389772
     29          1           0       -5.749453    0.437669    0.252695
     30          1           0       -4.360574   -2.283180    0.104617
     31          1           0       -5.571047   -1.700720   -1.032525
     32          1           0       -7.261683   -1.567275    0.827749
     33          1           0       -6.044330   -2.153044    1.971353
     34          1           0       -6.620481   -3.211694    0.672654
 ---------------------------------------------------------------------

 SCF Done:  E(RHF) =  -669.535586142     A.U. after   15 cycles
 E2 =    -0.2090874114D+01 EUMP2 =    -0.67162646025624D+03

 The electronic state is 1-A.
 Alpha  occ. eigenvalues --  -20.60758 -20.60753 -15.85811 -11.31178 -11.27754
 Alpha  occ. eigenvalues --  -11.27742 -11.27487 -11.26762 -11.26719 -11.22325
 Alpha  occ. eigenvalues --  -11.22073 -11.21914 -11.21889 -11.21766 -11.21300
 Alpha  occ. eigenvalues --   -1.59833  -1.39387  -1.19351  -1.08931  -1.08743
 Alpha  occ. eigenvalues --   -1.04755  -1.04069  -0.96540  -0.95578  -0.87569
 Alpha  occ. eigenvalues --   -0.86148  -0.82411  -0.80146  -0.78707  -0.77459
 Alpha  occ. eigenvalues --   -0.72029  -0.71157  -0.70454  -0.65573  -0.65001
 Alpha  occ. eigenvalues --   -0.64768  -0.62144  -0.61432  -0.59926  -0.58127
 Alpha  occ. eigenvalues --   -0.55849  -0.55241  -0.53272  -0.53108  -0.53033
 Alpha  occ. eigenvalues --   -0.52731  -0.50462  -0.48791  -0.48784  -0.48446
 Alpha  occ. eigenvalues --   -0.47154  -0.46258  -0.46154  -0.44792  -0.44308
 Alpha  occ. eigenvalues --   -0.37329  -0.36354
 Alpha virt. eigenvalues --    0.05076   0.11202   0.16534   0.20558   0.22543
 Alpha virt. eigenvalues --    0.23918   0.25577   0.26390   0.27141   0.28052
 Alpha virt. eigenvalues --    0.28916   0.30033   0.31079   0.31420   0.31991

 Mulliken charges:
               1
     1  C   -0.172027
     2  C   -0.223069
     3  C   -0.172068
     4  C    0.158607
     5  C   -0.170930
     6  C   -0.218665
     7  H    0.226110
     8  H    0.230587
     9  H    0.275807
    10  H    0.275572
    11  H    0.223325
    12  N    0.488066
    13  O   -0.460523
    14  O   -0.460401
    15  C   -0.299360
    16  C   -0.298712
    17  C   -0.482236
    18  H    0.150940
    19  H    0.150806
    20  H    0.151708
    21  H    0.154718
    22  H    0.159674
    23  H    0.150477
    24  H    0.157969
    25  C   -0.298708
    26  C   -0.300300
    27  C   -0.476016
    28  H    0.149842
    29  H    0.150177
    30  H    0.153477
    31  H    0.152602
    32  H    0.155244
    33  H    0.155479
    34  H    0.161830
 Sum of Mulliken charges =  -0.00000

 Dipole moment (field-independent basis, Debye):
    X=             -2.8194    Y=              4.2322    Z=              1.3840  Tot=              5.2703
 Quadrupole moment (field-independent basis, Debye-Ang):
   XX=           -112.2206   YY=            -97.8329   ZZ=            -91.1207
   XY=             15.2320   XZ=              8.3129   YZ=              0.1219

 Normal termination of Gaussian 16 at Thu May  6 03:04:54 2021.
