 Gaussian 16, Revision A.03,
 Gaussian 16:  EM64L-G16RevA.03 25-Dec-2016

 -------------
 #p 6-31g* mp2
 -------------

 ------------------------------------------------------
 Input file generated by CHIRIPA (05-May-2021 14:51:12)
 ------------------------------------------------------
 Symbolic Z-matrix:
 Charge =  0 Multiplicity = 1

                         Standard orientation:
 ---------------------------------------------------------------------
 Center     Atomic      Atomic             Coordinates (Angstroms)
 Number     Number       Type             X           Y           Z
 ---------------------------------------------------------------------
      1          6           0       -3.542722   -0.489842   -0.327098
      2          6           0       -2.722346   -1.768814   -0.497971
      3          6           0       -3.585134   -3.031018   -0.482673
      4          1           0       -4.100433   -0.543050    0.617927
      5          1           0       -4.291579   -0.432962   -1.129203
      6          1           0       -1.974348   -1.822571    0.303417
      7          1           0       -2.166375   -1.712472   -1.442608
      8          1           0       -4.321905   -3.003863   -1.292014
      9          1           0       -4.128786   -3.114588    0.463931
     10          1           0       -2.978464   -3.933529   -0.606304
     11          6           0       -2.694231    0.780440   -0.340314
     12          6           0       -3.514607    2.059413   -0.169441
     13          6           0       -2.651820    3.321616   -0.184739
     14          1           0       -1.945375    0.723561    0.461791
     15          1           0       -2.136521    0.833649   -1.285340
     16          1           0       -4.070578    2.003070    0.775195
     17          1           0       -4.262606    2.113170   -0.970830
     18          1           0       -2.108168    3.405186   -1.131344
     19          1           0       -1.915049    3.294461    0.624602
     20          1           0       -3.258490    4.224128   -0.061108
     21          6           0        2.662985    0.008503    0.927258
     22          6           0        1.301174   -0.681475    0.841308
     23          6           0        0.401212   -0.364070    2.035927
     24          1           0        3.163469   -0.296536    1.856457
     25          1           0        2.512199    1.094780    0.995522
     26          1           0        1.454526   -1.766035    0.771832
     27          1           0        0.803955   -0.374907   -0.087888
     28          1           0        0.218811    0.713200    2.105352
     29          1           0        0.873078   -0.685833    2.969958
     30          1           0       -0.567127   -0.867533    1.954033
     31          6           0        3.573969   -0.299102   -0.259846
     32          6           0        4.935780    0.390876   -0.173895
     33          6           0        5.835742    0.073472   -1.368515
     34          1           0        3.724754   -1.385379   -0.328110
     35          1           0        3.073485    0.005937   -1.189045
     36          1           0        5.432998    0.084308    0.755300
     37          1           0        4.782428    1.475437   -0.104419
     38          1           0        5.363875    0.395234   -2.302546
     39          1           0        6.018142   -1.003798   -1.437940
     40          1           0        6.804080    0.576934   -1.286621
 ---------------------------------------------------------------------

 SCF Done:  E(RHF) =  -470.732643494     A.U. after   11 cycles
 E2 =    -0.1584019561D+01 EUMP2 =    -0.47231666305464D+03

 The electronic state is 1-A.
 Alpha  occ. eigenvalues --  -11.21600 -11.21594 -11.21584 -11.21579 -11.21405
 Alpha  occ. eigenvalues --  -11.21371 -11.21346 -11.21290 -11.21117 -11.21083
 Alpha  occ. eigenvalues --  -11.21070 -11.21064  -1.08458  -1.08390  -1.03551
 Alpha  occ. eigenvalues --   -1.03514  -0.96023  -0.95952  -0.87025  -0.86986
 Alpha  occ. eigenvalues --   -0.79616  -0.79573  -0.78284  -0.78191  -0.65153
 Alpha  occ. eigenvalues --   -0.64993  -0.60997  -0.60896  -0.59461  -0.59254
 Alpha  occ. eigenvalues --   -0.57627  -0.57564  -0.55388  -0.55168  -0.52774
 Alpha  occ. eigenvalues --   -0.52623  -0.52443  -0.52377  -0.50012  -0.49853
 Alpha  occ. eigenvalues --   -0.47968  -0.47864  -0.46679  -0.46566  -0.45876
 Alpha  occ. eigenvalues --   -0.45743  -0.45630  -0.45585  -0.43783  -0.43745
 Alpha virt. eigenvalues --    0.20795   0.23119   0.23733   0.24164   0.25845
 Alpha virt. eigenvalues --    0.26461   0.26879   0.27641   0.28077   0.29250
 Alpha virt. eigenvalues --    0.30411   0.31501   0.31661   0.31939   0.32182

 Mulliken charges:
               1
     1  C   -0.297728
     2  C   -0.306867
     3  C   -0.475319
     4  H    0.149134
     5  H    0.149448
     6  H    0.158734
     7  H    0.152079
     8  H    0.155232
     9  H    0.154953
    10  H    0.160205
    11  C   -0.307413
    12  C   -0.299139
    13  C   -0.475705
    14  H    0.161073
    15  H    0.148490
    16  H    0.151912
    17  H    0.151751
    18  H    0.154870
    19  H    0.154573
    20  H    0.160370
    21  C   -0.298482
    22  C   -0.301421
    23  C   -0.482270
    24  H    0.149545
    25  H    0.149718
    26  H    0.151879
    27  H    0.155512
    28  H    0.154809
    29  H    0.156154
    30  H    0.163785
    31  C   -0.298266
    32  C   -0.299684
    33  C   -0.475708
    34  H    0.149519
    35  H    0.149742
    36  H    0.151912
    37  H    0.152007
    38  H    0.155174
    39  H    0.155162
    40  H    0.160259
 Sum of Mulliken charges =  -0.00000

 Dipole moment (field-independent basis, Debye):
    X=              0.0176    Y=             -0.0077    Z=              0.0078  Tot=              0.0208
 Quadrupole moment (field-independent basis, Debye-Ang):
   XX=            -85.5715   YY=            -85.1985   ZZ=            -84.1603
   XY=             -0.7026   XZ=              0.8522   YZ=             -0.5912

 Normal termination of Gaussian 16 at Wed May  5 15:19:21 2021.
