 Gaussian 16, Revision A.03,
 Gaussian 16:  EM64L-G16RevA.03 25-Dec-2016

 -------------
 #p 6-31g* mp2
 -------------

 ------------------------------------------------------
 Input file generated by CHIRIPA (05-May-2021 14:57:22)
 ------------------------------------------------------
 Symbolic Z-matrix:
 Charge =  0 Multiplicity = 1

                         Standard orientation:
 ---------------------------------------------------------------------
 Center     Atomic      Atomic             Coordinates (Angstroms)
 Number     Number       Type             X           Y           Z
 ---------------------------------------------------------------------
      1          6           0       -4.309303    1.648001    0.760723
      2          6           0       -3.414681    2.081211   -0.223402
      3          6           0       -2.511245    1.186748   -0.805024
      4          6           0       -2.529887   -0.139739   -0.376799
      5          6           0       -3.408977   -0.601752    0.601483
      6          6           0       -4.303605    0.310260    1.169304
      7          1           0       -5.007693    2.349658    1.207181
      8          1           0       -3.416857    3.119532   -0.542667
      9          1           0       -1.807856    1.495305   -1.568866
     10          1           0       -3.383108   -1.642979    0.899134
     11          1           0       -4.997247   -0.028988    1.933383
     12          7           0       -1.578122   -1.095956   -0.985231
     13          8           0       -1.614555   -2.259377   -0.590565
     14          8           0       -0.813716   -0.663913   -1.845266
     15          6           0        1.666618   -2.245134    0.880256
     16          6           0        1.880317   -1.281418    1.871268
     17          6           0        2.444869   -0.043891    1.548228
     18          6           0        2.785372    0.197467    0.218155
     19          6           0        2.584894   -0.742310   -0.791755
     20          6           0        2.018968   -1.972984   -0.445755
     21          1           0        1.227526   -3.203813    1.140119
     22          1           0        1.607653   -1.490018    2.901892
     23          1           0        2.621280    0.720184    2.295549
     24          1           0        2.866982   -0.505333   -1.810423
     25          1           0        1.854158   -2.719532   -1.217473
     26          7           0        3.383766    1.503954   -0.135986
     27          8           0        3.675067    1.692078   -1.315134
     28          8           0        3.550155    2.315116    0.772291
 ---------------------------------------------------------------------

 SCF Done:  E(RHF) =  -868.339989050     A.U. after   16 cycles
 E2 =    -0.2601067916D+01 EUMP2 =    -0.87094105696583D+03

 The electronic state is 1-A.
 Alpha  occ. eigenvalues --  -20.61421 -20.61365 -20.60050 -20.60031 -15.86375
 Alpha  occ. eigenvalues --  -15.85085 -11.31535 -11.30146 -11.28109 -11.28032
 Alpha  occ. eigenvalues --  -11.27774 -11.27068 -11.27003 -11.26772 -11.26584
 Alpha  occ. eigenvalues --  -11.26304 -11.25739 -11.25452  -1.60429  -1.59128
 Alpha  occ. eigenvalues --   -1.39998  -1.38688  -1.19684  -1.18296  -1.09123
 Alpha  occ. eigenvalues --   -1.07732  -1.05053  -1.03637  -0.95999  -0.94616
 Alpha  occ. eigenvalues --   -0.86463  -0.85047  -0.82846  -0.81455  -0.77914
 Alpha  occ. eigenvalues --   -0.76553  -0.72654  -0.71733  -0.71312  -0.70792
 Alpha  occ. eigenvalues --   -0.70449  -0.69366  -0.65344  -0.65056  -0.63930
 Alpha  occ. eigenvalues --   -0.63630  -0.62403  -0.60999  -0.55568  -0.54117
 Alpha  occ. eigenvalues --   -0.53405  -0.53142  -0.52024  -0.51723  -0.49414
 Alpha  occ. eigenvalues --   -0.49359  -0.48081  -0.48040  -0.45467  -0.44160
 Alpha  occ. eigenvalues --   -0.37670  -0.36647  -0.36221  -0.35136
 Alpha virt. eigenvalues --    0.04600   0.05973   0.11010   0.12446   0.16140
 Alpha virt. eigenvalues --    0.17555   0.21175   0.22561   0.27102   0.28042
 Alpha virt. eigenvalues --    0.28482   0.29415   0.30752   0.32093   0.32282

 Mulliken charges:
               1
     1  C   -0.170150
     2  C   -0.218299
     3  C   -0.170112
     4  C    0.159699
     5  C   -0.171679
     6  C   -0.218759
     7  H    0.227214
     8  H    0.226810
     9  H    0.278584
    10  H    0.272729
    11  H    0.223512
    12  N    0.490771
    13  O   -0.468847
    14  O   -0.458872
    15  C   -0.169332
    16  C   -0.223595
    17  C   -0.175333
    18  C    0.153197
    19  C   -0.163400
    20  C   -0.204533
    21  H    0.227724
    22  H    0.217194
    23  H    0.269731
    24  H    0.274966
    25  H    0.230781
    26  N    0.487944
    27  O   -0.461778
    28  O   -0.466167
 Sum of Mulliken charges =  -0.00000

 Dipole moment (field-independent basis, Debye):
    X=             -5.7271    Y=             -1.3531    Z=              3.0867  Tot=              6.6452
 Quadrupole moment (field-independent basis, Debye-Ang):
   XX=           -100.8156   YY=           -105.0966   ZZ=           -100.5095
   XY=            -21.0561   XZ=             -3.4371   YZ=             -3.0275

 Normal termination of Gaussian 16 at Fri May  7 01:44:47 2021.
