 Gaussian 16, Revision A.03,
 Gaussian 16:  EM64L-G16RevA.03 25-Dec-2016

 -------------
 #p 6-31g* mp2
 -------------

 ------------------------------------------------------
 Input file generated by CHIRIPA (05-May-2021 14:51:12)
 ------------------------------------------------------
 Symbolic Z-matrix:
 Charge =  0 Multiplicity = 1

                         Standard orientation:
 ---------------------------------------------------------------------
 Center     Atomic      Atomic             Coordinates (Angstroms)
 Number     Number       Type             X           Y           Z
 ---------------------------------------------------------------------
      1          6           0       -3.207288   -0.529666    0.009198
      2          6           0       -3.014257   -1.897850   -0.645628
      3          6           0       -3.683141   -3.027791    0.137713
      4          1           0       -2.803454   -0.558792    1.030479
      5          1           0       -4.282654   -0.324754    0.104027
      6          1           0       -1.939569   -2.099516   -0.740454
      7          1           0       -3.418425   -1.865408   -1.665536
      8          1           0       -4.760789   -2.853529    0.220823
      9          1           0       -3.273530   -3.088967    1.151162
     10          1           0       -3.532658   -3.996912   -0.348104
     11          6           0       -2.544307    0.610117   -0.762216
     12          6           0       -2.737338    1.978301   -0.107390
     13          6           0       -2.068455    3.108241   -0.890731
     14          1           0       -1.468941    0.405205   -0.857045
     15          1           0       -2.948142    0.639242   -1.783496
     16          1           0       -2.333170    1.945858    0.912518
     17          1           0       -3.812026    2.179966   -0.012564
     18          1           0       -2.478065    3.169418   -1.904179
     19          1           0       -0.990806    2.933980   -0.973841
     20          1           0       -2.218937    4.077363   -0.404914
     21          6           0        2.430380    0.425806    0.786204
     22          6           0        1.041303   -0.150627    1.062200
     23          6           0        0.161921    0.793321    1.882837
     24          1           0        2.923552    0.650714    1.741789
     25          1           0        2.324046    1.382641    0.256529
     26          1           0        1.150263   -1.106765    1.589974
     27          1           0        0.551455   -0.374367    0.105851
     28          1           0        0.023641    1.744375    1.358455
     29          1           0        0.625850    1.007817    2.851011
     30          1           0       -0.826448    0.361440    2.068491
     31          6           0        3.321215   -0.506256   -0.033187
     32          6           0        4.710292    0.070176   -0.309183
     33          6           0        5.589674   -0.873771   -1.129819
     34          1           0        3.427549   -1.463090    0.496488
     35          1           0        2.828044   -0.731164   -0.988771
     36          1           0        5.200140    0.293917    0.647167
     37          1           0        4.601332    1.026315   -0.836956
     38          1           0        5.125745   -1.088266   -2.097994
     39          1           0        5.727955   -1.824825   -0.605437
     40          1           0        6.578042   -0.441890   -1.315474
 ---------------------------------------------------------------------

 SCF Done:  E(RHF) =  -470.731069862     A.U. after   11 cycles
 E2 =    -0.1585788556D+01 EUMP2 =    -0.47231685841779D+03

 The electronic state is 1-A.
 Alpha  occ. eigenvalues --  -11.21693 -11.21640 -11.21587 -11.21473 -11.21445
 Alpha  occ. eigenvalues --  -11.21410 -11.21366 -11.21287 -11.21125 -11.21099
 Alpha  occ. eigenvalues --  -11.21062 -11.21062  -1.08538  -1.08365  -1.03638
 Alpha  occ. eigenvalues --   -1.03462  -0.96067  -0.95951  -0.87098  -0.86957
 Alpha  occ. eigenvalues --   -0.79738  -0.79520  -0.78364  -0.78149  -0.65495
 Alpha  occ. eigenvalues --   -0.64838  -0.61299  -0.60598  -0.59440  -0.59285
 Alpha  occ. eigenvalues --   -0.57700  -0.57559  -0.55307  -0.55234  -0.52813
 Alpha  occ. eigenvalues --   -0.52619  -0.52465  -0.52362  -0.50041  -0.49864
 Alpha  occ. eigenvalues --   -0.48055  -0.47837  -0.46941  -0.46477  -0.46024
 Alpha  occ. eigenvalues --   -0.45824  -0.45678  -0.45312  -0.43768  -0.43720
 Alpha virt. eigenvalues --    0.19870   0.22892   0.23549   0.24943   0.25289
 Alpha virt. eigenvalues --    0.26135   0.26626   0.27808   0.28518   0.29682
 Alpha virt. eigenvalues --    0.30880   0.31436   0.31594   0.31736   0.32553

 Mulliken charges:
               1
     1  C   -0.302012
     2  C   -0.300611
     3  C   -0.475644
     4  H    0.152307
     5  H    0.149901
     6  H    0.152718
     7  H    0.151940
     8  H    0.155191
     9  H    0.155010
    10  H    0.160245
    11  C   -0.303878
    12  C   -0.304188
    13  C   -0.476982
    14  H    0.155074
    15  H    0.149746
    16  H    0.158834
    17  H    0.151341
    18  H    0.155335
    19  H    0.153717
    20  H    0.160281
    21  C   -0.298363
    22  C   -0.305700
    23  C   -0.484176
    24  H    0.150217
    25  H    0.149440
    26  H    0.152371
    27  H    0.156378
    28  H    0.160306
    29  H    0.155928
    30  H    0.164654
    31  C   -0.298461
    32  C   -0.299728
    33  C   -0.475776
    34  H    0.149726
    35  H    0.149727
    36  H    0.152056
    37  H    0.152100
    38  H    0.155310
    39  H    0.155234
    40  H    0.160430
 Sum of Mulliken charges =  -0.00000

 Dipole moment (field-independent basis, Debye):
    X=              0.0357    Y=             -0.0040    Z=              0.0318  Tot=              0.0479
 Quadrupole moment (field-independent basis, Debye-Ang):
   XX=            -84.7580   YY=            -85.8298   ZZ=            -84.2819
   XY=             -0.2075   XZ=              1.3376   YZ=             -0.2950

 Normal termination of Gaussian 16 at Wed May  5 16:47:55 2021.
