 Gaussian 16, Revision A.03,
 Gaussian 16:  EM64L-G16RevA.03 25-Dec-2016

 -------------
 #p 6-31g* mp2
 -------------

 ------------------------------------------------------
 Input file generated by CHIRIPA (05-May-2021 14:53:13)
 ------------------------------------------------------
 Symbolic Z-matrix:
 Charge =  0 Multiplicity = 1

                         Standard orientation:
 ---------------------------------------------------------------------
 Center     Atomic      Atomic             Coordinates (Angstroms)
 Number     Number       Type             X           Y           Z
 ---------------------------------------------------------------------
      1          6           0       -3.063592    0.942527    0.613289
      2          6           0       -2.255088    2.185536    0.240147
      3          6           0       -2.091831    3.157452    1.409130
      4          1           0       -4.053464    1.251935    0.975731
      5          1           0       -2.570055    0.430455    1.450904
      6          1           0       -2.749256    2.694352   -0.597421
      7          1           0       -1.267094    1.873123   -0.121629
      8          1           0       -1.578521    2.671624    2.245243
      9          1           0       -3.069104    3.497520    1.766748
     10          1           0       -1.510769    4.038816    1.120297
     11          6           0       -3.235415   -0.038630   -0.544958
     12          6           0       -4.043919   -1.281639   -0.171817
     13          6           0       -4.207176   -2.253555   -1.340799
     14          1           0       -3.728952    0.473442   -1.382574
     15          1           0       -2.245543   -0.348038   -0.907400
     16          1           0       -5.031913   -0.969226    0.189959
     17          1           0       -3.549751   -1.790455    0.665751
     18          1           0       -3.229903   -2.593623   -1.698418
     19          1           0       -4.720486   -1.767728   -2.176913
     20          1           0       -4.788238   -3.134920   -1.051966
     21          6           0        1.402139   -2.353594    1.088501
     22          6           0        2.790776   -2.188424    1.119002
     23          6           0        3.388075   -1.083835    0.504459
     24          6           0        2.562873   -0.159683   -0.134504
     25          6           0        1.176391   -0.296411   -0.182077
     26          6           0        0.600792   -1.408726    0.439204
     27          1           0        0.946572   -3.214667    1.568509
     28          1           0        3.415591   -2.920627    1.622520
     29          1           0        4.460508   -0.931405    0.512911
     30          1           0        0.579662    0.450290   -0.691753
     31          1           0       -0.477914   -1.534425    0.413926
     32          7           0        3.183720    1.013787   -0.788659
     33          8           0        2.434666    1.813778   -1.345048
     34          8           0        4.407640    1.111340   -0.732611
 ---------------------------------------------------------------------

 SCF Done:  E(RHF) =  -669.535053056     A.U. after   15 cycles
 E2 =    -0.2092954079D+01 EUMP2 =    -0.67162800713527D+03

 The electronic state is 1-A.
 Alpha  occ. eigenvalues --  -20.60767 -20.60762 -15.85819 -11.31190 -11.27764
 Alpha  occ. eigenvalues --  -11.27746 -11.27504 -11.26781 -11.26755 -11.22438
 Alpha  occ. eigenvalues --  -11.22242 -11.22077 -11.22015 -11.21777 -11.21285
 Alpha  occ. eigenvalues --   -1.59842  -1.39395  -1.19365  -1.09150  -1.08757
 Alpha  occ. eigenvalues --   -1.04772  -1.04122  -0.96560  -0.95594  -0.87571
 Alpha  occ. eigenvalues --   -0.86170  -0.82431  -0.80203  -0.78953  -0.77473
 Alpha  occ. eigenvalues --   -0.72039  -0.71164  -0.70488  -0.65906  -0.65008
 Alpha  occ. eigenvalues --   -0.64768  -0.62090  -0.61514  -0.59926  -0.58155
 Alpha  occ. eigenvalues --   -0.55872  -0.55270  -0.53215  -0.53098  -0.53010
 Alpha  occ. eigenvalues --   -0.52815  -0.50505  -0.48798  -0.48794  -0.48489
 Alpha  occ. eigenvalues --   -0.47268  -0.46456  -0.46403  -0.44799  -0.44401
 Alpha  occ. eigenvalues --   -0.37345  -0.36368
 Alpha virt. eigenvalues --    0.05036   0.11244   0.16498   0.18142   0.22667
 Alpha virt. eigenvalues --    0.23438   0.24771   0.25828   0.27300   0.28416
 Alpha virt. eigenvalues --    0.29264   0.31041   0.31240   0.31630   0.32568

 Mulliken charges:
               1
     1  C   -0.300431
     2  C   -0.304297
     3  C   -0.476089
     4  H    0.153883
     5  H    0.145980
     6  H    0.156538
     7  H    0.151787
     8  H    0.155045
     9  H    0.155375
    10  H    0.167292
    11  C   -0.302780
    12  C   -0.301167
    13  C   -0.475918
    14  H    0.156941
    15  H    0.140810
    16  H    0.156960
    17  H    0.145785
    18  H    0.152992
    19  H    0.159343
    20  H    0.162195
    21  C   -0.171269
    22  C   -0.218513
    23  C   -0.170492
    24  C    0.159550
    25  C   -0.179870
    26  C   -0.226879
    27  H    0.225922
    28  H    0.223518
    29  H    0.275680
    30  H    0.284326
    31  H    0.231160
    32  N    0.487527
    33  O   -0.460518
    34  O   -0.460388
 Sum of Mulliken charges =  -0.00000

 Dipole moment (field-independent basis, Debye):
    X=             -2.3434    Y=             -4.0010    Z=              2.2893  Tot=              5.1711
 Quadrupole moment (field-independent basis, Debye-Ang):
   XX=           -100.4107   YY=            -93.4534   ZZ=            -96.1921
   XY=            -12.8501   XZ=              8.0287   YZ=             -1.0648

 Normal termination of Gaussian 16 at Wed May  5 18:34:24 2021.
