 Gaussian 16, Revision A.03,
 Gaussian 16:  EM64L-G16RevA.03 25-Dec-2016

 -------------
 #p 6-31g* mp2
 -------------

 ------------------------------------------------------
 Input file generated by CHIRIPA (05-May-2021 14:57:21)
 ------------------------------------------------------
 Symbolic Z-matrix:
 Charge =  0 Multiplicity = 1

                         Standard orientation:
 ---------------------------------------------------------------------
 Center     Atomic      Atomic             Coordinates (Angstroms)
 Number     Number       Type             X           Y           Z
 ---------------------------------------------------------------------
      1          6           0       -2.159816    2.533008   -0.992597
      2          6           0       -3.038948    1.640962   -1.615414
      3          6           0       -3.353542    0.418331   -1.014786
      4          6           0       -2.768254    0.118626    0.214403
      5          6           0       -1.888753    0.986410    0.859939
      6          6           0       -1.588531    2.203467    0.240917
      7          1           0       -1.921014    3.480612   -1.466324
      8          1           0       -3.484105    1.894240   -2.573396
      9          1           0       -4.030960   -0.290777   -1.474882
     10          1           0       -1.460691    0.706032    1.814701
     11          1           0       -0.905452    2.894301    0.726917
     12          7           0       -3.093693   -1.172768    0.859998
     13          8           0       -2.564805   -1.413256    1.943086
     14          8           0       -3.871498   -1.920021    0.270702
     15          6           0        4.422970    1.328371    0.724109
     16          6           0        3.066742    1.516990    1.009748
     17          6           0        2.111427    0.603733    0.553806
     18          6           0        2.549461   -0.491930   -0.188447
     19          6           0        3.893442   -0.707375   -0.489428
     20          6           0        4.831271    0.218746   -0.023249
     21          1           0        5.158290    2.042808    1.082272
     22          1           0        2.746762    2.377826    1.589939
     23          1           0        1.055073    0.725474    0.760475
     24          1           0        4.181976   -1.575130   -1.070089
     25          1           0        5.883864    0.069717   -0.246597
     26          7           0        1.547367   -1.465564   -0.676550
     27          8           0        1.958973   -2.422712   -1.328535
     28          8           0        0.369295   -1.253114   -0.397899
 ---------------------------------------------------------------------

 SCF Done:  E(RHF) =  -868.336078084     A.U. after   16 cycles
 E2 =    -0.2603212713D+01 EUMP2 =    -0.87093929079745D+03

 The electronic state is 1-A.
 Alpha  occ. eigenvalues --  -20.60846 -20.60840 -20.59939 -20.59929 -15.85904
 Alpha  occ. eigenvalues --  -15.85006 -11.31379 -11.30583 -11.27979 -11.27947
 Alpha  occ. eigenvalues --  -11.27742 -11.27338 -11.27206 -11.27113 -11.27062
 Alpha  occ. eigenvalues --  -11.26980 -11.26477 -11.26292  -1.59910  -1.58981
 Alpha  occ. eigenvalues --   -1.39465  -1.38543  -1.19570  -1.18829  -1.08942
 Alpha  occ. eigenvalues --   -1.08181  -1.05009  -1.04341  -0.95763  -0.94986
 Alpha  occ. eigenvalues --   -0.86394  -0.85713  -0.82612  -0.81867  -0.77655
 Alpha  occ. eigenvalues --   -0.76837  -0.72178  -0.71259  -0.71227  -0.70696
 Alpha  occ. eigenvalues --   -0.70213  -0.70002  -0.65232  -0.65037  -0.64527
 Alpha  occ. eigenvalues --   -0.64396  -0.62427  -0.61653  -0.55498  -0.54848
 Alpha  occ. eigenvalues --   -0.53312  -0.53183  -0.52482  -0.52460  -0.48892
 Alpha  occ. eigenvalues --   -0.48860  -0.48018  -0.47976  -0.44843  -0.43906
 Alpha  occ. eigenvalues --   -0.37551  -0.36784  -0.36594  -0.35885
 Alpha virt. eigenvalues --    0.04917   0.05726   0.10994   0.11775   0.16376
 Alpha virt. eigenvalues --    0.16989   0.20221   0.22159   0.25802   0.27589
 Alpha virt. eigenvalues --    0.28327   0.29455   0.30551   0.31625   0.32202

 Mulliken charges:
               1
     1  C   -0.170103
     2  C   -0.218119
     3  C   -0.167046
     4  C    0.174785
     5  C   -0.164847
     6  C   -0.223438
     7  H    0.222109
     8  H    0.222108
     9  H    0.276634
    10  H    0.269781
    11  H    0.212025
    12  N    0.491652
    13  O   -0.461300
    14  O   -0.460873
    15  C   -0.170139
    16  C   -0.222443
    17  C   -0.171035
    18  C    0.155538
    19  C   -0.169158
    20  C   -0.219042
    21  H    0.225682
    22  H    0.218821
    23  H    0.278239
    24  H    0.277019
    25  H    0.224331
    26  N    0.491174
    27  O   -0.458100
    28  O   -0.464255
 Sum of Mulliken charges =  -0.00000

 Dipole moment (field-independent basis, Debye):
    X=              4.5999    Y=              7.5987    Z=             -0.7077  Tot=              8.9107
 Quadrupole moment (field-independent basis, Debye-Ang):
   XX=            -88.8905   YY=           -107.1281   ZZ=           -103.7441
   XY=             -6.6387   XZ=             11.3434   YZ=              1.4599

 Normal termination of Gaussian 16 at Thu May  6 03:19:28 2021.
