 Gaussian 16, Revision A.03,
 Gaussian 16:  EM64L-G16RevA.03 25-Dec-2016

 -------------
 #p 6-31g* mp2
 -------------

 ------------------------------------------------------
 Input file generated by CHIRIPA (05-May-2021 14:51:08)
 ------------------------------------------------------
 Symbolic Z-matrix:
 Charge =  0 Multiplicity = 1

                         Standard orientation:
 ---------------------------------------------------------------------
 Center     Atomic      Atomic             Coordinates (Angstroms)
 Number     Number       Type             X           Y           Z
 ---------------------------------------------------------------------
      1          6           0       -4.142812    0.006776   -0.501284
      2          6           0       -5.541270   -0.342695    0.008788
      3          6           0       -6.241139   -1.391269   -0.856353
      4          1           0       -4.217074    0.372217   -1.534668
      5          1           0       -3.533756   -0.907141   -0.535948
      6          1           0       -6.147085    0.571842    0.043791
      7          1           0       -5.463692   -0.707166    1.041143
      8          1           0       -5.660578   -2.319105   -0.882282
      9          1           0       -6.347855   -1.032829   -1.885301
     10          1           0       -7.239260   -1.626190   -0.473696
     11          6           0       -3.430402    1.053723    0.353176
     12          6           0       -2.031945    1.403193   -0.156896
     13          6           0       -1.332076    2.451768    0.708244
     14          1           0       -4.039458    1.967640    0.387840
     15          1           0       -3.356141    0.688281    1.386560
     16          1           0       -2.109523    1.767664   -1.189252
     17          1           0       -1.426130    0.488656   -0.191900
     18          1           0       -1.225360    2.093327    1.737192
     19          1           0       -1.912637    3.379603    0.734173
     20          1           0       -0.333955    2.686688    0.325587
     21          6           0        4.494367   -0.597567   -0.205191
     22          6           0        5.229729    0.737946   -0.321941
     23          6           0        6.644357    0.586868   -0.882119
     24          1           0        5.074651   -1.273420    0.437801
     25          1           0        4.448861   -1.070958   -1.195758
     26          1           0        5.272620    1.209322    0.668301
     27          1           0        4.647532    1.410764   -0.964576
     28          1           0        6.617427    0.139345   -1.880918
     29          1           0        7.246067   -0.063239   -0.238764
     30          1           0        7.151829    1.553670   -0.957117
     31          6           0        3.078849   -0.462931    0.353299
     32          6           0        2.343486   -1.798444    0.470050
     33          6           0        0.928858   -1.647366    1.030228
     34          1           0        3.124354    0.010460    1.343867
     35          1           0        2.498565    0.212921   -0.289693
     36          1           0        2.925683   -2.471262    1.112684
     37          1           0        2.300595   -2.269822   -0.520192
     38          1           0        0.327148   -0.997259    0.386872
     39          1           0        0.955788   -1.199844    2.029027
     40          1           0        0.421385   -2.614168    1.105225
 ---------------------------------------------------------------------

 SCF Done:  E(RHF) =  -470.733355494     A.U. after   11 cycles
 E2 =    -0.1582620429D+01 EUMP2 =    -0.47231597592386D+03

 The electronic state is 1-A.
 Alpha  occ. eigenvalues --  -11.21627 -11.21607 -11.21580 -11.21569 -11.21416
 Alpha  occ. eigenvalues --  -11.21378 -11.21357 -11.21318 -11.21102 -11.21075
 Alpha  occ. eigenvalues --  -11.21054 -11.21041  -1.08445  -1.08404  -1.03555
 Alpha  occ. eigenvalues --   -1.03499  -0.96003  -0.95949  -0.87021  -0.86965
 Alpha  occ. eigenvalues --   -0.79645  -0.79542  -0.78268  -0.78207  -0.65112
 Alpha  occ. eigenvalues --   -0.65006  -0.61049  -0.60822  -0.59378  -0.59310
 Alpha  occ. eigenvalues --   -0.57631  -0.57542  -0.55329  -0.55202  -0.52694
 Alpha  occ. eigenvalues --   -0.52649  -0.52446  -0.52362  -0.50034  -0.49828
 Alpha  occ. eigenvalues --   -0.48026  -0.47812  -0.46789  -0.46461  -0.45860
 Alpha  occ. eigenvalues --   -0.45744  -0.45734  -0.45533  -0.43802  -0.43759
 Alpha virt. eigenvalues --    0.21278   0.23051   0.23659   0.24925   0.25859
 Alpha virt. eigenvalues --    0.26633   0.27257   0.27326   0.28177   0.28909
 Alpha virt. eigenvalues --    0.30431   0.31272   0.31693   0.31901   0.31956

 Mulliken charges:
               1
     1  C   -0.298488
     2  C   -0.299655
     3  C   -0.475709
     4  H    0.149408
     5  H    0.149768
     6  H    0.151847
     7  H    0.152075
     8  H    0.155216
     9  H    0.155073
    10  H    0.160188
    11  C   -0.297637
    12  C   -0.307613
    13  C   -0.475289
    14  H    0.149379
    15  H    0.150079
    16  H    0.151578
    17  H    0.158680
    18  H    0.155715
    19  H    0.155020
    20  H    0.160062
    21  C   -0.298348
    22  C   -0.299676
    23  C   -0.475719
    24  H    0.149688
    25  H    0.149559
    26  H    0.152020
    27  H    0.151933
    28  H    0.155193
    29  H    0.155184
    30  H    0.160300
    31  C   -0.298409
    32  C   -0.299144
    33  C   -0.483305
    34  H    0.149771
    35  H    0.149662
    36  H    0.152064
    37  H    0.151972
    38  H    0.162110
    39  H    0.155384
    40  H    0.160063
 Sum of Mulliken charges =  -0.00000

 Dipole moment (field-independent basis, Debye):
    X=              0.0126    Y=             -0.0040    Z=              0.0097  Tot=              0.0164
 Quadrupole moment (field-independent basis, Debye-Ang):
   XX=            -86.0149   YY=            -84.8222   ZZ=            -83.9596
   XY=             -0.8606   XZ=              0.6387   YZ=             -0.9124

 Normal termination of Gaussian 16 at Thu May  6 06:51:55 2021.
