 Gaussian 16, Revision A.03,
 Gaussian 16:  EM64L-G16RevA.03 25-Dec-2016

 -------------
 #p 6-31g* mp2
 -------------

 ------------------------------------------------------
 Input file generated by CHIRIPA (05-May-2021 14:53:15)
 ------------------------------------------------------
 Symbolic Z-matrix:
 Charge =  0 Multiplicity = 1

                         Standard orientation:
 ---------------------------------------------------------------------
 Center     Atomic      Atomic             Coordinates (Angstroms)
 Number     Number       Type             X           Y           Z
 ---------------------------------------------------------------------
      1          6           0       -3.598094   -0.012386    0.363061
      2          6           0       -3.030689   -1.210499    1.125007
      3          6           0       -1.561084   -1.027234    1.505100
      4          1           0       -3.001126    0.153194   -0.544219
      5          1           0       -3.487603    0.890782    0.979076
      6          1           0       -3.143474   -2.111372    0.508304
      7          1           0       -3.629195   -1.373365    2.030480
      8          1           0       -1.434753   -0.144994    2.140941
      9          1           0       -0.946271   -0.887194    0.610116
     10          1           0       -1.175796   -1.895362    2.048944
     11          6           0       -5.066325   -0.180641   -0.023871
     12          6           0       -5.633730    1.017472   -0.785818
     13          6           0       -7.103335    0.834207   -1.165910
     14          1           0       -5.176816   -1.083808   -0.639886
     15          1           0       -5.663294   -0.346221    0.883409
     16          1           0       -5.035224    1.180338   -1.691290
     17          1           0       -5.520946    1.918345   -0.169114
     18          1           0       -7.718148    0.694167   -0.270927
     19          1           0       -7.229667   -0.048033   -1.801751
     20          1           0       -7.488623    1.702335   -1.709755
     21          6           0        2.950167   -2.360479   -0.626190
     22          6           0        4.113661   -1.746566   -1.101491
     23          6           0        4.364676   -0.397494   -0.834010
     24          6           0        3.426532    0.310893   -0.084767
     25          6           0        2.258039   -0.272478    0.402666
     26          6           0        2.027695   -1.622775    0.123051
     27          1           0        2.763201   -3.408946   -0.838689
     28          1           0        4.831828   -2.317015   -1.683616
     29          1           0        5.257231    0.102735   -1.189725
     30          1           0        1.560713    0.322101    0.980274
     31          1           0        1.123252   -2.096933    0.493460
     32          7           0        3.681329    1.739744    0.204826
     33          8           0        2.839139    2.341944    0.867176
     34          8           0        4.718404    2.230421   -0.236024
 ---------------------------------------------------------------------

 SCF Done:  E(RHF) =  -669.535346367     A.U. after   15 cycles
 E2 =    -0.2091528987D+01 EUMP2 =    -0.67162687535424D+03

 The electronic state is 1-A.
 Alpha  occ. eigenvalues --  -20.60699 -20.60694 -15.85751 -11.31098 -11.27678
 Alpha  occ. eigenvalues --  -11.27629 -11.27404 -11.26693 -11.26598 -11.22270
 Alpha  occ. eigenvalues --  -11.22055 -11.21817 -11.21803 -11.21684 -11.21239
 Alpha  occ. eigenvalues --   -1.59775  -1.39328  -1.19269  -1.08855  -1.08668
 Alpha  occ. eigenvalues --   -1.04672  -1.04010  -0.96494  -0.95506  -0.87532
 Alpha  occ. eigenvalues --   -0.86063  -0.82343  -0.80096  -0.78621  -0.77378
 Alpha  occ. eigenvalues --   -0.71970  -0.71098  -0.70381  -0.65497  -0.64919
 Alpha  occ. eigenvalues --   -0.64676  -0.62101  -0.61344  -0.59879  -0.58064
 Alpha  occ. eigenvalues --   -0.55793  -0.55166  -0.53254  -0.53038  -0.52870
 Alpha  occ. eigenvalues --   -0.52699  -0.50400  -0.48727  -0.48725  -0.48391
 Alpha  occ. eigenvalues --   -0.47086  -0.46174  -0.46066  -0.44738  -0.44246
 Alpha  occ. eigenvalues --   -0.37257  -0.36262
 Alpha virt. eigenvalues --    0.05120   0.11374   0.16538   0.20648   0.22600
 Alpha virt. eigenvalues --    0.23903   0.25748   0.26270   0.27045   0.28129
 Alpha virt. eigenvalues --    0.29430   0.30097   0.30854   0.31495   0.32155

 Mulliken charges:
               1
     1  C   -0.299827
     2  C   -0.299023
     3  C   -0.486972
     4  H    0.150964
     5  H    0.153034
     6  H    0.151527
     7  H    0.155473
     8  H    0.162747
     9  H    0.152797
    10  H    0.157847
    11  C   -0.298803
    12  C   -0.300214
    13  C   -0.475989
    14  H    0.149075
    15  H    0.150438
    16  H    0.152809
    17  H    0.153769
    18  H    0.155490
    19  H    0.154860
    20  H    0.161629
    21  C   -0.171624
    22  C   -0.218614
    23  C   -0.171134
    24  C    0.158679
    25  C   -0.174109
    26  C   -0.223870
    27  H    0.225238
    28  H    0.222951
    29  H    0.275241
    30  H    0.278180
    31  H    0.230664
    32  N    0.488164
    33  O   -0.460542
    34  O   -0.460853
 Sum of Mulliken charges =  -0.00000

 Dipole moment (field-independent basis, Debye):
    X=             -1.1078    Y=             -4.9857    Z=             -0.9960  Tot=              5.2035
 Quadrupole moment (field-independent basis, Debye-Ang):
   XX=            -97.9170   YY=            -98.4405   ZZ=            -93.2299
   XY=            -18.1803   XZ=             -6.6855   YZ=              0.7312

 Normal termination of Gaussian 16 at Thu May  6 02:40:50 2021.
