 Gaussian 16, Revision A.03,
 Gaussian 16:  EM64L-G16RevA.03 25-Dec-2016

 -------------
 #p 6-31g* mp2
 -------------

 ------------------------------------------------------
 Input file generated by CHIRIPA (05-May-2021 14:51:08)
 ------------------------------------------------------
 Symbolic Z-matrix:
 Charge =  0 Multiplicity = 1

                         Standard orientation:
 ---------------------------------------------------------------------
 Center     Atomic      Atomic             Coordinates (Angstroms)
 Number     Number       Type             X           Y           Z
 ---------------------------------------------------------------------
      1          6           0        3.133657   -0.029317    0.464761
      2          6           0        1.956987   -0.991073    0.633447
      3          6           0        0.711269   -0.307758    1.198304
      4          1           0        3.371165    0.423516    1.437118
      5          1           0        2.833292    0.793770   -0.198341
      6          1           0        2.259923   -1.812832    1.294928
      7          1           0        1.722376   -1.441813   -0.339388
      8          1           0        0.381766    0.500175    0.537037
      9          1           0        0.922367    0.127048    2.180639
     10          1           0       -0.117650   -1.013530    1.310722
     11          6           0        4.386347   -0.697660   -0.098989
     12          6           0        5.563018    0.264097   -0.267675
     13          6           0        6.808735   -0.419219   -0.832532
     14          1           0        4.686712   -1.520746    0.564113
     15          1           0        4.148839   -1.150492   -1.071346
     16          1           0        5.797628    0.714837    0.705160
     17          1           0        5.260081    1.085856   -0.929156
     18          1           0        6.597637   -0.854024   -1.814867
     19          1           0        7.138238   -1.227151   -0.171265
     20          1           0        7.637654    0.286554   -0.944950
     21          6           0       -4.270898   -0.091450    0.156889
     22          6           0       -4.891796   -1.119248   -0.789738
     23          6           0       -5.911887   -2.022025   -0.095331
     24          1           0       -3.788839   -0.616549    0.992853
     25          1           0       -5.069572    0.524178    0.593372
     26          1           0       -4.092068   -1.731851   -1.225364
     27          1           0       -5.372267   -0.591648   -1.623645
     28          1           0       -6.729654   -1.427447    0.324590
     29          1           0       -5.442181   -2.574127    0.725134
     30          1           0       -6.343262   -2.749147   -0.790363
     31          6           0       -3.249105    0.818427   -0.522662
     32          6           0       -2.628208    1.846224    0.423966
     33          6           0       -1.608118    2.749002   -0.270441
     34          1           0       -2.450432    0.202798   -0.959144
     35          1           0       -3.731165    1.343526   -1.358625
     36          1           0       -2.147736    1.318625    1.257873
     37          1           0       -3.427936    2.458827    0.859592
     38          1           0       -2.077823    3.301104   -1.090906
     39          1           0       -0.790350    2.154424   -0.690361
     40          1           0       -1.176743    3.476123    0.424591
 ---------------------------------------------------------------------

 SCF Done:  E(RHF) =  -470.732997501     A.U. after   11 cycles
 E2 =    -0.1583151115D+01 EUMP2 =    -0.47231614861668D+03

 The electronic state is 1-A.
 Alpha  occ. eigenvalues --  -11.21638 -11.21612 -11.21581 -11.21522 -11.21428
 Alpha  occ. eigenvalues --  -11.21368 -11.21367 -11.21306 -11.21094 -11.21079
 Alpha  occ. eigenvalues --  -11.21057 -11.21056  -1.08458  -1.08389  -1.03580
 Alpha  occ. eigenvalues --   -1.03478  -0.96034  -0.95932  -0.87032  -0.86969
 Alpha  occ. eigenvalues --   -0.79624  -0.79559  -0.78266  -0.78204  -0.65155
 Alpha  occ. eigenvalues --   -0.64975  -0.61167  -0.60730  -0.59378  -0.59318
 Alpha  occ. eigenvalues --   -0.57625  -0.57562  -0.55494  -0.55062  -0.52706
 Alpha  occ. eigenvalues --   -0.52646  -0.52456  -0.52337  -0.50052  -0.49791
 Alpha  occ. eigenvalues --   -0.47994  -0.47805  -0.46691  -0.46540  -0.45835
 Alpha  occ. eigenvalues --   -0.45760  -0.45682  -0.45644  -0.43804  -0.43749
 Alpha virt. eigenvalues --    0.20866   0.22991   0.23693   0.24891   0.25979
 Alpha virt. eigenvalues --    0.26353   0.27088   0.27560   0.28039   0.29193
 Alpha virt. eigenvalues --    0.30749   0.31185   0.31721   0.31904   0.32213

 Mulliken charges:
               1
     1  C   -0.298386
     2  C   -0.300125
     3  C   -0.482721
     4  H    0.149850
     5  H    0.149486
     6  H    0.151994
     7  H    0.151613
     8  H    0.163483
     9  H    0.155419
    10  H    0.159428
    11  C   -0.298313
    12  C   -0.299693
    13  C   -0.475725
    14  H    0.149581
    15  H    0.149642
    16  H    0.151989
    17  H    0.152084
    18  H    0.155197
    19  H    0.155176
    20  H    0.160331
    21  C   -0.298458
    22  C   -0.299625
    23  C   -0.475665
    24  H    0.149706
    25  H    0.149462
    26  H    0.151798
    27  H    0.151868
    28  H    0.155175
    29  H    0.155097
    30  H    0.160155
    31  C   -0.298526
    32  C   -0.303018
    33  C   -0.477856
    34  H    0.149899
    35  H    0.149244
    36  H    0.157426
    37  H    0.151768
    38  H    0.155349
    39  H    0.155306
    40  H    0.160584
 Sum of Mulliken charges =  -0.00000

 Dipole moment (field-independent basis, Debye):
    X=              0.0155    Y=              0.0121    Z=              0.0151  Tot=              0.0248
 Quadrupole moment (field-independent basis, Debye-Ang):
   XX=            -85.7102   YY=            -85.0090   ZZ=            -84.1095
   XY=             -0.7702   XZ=              1.1149   YZ=             -0.2077

 Normal termination of Gaussian 16 at Thu May  6 08:25:51 2021.
