 Gaussian 16, Revision A.03,
 Gaussian 16:  EM64L-G16RevA.03 25-Dec-2016

 -------------
 #p 6-31g* mp2
 -------------

 ------------------------------------------------------
 Input file generated by CHIRIPA (05-May-2021 14:55:21)
 ------------------------------------------------------
 Symbolic Z-matrix:
 Charge =  0 Multiplicity = 1

                         Standard orientation:
 ---------------------------------------------------------------------
 Center     Atomic      Atomic             Coordinates (Angstroms)
 Number     Number       Type             X           Y           Z
 ---------------------------------------------------------------------
      1          6           0        0.652630    0.127870    0.799882
      2          6           0        1.449093   -0.913321    1.287826
      3          6           0        2.791984   -1.015708    0.912714
      4          6           0        3.308110   -0.055267    0.044119
      5          6           0        2.540163    0.993730   -0.459022
      6          6           0        1.199743    1.076400   -0.070451
      7          1           0       -0.389600    0.199748    1.096506
      8          1           0        1.026878   -1.651387    1.963873
      9          1           0        3.431156   -1.811498    1.275473
     10          1           0        2.989286    1.714466   -1.131515
     11          1           0        0.583566    1.886079   -0.450966
     12          7           0        4.728461   -0.153223   -0.360119
     13          8           0        5.159328    0.705594   -1.126555
     14          8           0        5.383970   -1.086962    0.097128
     15          6           0       -3.695508   -0.637483   -0.372961
     16          6           0       -4.725109   -1.745201   -0.147422
     17          6           0       -4.231906   -3.114832   -0.615028
     18          1           0       -3.442611   -0.592648   -1.441127
     19          1           0       -2.768160   -0.894930    0.157267
     20          1           0       -5.650706   -1.485075   -0.676781
     21          1           0       -4.975727   -1.787277    0.920303
     22          1           0       -3.321104   -3.400036   -0.078652
     23          1           0       -3.999919   -3.096116   -1.684810
     24          1           0       -4.983509   -3.891907   -0.444416
     25          6           0       -4.173981    0.737638    0.089459
     26          6           0       -3.144380    1.845356   -0.136080
     27          6           0       -3.637583    3.214987    0.331527
     28          1           0       -5.101329    0.995085   -0.440769
     29          1           0       -4.426878    0.692803    1.157625
     30          1           0       -2.893762    1.887432   -1.203805
     31          1           0       -2.218783    1.585229    0.393280
     32          1           0       -3.869570    3.196272    1.401308
     33          1           0       -4.548385    3.500190   -0.204850
     34          1           0       -2.885980    3.992062    0.160914
 ---------------------------------------------------------------------

 SCF Done:  E(RHF) =  -669.535305858     A.U. after   15 cycles
 E2 =    -0.2091772923D+01 EUMP2 =    -0.67162707878066D+03

 The electronic state is 1-A.
 Alpha  occ. eigenvalues --  -20.60723 -20.60718 -15.85776 -11.31134 -11.27703
 Alpha  occ. eigenvalues --  -11.27695 -11.27417 -11.26720 -11.26690 -11.22871
 Alpha  occ. eigenvalues --  -11.22436 -11.22398 -11.22349 -11.22069 -11.21744
 Alpha  occ. eigenvalues --   -1.59799  -1.39353  -1.19303  -1.09444  -1.08699
 Alpha  occ. eigenvalues --   -1.04706  -1.04482  -0.96895  -0.95539  -0.87910
 Alpha  occ. eigenvalues --   -0.86103  -0.82375  -0.80577  -0.79257  -0.77417
 Alpha  occ. eigenvalues --   -0.71995  -0.71122  -0.70446  -0.66081  -0.64956
 Alpha  occ. eigenvalues --   -0.64707  -0.62067  -0.61870  -0.60278  -0.58516
 Alpha  occ. eigenvalues --   -0.56173  -0.55240  -0.53579  -0.53311  -0.53033
 Alpha  occ. eigenvalues --   -0.52796  -0.50840  -0.48871  -0.48754  -0.48748
 Alpha  occ. eigenvalues --   -0.47618  -0.46765  -0.46692  -0.44760  -0.44741
 Alpha  occ. eigenvalues --   -0.37276  -0.36310
 Alpha virt. eigenvalues --    0.05102   0.11342   0.16540   0.18906   0.22522
 Alpha virt. eigenvalues --    0.23369   0.24707   0.25901   0.26392   0.27777
 Alpha virt. eigenvalues --    0.29597   0.30147   0.30964   0.31218   0.31967

 Mulliken charges:
               1
     1  C   -0.175937
     2  C   -0.219255
     3  C   -0.170802
     4  C    0.158348
     5  C   -0.170936
     6  C   -0.221257
     7  H    0.232895
     8  H    0.223041
     9  H    0.275336
    10  H    0.275388
    11  H    0.225036
    12  N    0.488022
    13  O   -0.460576
    14  O   -0.460565
    15  C   -0.299540
    16  C   -0.300475
    17  C   -0.475829
    18  H    0.153371
    19  H    0.141871
    20  H    0.154915
    21  H    0.152331
    22  H    0.153567
    23  H    0.157490
    24  H    0.163036
    25  C   -0.299062
    26  C   -0.305236
    27  C   -0.475513
    28  H    0.154581
    29  H    0.150734
    30  H    0.155106
    31  H    0.142030
    32  H    0.157449
    33  H    0.159952
    34  H    0.160485
 Sum of Mulliken charges =  -0.00000

 Dipole moment (field-independent basis, Debye):
    X=             -5.2808    Y=              0.3546    Z=              1.3500  Tot=              5.4622
 Quadrupole moment (field-independent basis, Debye-Ang):
   XX=           -127.2768   YY=            -92.3952   ZZ=            -92.8139
   XY=              0.9970   XZ=              5.4899   YZ=             -3.2173

 Normal termination of Gaussian 16 at Thu May  6 03:00:18 2021.
