 Gaussian 16, Revision A.03,
 Gaussian 16:  EM64L-G16RevA.03 25-Dec-2016

 -------------
 #p 6-31g* mp2
 -------------

 ------------------------------------------------------
 Input file generated by CHIRIPA (05-May-2021 14:51:08)
 ------------------------------------------------------
 Symbolic Z-matrix:
 Charge =  0 Multiplicity = 1

                         Standard orientation:
 ---------------------------------------------------------------------
 Center     Atomic      Atomic             Coordinates (Angstroms)
 Number     Number       Type             X           Y           Z
 ---------------------------------------------------------------------
      1          6           0        3.162979   -0.332555   -0.140347
      2          6           0        4.364151   -0.954377   -0.853445
      3          6           0        4.662459   -2.376701   -0.378260
      4          1           0        3.349679   -0.327398    0.942270
      5          1           0        2.280510   -0.966910   -0.302328
      6          1           0        5.243782   -0.318311   -0.691321
      7          1           0        4.174651   -0.957880   -1.934506
      8          1           0        3.802155   -3.030325   -0.555052
      9          1           0        4.877362   -2.387123    0.695197
     10          1           0        5.524800   -2.802066   -0.901035
     11          6           0        2.852249    1.089290   -0.604603
     12          6           0        1.651077    1.711112    0.108495
     13          6           0        1.352769    3.133436   -0.366690
     14          1           0        3.734718    1.723644   -0.442623
     15          1           0        2.665549    1.084133   -1.687221
     16          1           0        1.840577    1.714615    1.189556
     17          1           0        0.771446    1.075046   -0.053629
     18          1           0        1.137866    3.143857   -1.440147
     19          1           0        2.213072    3.787060   -0.189898
     20          1           0        0.490428    3.558800    0.156085
     21          6           0       -3.699623   -0.200348    0.102540
     22          6           0       -3.942953   -0.702920   -1.320906
     23          6           0       -5.331694   -0.339022   -1.846996
     24          1           0       -4.466765   -0.618690    0.768443
     25          1           0       -3.827109    0.890805    0.125493
     26          1           0       -3.813688   -1.792638   -1.341455
     27          1           0       -3.175028   -0.283486   -1.983462
     28          1           0       -5.468036    0.747230   -1.855341
     29          1           0       -6.110325   -0.770497   -1.209686
     30          1           0       -5.484330   -0.707941   -2.866045
     31          6           0       -2.315605   -0.556386    0.642410
     32          6           0       -2.072275   -0.053814    2.065855
     33          6           0       -0.683534   -0.417713    2.591947
     34          1           0       -2.188119   -1.647540    0.619458
     35          1           0       -1.548462   -0.138044   -0.023493
     36          1           0       -2.840200   -0.473248    2.728413
     37          1           0       -2.201539    1.035903    2.086405
     38          1           0        0.095097    0.013762    1.954636
     39          1           0       -0.547191   -1.503964    2.600292
     40          1           0       -0.530898   -0.048793    3.610996
 ---------------------------------------------------------------------

 SCF Done:  E(RHF) =  -470.732569790     A.U. after   11 cycles
 E2 =    -0.1583892765D+01 EUMP2 =    -0.47231646255458D+03

 The electronic state is 1-A.
 Alpha  occ. eigenvalues --  -11.21674 -11.21615 -11.21610 -11.21543 -11.21444
 Alpha  occ. eigenvalues --  -11.21401 -11.21377 -11.21342 -11.21147 -11.21076
 Alpha  occ. eigenvalues --  -11.21071 -11.20868  -1.08489  -1.08404  -1.03597
 Alpha  occ. eigenvalues --   -1.03474  -0.96020  -0.95935  -0.87048  -0.86946
 Alpha  occ. eigenvalues --   -0.79741  -0.79499  -0.78370  -0.78153  -0.65173
 Alpha  occ. eigenvalues --   -0.64990  -0.61035  -0.60864  -0.59415  -0.59280
 Alpha  occ. eigenvalues --   -0.57637  -0.57546  -0.55305  -0.55233  -0.52733
 Alpha  occ. eigenvalues --   -0.52624  -0.52463  -0.52341  -0.49974  -0.49910
 Alpha  occ. eigenvalues --   -0.48169  -0.47748  -0.46784  -0.46580  -0.46032
 Alpha  occ. eigenvalues --   -0.45754  -0.45721  -0.45236  -0.43822  -0.43752
 Alpha virt. eigenvalues --    0.20912   0.23194   0.23762   0.24789   0.25615
 Alpha virt. eigenvalues --    0.26057   0.26991   0.27784   0.28186   0.29406
 Alpha virt. eigenvalues --    0.30835   0.30995   0.31654   0.31840   0.32179

 Mulliken charges:
               1
     1  C   -0.299721
     2  C   -0.299615
     3  C   -0.475733
     4  H    0.150423
     5  H    0.150447
     6  H    0.151956
     7  H    0.151926
     8  H    0.155386
     9  H    0.155401
    10  H    0.160227
    11  C   -0.297342
    12  C   -0.310198
    13  C   -0.474744
    14  H    0.149741
    15  H    0.149533
    16  H    0.154548
    17  H    0.158774
    18  H    0.155114
    19  H    0.155686
    20  H    0.160135
    21  C   -0.297961
    22  C   -0.299630
    23  C   -0.475699
    24  H    0.149876
    25  H    0.149563
    26  H    0.151873
    27  H    0.151533
    28  H    0.155253
    29  H    0.155258
    30  H    0.160191
    31  C   -0.303198
    32  C   -0.298683
    33  C   -0.485162
    34  H    0.149538
    35  H    0.152581
    36  H    0.151668
    37  H    0.151221
    38  H    0.167095
    39  H    0.153957
    40  H    0.158780
 Sum of Mulliken charges =  -0.00000

 Dipole moment (field-independent basis, Debye):
    X=              0.0529    Y=              0.0202    Z=             -0.0233  Tot=              0.0613
 Quadrupole moment (field-independent basis, Debye-Ang):
   XX=            -85.2729   YY=            -84.9617   ZZ=            -84.5818
   XY=              1.1067   XZ=             -0.1983   YZ=              0.3295

 Normal termination of Gaussian 16 at Wed May  5 15:04:03 2021.
