 Gaussian 16, Revision A.03,
 Gaussian 16:  EM64L-G16RevA.03 25-Dec-2016

 -------------
 #p 6-31g* mp2
 -------------

 ------------------------------------------------------
 Input file generated by CHIRIPA (05-May-2021 14:53:17)
 ------------------------------------------------------
 Symbolic Z-matrix:
 Charge =  0 Multiplicity = 1

                         Standard orientation:
 ---------------------------------------------------------------------
 Center     Atomic      Atomic             Coordinates (Angstroms)
 Number     Number       Type             X           Y           Z
 ---------------------------------------------------------------------
      1          6           0        3.365516   -0.207397    0.877997
      2          6           0        2.042649   -0.949799    0.686039
      3          6           0        1.166258   -0.929624    1.938766
      4          1           0        3.912867   -0.657625    1.717429
      5          1           0        3.156104    0.832838    1.163396
      6          1           0        2.254485   -1.987958    0.399738
      7          1           0        1.498470   -0.497874   -0.153157
      8          1           0        0.925845    0.099616    2.224190
      9          1           0        1.686155   -1.398933    2.780227
     10          1           0        0.225647   -1.466002    1.779364
     11          6           0        4.252602   -0.218780   -0.365658
     12          6           0        5.575469    0.523622   -0.173700
     13          6           0        6.451859    0.503447   -1.426427
     14          1           0        4.462013   -1.259015   -0.651057
     15          1           0        3.705250    0.231447   -1.205090
     16          1           0        6.119648    0.071697    0.665496
     17          1           0        5.363633    1.561780    0.112601
     18          1           0        5.931962    0.972756   -2.267888
     19          1           0        6.692273   -0.525794   -1.711852
     20          1           0        7.392470    1.039825   -1.267025
     21          6           0       -3.308687   -2.302613   -0.598540
     22          6           0       -4.408260   -1.438077   -0.604712
     23          6           0       -4.235638   -0.068213   -0.385117
     24          6           0       -2.943648    0.405178   -0.161616
     25          6           0       -1.828174   -0.430801   -0.149393
     26          6           0       -2.024418   -1.797107   -0.371301
     27          1           0       -3.451959   -3.365374   -0.770026
     28          1           0       -5.406790   -1.827860   -0.780921
     29          1           0       -5.069293    0.623478   -0.384535
     30          1           0       -0.844915   -0.012757    0.029090
     31          1           0       -1.168631   -2.466170   -0.365946
     32          7           0       -2.748397    1.853508    0.072085
     33          8           0       -1.599915    2.245670    0.266601
     34          8           0       -3.747538    2.569124    0.056318
 ---------------------------------------------------------------------

 SCF Done:  E(RHF) =  -669.534827455     A.U. after   15 cycles
 E2 =    -0.2092820595D+01 EUMP2 =    -0.67162764805002D+03

 The electronic state is 1-A.
 Alpha  occ. eigenvalues --  -20.60759 -20.60754 -15.85808 -11.31127 -11.27728
 Alpha  occ. eigenvalues --  -11.27647 -11.27470 -11.26731 -11.26702 -11.22221
 Alpha  occ. eigenvalues --  -11.21679 -11.21654 -11.21538 -11.21533 -11.21117
 Alpha  occ. eigenvalues --   -1.59831  -1.39386  -1.19319  -1.08722  -1.08708
 Alpha  occ. eigenvalues --   -1.04737  -1.03837  -0.96276  -0.95553  -0.87279
 Alpha  occ. eigenvalues --   -0.86117  -0.82397  -0.79927  -0.78497  -0.77447
 Alpha  occ. eigenvalues --   -0.72032  -0.71152  -0.70457  -0.65385  -0.64979
 Alpha  occ. eigenvalues --   -0.64702  -0.62282  -0.61119  -0.59587  -0.57856
 Alpha  occ. eigenvalues --   -0.55560  -0.55165  -0.53208  -0.52884  -0.52775
 Alpha  occ. eigenvalues --   -0.52616  -0.50178  -0.48785  -0.48783  -0.48233
 Alpha  occ. eigenvalues --   -0.46954  -0.46036  -0.45924  -0.44799  -0.44079
 Alpha  occ. eigenvalues --   -0.37307  -0.36287
 Alpha virt. eigenvalues --    0.05058   0.11315   0.16451   0.20071   0.22910
 Alpha virt. eigenvalues --    0.23999   0.26072   0.26386   0.27418   0.27959
 Alpha virt. eigenvalues --    0.29139   0.30005   0.31247   0.31635   0.32507

 Mulliken charges:
               1
     1  C   -0.298211
     2  C   -0.307429
     3  C   -0.489174
     4  H    0.150925
     5  H    0.157017
     6  H    0.149753
     7  H    0.148910
     8  H    0.168566
     9  H    0.160414
    10  H    0.155365
    11  C   -0.299193
    12  C   -0.300344
    13  C   -0.476011
    14  H    0.147802
    15  H    0.151630
    16  H    0.151796
    17  H    0.154888
    18  H    0.156230
    19  H    0.154233
    20  H    0.161187
    21  C   -0.170635
    22  C   -0.219232
    23  C   -0.170089
    24  C    0.158038
    25  C   -0.177726
    26  C   -0.224951
    27  H    0.225530
    28  H    0.223291
    29  H    0.275434
    30  H    0.290830
    31  H    0.225246
    32  N    0.487684
    33  O   -0.461412
    34  O   -0.460358
 Sum of Mulliken charges =  -0.00000

 Dipole moment (field-independent basis, Debye):
    X=             -0.5542    Y=             -4.9995    Z=             -0.7613  Tot=              5.0874
 Quadrupole moment (field-independent basis, Debye-Ang):
   XX=            -85.7179   YY=            -98.7922   ZZ=            -95.7277
   XY=             13.9169   XZ=              4.0608   YZ=              0.3028

 Normal termination of Gaussian 16 at Thu May  6 02:46:09 2021.
