 Gaussian 16, Revision A.03,
 Gaussian 16:  EM64L-G16RevA.03 25-Dec-2016

 -------------
 #p 6-31g* mp2
 -------------

 ------------------------------------------------------
 Input file generated by CHIRIPA (05-May-2021 14:55:22)
 ------------------------------------------------------
 Symbolic Z-matrix:
 Charge =  0 Multiplicity = 1

                         Standard orientation:
 ---------------------------------------------------------------------
 Center     Atomic      Atomic             Coordinates (Angstroms)
 Number     Number       Type             X           Y           Z
 ---------------------------------------------------------------------
      1          6           0        0.498090   -1.070627    0.781558
      2          6           0        1.648311   -1.780463    1.141623
      3          6           0        2.912409   -1.330172    0.749397
      4          6           0        2.989869   -0.160950   -0.005727
      5          6           0        1.862414    0.568391   -0.380154
      6          6           0        0.608618    0.099471    0.023156
      7          1           0       -0.479890   -1.427660    1.090554
      8          1           0        1.565495   -2.689493    1.730563
      9          1           0        3.819229   -1.860189    1.014307
     10          1           0        1.976800    1.471222   -0.967717
     11          1           0       -0.282944    0.652784   -0.257926
     12          7           0        4.322660    0.325613   -0.426826
     13          8           0        4.364028    1.358515   -1.091686
     14          8           0        5.300696   -0.335133   -0.084050
     15          6           0       -3.703834   -0.403934    0.143629
     16          6           0       -4.027984   -1.347986   -1.014680
     17          6           0       -4.341838   -2.769886   -0.548324
     18          1           0       -2.849097   -0.803930    0.706099
     19          1           0       -4.553911   -0.383316    0.839575
     20          1           0       -3.178105   -1.365751   -1.708946
     21          1           0       -4.881928   -0.945596   -1.574572
     22          1           0       -5.203360   -2.772404    0.127231
     23          1           0       -3.489856   -3.194945   -0.007907
     24          1           0       -4.570676   -3.427920   -1.392413
     25          6           0       -3.387900    1.021258   -0.306637
     26          6           0       -3.063750    1.965309    0.851671
     27          6           0       -2.749896    3.387210    0.385315
     28          1           0       -2.537823    1.000639   -1.002584
     29          1           0       -4.242637    1.421254   -0.869108
     30          1           0       -2.209806    1.562920    1.411563
     31          1           0       -3.913630    1.983075    1.545937
     32          1           0       -3.601879    3.812269   -0.155103
     33          1           0       -1.888374    3.389727   -0.290240
     34          1           0       -2.521059    4.045243    1.229404
 ---------------------------------------------------------------------

 SCF Done:  E(RHF) =  -669.534940815     A.U. after   15 cycles
 E2 =    -0.2092964186D+01 EUMP2 =    -0.67162790500051D+03

 The electronic state is 1-A.
 Alpha  occ. eigenvalues --  -20.60751 -20.60745 -15.85803 -11.31172 -11.27742
 Alpha  occ. eigenvalues --  -11.27736 -11.27474 -11.26755 -11.26718 -11.22685
 Alpha  occ. eigenvalues --  -11.22660 -11.22590 -11.22566 -11.21981 -11.21975
 Alpha  occ. eigenvalues --   -1.59826  -1.39379  -1.19344  -1.09593  -1.08736
 Alpha  occ. eigenvalues --   -1.04751  -1.04552  -0.97008  -0.95575  -0.88017
 Alpha  occ. eigenvalues --   -0.86149  -0.82411  -0.80608  -0.79407  -0.77459
 Alpha  occ. eigenvalues --   -0.72023  -0.71149  -0.70485  -0.66433  -0.64992
 Alpha  occ. eigenvalues --   -0.64620  -0.62234  -0.61793  -0.60360  -0.58608
 Alpha  occ. eigenvalues --   -0.56326  -0.55271  -0.53637  -0.53415  -0.53074
 Alpha  occ. eigenvalues --   -0.52847  -0.50937  -0.48921  -0.48777  -0.48769
 Alpha  occ. eigenvalues --   -0.47667  -0.46915  -0.46869  -0.44844  -0.44784
 Alpha  occ. eigenvalues --   -0.37323  -0.36347
 Alpha virt. eigenvalues --    0.05080   0.11220   0.16561   0.17750   0.21988
 Alpha virt. eigenvalues --    0.23453   0.24904   0.25456   0.26881   0.28385
 Alpha virt. eigenvalues --    0.29784   0.30292   0.30954   0.31592   0.31770

 Mulliken charges:
               1
     1  C   -0.178232
     2  C   -0.218855
     3  C   -0.170861
     4  C    0.158794
     5  C   -0.172819
     6  C   -0.228072
     7  H    0.231349
     8  H    0.223746
     9  H    0.275531
    10  H    0.275930
    11  H    0.235943
    12  N    0.487986
    13  O   -0.460393
    14  O   -0.460494
    15  C   -0.301775
    16  C   -0.301010
    17  C   -0.475306
    18  H    0.140858
    19  H    0.155544
    20  H    0.153020
    21  H    0.156494
    22  H    0.157662
    23  H    0.150512
    24  H    0.164717
    25  C   -0.304145
    26  C   -0.304556
    27  C   -0.475366
    28  H    0.143922
    29  H    0.157629
    30  H    0.148684
    31  H    0.157456
    32  H    0.159235
    33  H    0.151465
    34  H    0.165406
 Sum of Mulliken charges =  -0.00000

 Dipole moment (field-independent basis, Debye):
    X=             -4.9758    Y=             -1.6528    Z=              1.4570  Tot=              5.4418
 Quadrupole moment (field-independent basis, Debye-Ang):
   XX=           -120.1929   YY=            -92.0791   ZZ=            -94.3478
   XY=             -7.0316   XZ=              5.7392   YZ=             -1.9660

 Normal termination of Gaussian 16 at Thu May  6 19:11:34 2021.
