 Gaussian 16, Revision A.03,
 Gaussian 16:  EM64L-G16RevA.03 25-Dec-2016

 -------------
 #p 6-31g* mp2
 -------------

 ------------------------------------------------------
 Input file generated by CHIRIPA (05-May-2021 14:57:23)
 ------------------------------------------------------
 Symbolic Z-matrix:
 Charge =  0 Multiplicity = 1

                         Standard orientation:
 ---------------------------------------------------------------------
 Center     Atomic      Atomic             Coordinates (Angstroms)
 Number     Number       Type             X           Y           Z
 ---------------------------------------------------------------------
      1          6           0        0.351892   -0.276490    1.498160
      2          6           0        1.071680    0.918885    1.595641
      3          6           0        2.307708    1.057492    0.957227
      4          6           0        2.796318   -0.024346    0.226353
      5          6           0        2.102911   -1.228110    0.110470
      6          6           0        0.868893   -1.344290    0.757192
      7          1           0       -0.607503   -0.375453    1.997323
      8          1           0        0.672621    1.749814    2.170406
      9          1           0        2.885888    1.971634    1.016140
     10          1           0        2.526531   -2.038915   -0.469668
     11          1           0        0.312091   -2.273817    0.679752
     12          7           0        4.103781    0.110520   -0.453905
     13          8           0        4.512451   -0.857360   -1.091741
     14          8           0        4.695144    1.181554   -0.336375
     15          6           0       -2.517905   -2.467540   -0.135500
     16          6           0       -3.079432   -1.696504    0.887589
     17          6           0       -3.119690   -0.302742    0.785824
     18          6           0       -2.586916    0.289628   -0.358090
     19          6           0       -2.020771   -0.451247   -1.394369
     20          6           0       -1.991295   -1.843551   -1.271212
     21          1           0       -2.490820   -3.549682   -0.048138
     22          1           0       -3.489152   -2.178390    1.770742
     23          1           0       -3.548509    0.318282    1.562909
     24          1           0       -1.620235    0.057700   -2.262678
     25          1           0       -1.554589   -2.439821   -2.067324
     26          7           0       -2.623828    1.764371   -0.477148
     27          8           0       -2.147789    2.262121   -1.495121
     28          8           0       -3.128100    2.394597    0.449761
 ---------------------------------------------------------------------

 SCF Done:  E(RHF) =  -868.334694733     A.U. after   16 cycles
 E2 =    -0.2606349364D+01 EUMP2 =    -0.87094104409732D+03

 The electronic state is 1-A.
 Alpha  occ. eigenvalues --  -20.61660 -20.61622 -20.60703 -20.60685 -15.86699
 Alpha  occ. eigenvalues --  -15.85749 -11.32234 -11.31081 -11.28877 -11.28753
 Alpha  occ. eigenvalues --  -11.28635 -11.27980 -11.27840 -11.27679 -11.27595
 Alpha  occ. eigenvalues --  -11.27253 -11.26628 -11.26576  -1.60716  -1.59773
 Alpha  occ. eigenvalues --   -1.40264  -1.39328  -1.20501  -1.19242  -1.09845
 Alpha  occ. eigenvalues --   -1.08643  -1.05909  -1.04645  -0.96636  -0.95488
 Alpha  occ. eigenvalues --   -0.87276  -0.86045  -0.83444  -0.82328  -0.78451
 Alpha  occ. eigenvalues --   -0.77385  -0.72913  -0.72069  -0.71968  -0.71566
 Alpha  occ. eigenvalues --   -0.71097  -0.70387  -0.66111  -0.65865  -0.64892
 Alpha  occ. eigenvalues --   -0.64696  -0.63205  -0.62027  -0.56384  -0.55484
 Alpha  occ. eigenvalues --   -0.54265  -0.53950  -0.52814  -0.52513  -0.49691
 Alpha  occ. eigenvalues --   -0.49657  -0.48732  -0.48720  -0.45627  -0.44742
 Alpha  occ. eigenvalues --   -0.38609  -0.37718  -0.36976  -0.36037
 Alpha virt. eigenvalues --    0.03978   0.05149   0.10030   0.11419   0.15255
 Alpha virt. eigenvalues --    0.16774   0.20197   0.21928   0.26021   0.26908
 Alpha virt. eigenvalues --    0.27976   0.28700   0.30032   0.31627   0.31879

 Mulliken charges:
               1
     1  C   -0.174965
     2  C   -0.221329
     3  C   -0.169148
     4  C    0.158455
     5  C   -0.176069
     6  C   -0.215292
     7  H    0.226488
     8  H    0.228605
     9  H    0.277208
    10  H    0.271433
    11  H    0.216837
    12  N    0.488132
    13  O   -0.463069
    14  O   -0.458807
    15  C   -0.181109
    16  C   -0.221464
    17  C   -0.187865
    18  C    0.167650
    19  C   -0.163252
    20  C   -0.216831
    21  H    0.228907
    22  H    0.227006
    23  H    0.277230
    24  H    0.281440
    25  H    0.228464
    26  N    0.487618
    27  O   -0.454120
    28  O   -0.462152
 Sum of Mulliken charges =  -0.00000

 Dipole moment (field-independent basis, Debye):
    X=             -4.6924    Y=             -5.4927    Z=              2.5921  Tot=              7.6751
 Quadrupole moment (field-independent basis, Debye-Ang):
   XX=           -131.7162   YY=           -104.0902   ZZ=           -100.1028
   XY=             12.9572   XZ=              2.8355   YZ=              4.1734

 Normal termination of Gaussian 16 at Thu May  6 17:57:37 2021.
