 Gaussian 16, Revision A.03,
 Gaussian 16:  EM64L-G16RevA.03 25-Dec-2016

 -------------
 #p 6-31g* mp2
 -------------

 ------------------------------------------------------
 Input file generated by CHIRIPA (05-May-2021 14:55:25)
 ------------------------------------------------------
 Symbolic Z-matrix:
 Charge =  0 Multiplicity = 1

                         Standard orientation:
 ---------------------------------------------------------------------
 Center     Atomic      Atomic             Coordinates (Angstroms)
 Number     Number       Type             X           Y           Z
 ---------------------------------------------------------------------
      1          6           0        1.983352    1.977765   -0.883654
      2          6           0        3.301312    2.017853   -0.416863
      3          6           0        3.949438    0.844911   -0.018508
      4          6           0        3.246577   -0.356155   -0.100477
      5          6           0        1.932876   -0.428639   -0.561156
      6          6           0        1.304537    0.756800   -0.954186
      7          1           0        1.487557    2.893789   -1.191037
      8          1           0        3.830944    2.964645   -0.361004
      9          1           0        4.969243    0.847230    0.346746
     10          1           0        1.430779   -1.387469   -0.605440
     11          1           0        0.280937    0.722657   -1.316296
     12          7           0        3.922246   -1.604511    0.318425
     13          8           0        3.281187   -2.649970    0.236587
     14          8           0        5.080099   -1.513876    0.720667
     15          6           0       -3.701866    0.717543    0.676258
     16          6           0       -2.360934    1.248847    0.168715
     17          6           0       -1.750864    2.298387    1.098270
     18          1           0       -4.401096    1.556824    0.793006
     19          1           0       -3.562161    0.285593    1.676907
     20          1           0       -2.502854    1.678422   -0.831255
     21          1           0       -1.664875    0.408178    0.052980
     22          1           0       -1.580685    1.878109    2.094768
     23          1           0       -2.423426    3.155569    1.205508
     24          1           0       -0.792786    2.664584    0.716369
     25          6           0       -4.324294   -0.332491   -0.242295
     26          6           0       -5.665228   -0.863795    0.265249
     27          6           0       -6.275298   -1.913336   -0.664307
     28          1           0       -4.464000    0.099458   -1.242943
     29          1           0       -3.625065   -1.171773   -0.359042
     30          1           0       -6.361286   -0.023127    0.380983
     31          1           0       -5.523307   -1.293371    1.265219
     32          1           0       -5.602736   -2.770518   -0.771544
     33          1           0       -6.445476   -1.493057   -1.660804
     34          1           0       -7.233375   -2.279532   -0.282405
 ---------------------------------------------------------------------

 SCF Done:  E(RHF) =  -669.535201021     A.U. after   15 cycles
 E2 =    -0.2092247256D+01 EUMP2 =    -0.67162744827751D+03

 The electronic state is 1-A.
 Alpha  occ. eigenvalues --  -20.60765 -20.60760 -15.85817 -11.31189 -11.27746
 Alpha  occ. eigenvalues --  -11.27735 -11.27483 -11.26771 -11.26704 -11.22532
 Alpha  occ. eigenvalues --  -11.22038 -11.22008 -11.21911 -11.21857 -11.21391
 Alpha  occ. eigenvalues --   -1.59840  -1.39393  -1.19353  -1.09061  -1.08747
 Alpha  occ. eigenvalues --   -1.04758  -1.04146  -0.96568  -0.95584  -0.87584
 Alpha  occ. eigenvalues --   -0.86153  -0.82421  -0.80260  -0.78866  -0.77454
 Alpha  occ. eigenvalues --   -0.72036  -0.71162  -0.70467  -0.65697  -0.65005
 Alpha  occ. eigenvalues --   -0.64770  -0.62157  -0.61508  -0.59947  -0.58185
 Alpha  occ. eigenvalues --   -0.55830  -0.55261  -0.53347  -0.53114  -0.52875
 Alpha  occ. eigenvalues --   -0.52843  -0.50495  -0.48810  -0.48791  -0.48522
 Alpha  occ. eigenvalues --   -0.47274  -0.46386  -0.46295  -0.44798  -0.44396
 Alpha  occ. eigenvalues --   -0.37317  -0.36335
 Alpha virt. eigenvalues --    0.05033   0.11210   0.16436   0.20281   0.22530
 Alpha virt. eigenvalues --    0.24052   0.25556   0.26068   0.26618   0.28123
 Alpha virt. eigenvalues --    0.28796   0.30216   0.30800   0.31713   0.32226

 Mulliken charges:
               1
     1  C   -0.173378
     2  C   -0.218651
     3  C   -0.171177
     4  C    0.158962
     5  C   -0.173520
     6  C   -0.218568
     7  H    0.225769
     8  H    0.223502
     9  H    0.275587
    10  H    0.275153
    11  H    0.231439
    12  N    0.488060
    13  O   -0.460504
    14  O   -0.460381
    15  C   -0.297918
    16  C   -0.304856
    17  C   -0.476113
    18  H    0.151673
    19  H    0.153240
    20  H    0.147835
    21  H    0.148170
    22  H    0.161000
    23  H    0.157201
    24  H    0.155047
    25  C   -0.299033
    26  C   -0.300214
    27  C   -0.476211
    28  H    0.148797
    29  H    0.149335
    30  H    0.152594
    31  H    0.153788
    32  H    0.156320
    33  H    0.155058
    34  H    0.161993
 Sum of Mulliken charges =  -0.00000

 Dipole moment (field-independent basis, Debye):
    X=             -2.5121    Y=              4.3803    Z=             -1.4031  Tot=              5.2408
 Quadrupole moment (field-independent basis, Debye-Ang):
   XX=           -106.4618   YY=            -97.0820   ZZ=            -94.9971
   XY=             17.0618   XZ=             -3.8253   YZ=             -0.0250

 Normal termination of Gaussian 16 at Wed May  5 22:28:01 2021.
