 Gaussian 16, Revision A.03,
 Gaussian 16:  EM64L-G16RevA.03 25-Dec-2016

 -------------
 #p 6-31g* mp2
 -------------

 ------------------------------------------------------
 Input file generated by CHIRIPA (05-May-2021 14:51:12)
 ------------------------------------------------------
 Symbolic Z-matrix:
 Charge =  0 Multiplicity = 1

                         Standard orientation:
 ---------------------------------------------------------------------
 Center     Atomic      Atomic             Coordinates (Angstroms)
 Number     Number       Type             X           Y           Z
 ---------------------------------------------------------------------
      1          6           0       -5.092131   -0.207515   -0.408266
      2          6           0       -6.405803   -0.285453    0.370308
      3          6           0       -7.633685   -0.102089   -0.522148
      4          1           0       -5.033608    0.762851   -0.920037
      5          1           0       -5.093515   -0.975683   -1.193958
      6          1           0       -6.401360    0.481725    1.155187
      7          1           0       -6.461118   -1.255671    0.880440
      8          1           0       -7.665717   -0.874989   -1.296874
      9          1           0       -7.605620    0.872278   -1.020567
     10          1           0       -8.561820   -0.161408    0.054832
     11          6           0       -3.855578   -0.388968    0.470221
     12          6           0       -2.541906   -0.311031   -0.308354
     13          6           0       -1.314025   -0.494394    0.584103
     14          1           0       -3.854195    0.379199    1.255912
     15          1           0       -3.914101   -1.359335    0.981991
     16          1           0       -2.486591    0.659187   -0.818485
     17          1           0       -2.546349   -1.078209   -1.093232
     18          1           0       -1.342090   -1.468762    1.082521
     19          1           0       -1.281992    0.278505    1.358829
     20          1           0       -0.385889   -0.435075    0.007122
     21          6           0        5.107578    0.058239   -0.383435
     22          6           0        5.814169   -1.082474    0.349700
     23          6           0        7.080251   -1.551694   -0.367699
     24          1           0        4.854067   -0.269690   -1.400853
     25          1           0        5.803147    0.902019   -0.491201
     26          1           0        5.117035   -1.923335    0.457274
     27          1           0        6.065855   -0.751855    1.365556
     28          1           0        7.796817   -0.729355   -0.461994
     29          1           0        6.842606   -1.907491   -1.375437
     30          1           0        7.569416   -2.367544    0.173566
     31          6           0        3.840132    0.538244    0.321481
     32          6           0        3.133540    1.678957   -0.411655
     33          6           0        1.867459    2.148178    0.305744
     34          1           0        3.144562   -0.305535    0.429246
     35          1           0        4.093642    0.866173    1.338899
     36          1           0        2.881854    1.348339   -1.427510
     37          1           0        3.830674    2.519819   -0.519228
     38          1           0        2.105103    2.503975    1.313481
     39          1           0        1.150892    1.325839    0.400040
     40          1           0        1.378293    2.964028   -0.235520
 ---------------------------------------------------------------------

 SCF Done:  E(RHF) =  -470.733062124     A.U. after   11 cycles
 E2 =    -0.1582410599D+01 EUMP2 =    -0.47231547272279D+03

 The electronic state is 1-A.
 Alpha  occ. eigenvalues --  -11.21630 -11.21609 -11.21577 -11.21550 -11.21420
 Alpha  occ. eigenvalues --  -11.21372 -11.21360 -11.21312 -11.21116 -11.21077
 Alpha  occ. eigenvalues --  -11.21053 -11.20936  -1.08448  -1.08392  -1.03561
 Alpha  occ. eigenvalues --   -1.03478  -0.96032  -0.95911  -0.87069  -0.86910
 Alpha  occ. eigenvalues --   -0.79650  -0.79517  -0.78260  -0.78204  -0.65084
 Alpha  occ. eigenvalues --   -0.65023  -0.61010  -0.60862  -0.59409  -0.59282
 Alpha  occ. eigenvalues --   -0.57655  -0.57513  -0.55394  -0.55134  -0.52793
 Alpha  occ. eigenvalues --   -0.52622  -0.52435  -0.52277  -0.50035  -0.49754
 Alpha  occ. eigenvalues --   -0.47948  -0.47843  -0.46683  -0.46528  -0.45802
 Alpha  occ. eigenvalues --   -0.45752  -0.45717  -0.45667  -0.43776  -0.43738
 Alpha virt. eigenvalues --    0.21787   0.22984   0.23618   0.24904   0.26345
 Alpha virt. eigenvalues --    0.26612   0.27212   0.27496   0.27761   0.28960
 Alpha virt. eigenvalues --    0.30728   0.31260   0.31767   0.31841   0.32067

 Mulliken charges:
               1
     1  C   -0.298338
     2  C   -0.299679
     3  C   -0.475718
     4  H    0.149781
     5  H    0.149503
     6  H    0.152023
     7  H    0.151942
     8  H    0.155168
     9  H    0.155222
    10  H    0.160294
    11  C   -0.298701
    12  C   -0.299659
    13  C   -0.479695
    14  H    0.149902
    15  H    0.149680
    16  H    0.152767
    17  H    0.151809
    18  H    0.155460
    19  H    0.157236
    20  H    0.162391
    21  C   -0.298241
    22  C   -0.299636
    23  C   -0.475683
    24  H    0.149468
    25  H    0.149499
    26  H    0.151960
    27  H    0.151938
    28  H    0.155140
    29  H    0.155108
    30  H    0.160183
    31  C   -0.298458
    32  C   -0.299331
    33  C   -0.483956
    34  H    0.149435
    35  H    0.149737
    36  H    0.151179
    37  H    0.151647
    38  H    0.154505
    39  H    0.164922
    40  H    0.159195
 Sum of Mulliken charges =  -0.00000

 Dipole moment (field-independent basis, Debye):
    X=             -0.0470    Y=             -0.0181    Z=              0.0137  Tot=              0.0522
 Quadrupole moment (field-independent basis, Debye-Ang):
   XX=            -86.4111   YY=            -83.5835   ZZ=            -84.9126
   XY=              0.8846   XZ=              0.1872   YZ=              0.4208

 Normal termination of Gaussian 16 at Wed May  5 21:32:21 2021.
