 Gaussian 16, Revision A.03,
 Gaussian 16:  EM64L-G16RevA.03 25-Dec-2016

 -------------
 #p 6-31g* mp2
 -------------

 ------------------------------------------------------
 Input file generated by CHIRIPA (05-May-2021 14:53:17)
 ------------------------------------------------------
 Symbolic Z-matrix:
 Charge =  0 Multiplicity = 1

                         Standard orientation:
 ---------------------------------------------------------------------
 Center     Atomic      Atomic             Coordinates (Angstroms)
 Number     Number       Type             X           Y           Z
 ---------------------------------------------------------------------
      1          6           0       -2.410141    0.740773    0.105481
      2          6           0       -2.575330    1.968512    1.001781
      3          6           0       -1.330123    2.855486    1.024789
      4          1           0       -1.547490    0.155250    0.451806
      5          1           0       -2.174542    1.070176   -0.915980
      6          1           0       -2.811912    1.636927    2.020946
      7          1           0       -3.437805    2.551079    0.653400
      8          1           0       -1.094174    3.214440    0.017773
      9          1           0       -0.464724    2.295093    1.393089
     10          1           0       -1.470073    3.727235    1.671571
     11          6           0       -3.646629   -0.155726    0.072116
     12          6           0       -3.481439   -1.383465   -0.824184
     13          6           0       -4.726646   -2.270440   -0.847191
     14          1           0       -3.882228   -0.485129    1.093577
     15          1           0       -4.509280    0.429797   -0.274208
     16          1           0       -2.618965   -1.966032   -0.475802
     17          1           0       -3.244858   -1.051880   -1.843348
     18          1           0       -5.592045   -1.710046   -1.215492
     19          1           0       -4.962596   -2.629393    0.159825
     20          1           0       -4.586697   -3.142189   -1.493974
     21          6           0        2.418097   -1.983252    1.742853
     22          6           0        2.046892   -0.670179    2.050367
     23          6           0        2.014449    0.310272    1.054268
     24          6           0        2.360882   -0.058894   -0.244574
     25          6           0        2.734982   -1.358595   -0.582383
     26          6           0        2.760354   -2.322672    0.429774
     27          1           0        2.440553   -2.738530    2.522883
     28          1           0        1.780587   -0.403715    3.069251
     29          1           0        1.730831    1.334350    1.264607
     30          1           0        2.995151   -1.594014   -1.607229
     31          1           0        3.049031   -3.341631    0.188047
     32          7           0        2.330279    0.970398   -1.307598
     33          8           0        2.639957    0.619659   -2.444136
     34          8           0        1.997193    2.108405   -0.984131
 ---------------------------------------------------------------------

 SCF Done:  E(RHF) =  -669.535519790     A.U. after   15 cycles
 E2 =    -0.2092165738D+01 EUMP2 =    -0.67162768552832D+03

 The electronic state is 1-A.
 Alpha  occ. eigenvalues --  -20.60787 -20.60777 -15.85833 -11.31226 -11.27792
 Alpha  occ. eigenvalues --  -11.27788 -11.27542 -11.26826 -11.26811 -11.21553
 Alpha  occ. eigenvalues --  -11.21463 -11.21314 -11.21209 -11.21066 -11.20823
 Alpha  occ. eigenvalues --   -1.59855  -1.39407  -1.19401  -1.08789  -1.08326
 Alpha  occ. eigenvalues --   -1.04811  -1.03424  -0.95869  -0.95617  -0.86881
 Alpha  occ. eigenvalues --   -0.86202  -0.82452  -0.79489  -0.78140  -0.77487
 Alpha  occ. eigenvalues --   -0.72053  -0.71173  -0.70515  -0.65055  -0.64981
 Alpha  occ. eigenvalues --   -0.64800  -0.62190  -0.60814  -0.59237  -0.57470
 Alpha  occ. eigenvalues --   -0.55354  -0.55117  -0.53136  -0.52932  -0.52563
 Alpha  occ. eigenvalues --   -0.52240  -0.49798  -0.48816  -0.48809  -0.47786
 Alpha  occ. eigenvalues --   -0.46523  -0.45688  -0.45594  -0.44780  -0.43678
 Alpha  occ. eigenvalues --   -0.37375  -0.36396
 Alpha virt. eigenvalues --    0.05003   0.11175   0.16502   0.20902   0.22989
 Alpha virt. eigenvalues --    0.24245   0.25913   0.26966   0.27628   0.27768
 Alpha virt. eigenvalues --    0.29121   0.30669   0.31470   0.31873   0.32104

 Mulliken charges:
               1
     1  C   -0.300116
     2  C   -0.300294
     3  C   -0.475212
     4  H    0.146663
     5  H    0.155427
     6  H    0.147322
     7  H    0.153036
     8  H    0.170854
     9  H    0.143342
    10  H    0.158319
    11  C   -0.297890
    12  C   -0.299696
    13  C   -0.475542
    14  H    0.146920
    15  H    0.150451
    16  H    0.149849
    17  H    0.154567
    18  H    0.155989
    19  H    0.153601
    20  H    0.159687
    21  C   -0.170816
    22  C   -0.220604
    23  C   -0.173462
    24  C    0.158325
    25  C   -0.170653
    26  C   -0.218415
    27  H    0.225751
    28  H    0.223700
    29  H    0.281944
    30  H    0.275797
    31  H    0.223662
    32  N    0.487976
    33  O   -0.460499
    34  O   -0.459982
 Sum of Mulliken charges =  -0.00000

 Dipole moment (field-independent basis, Debye):
    X=              0.1552    Y=             -3.5555    Z=              3.6176  Tot=              5.0747
 Quadrupole moment (field-independent basis, Debye-Ang):
   XX=            -95.2702   YY=            -92.3718   ZZ=            -94.2426
   XY=            -10.8659   XZ=              8.2192   YZ=              2.4795

 Normal termination of Gaussian 16 at Thu May  6 20:30:27 2021.
