 Gaussian 16, Revision A.03,
 Gaussian 16:  EM64L-G16RevA.03 25-Dec-2016

 -------------
 #p 6-31g* mp2
 -------------

 ------------------------------------------------------
 Input file generated by CHIRIPA (05-May-2021 14:53:17)
 ------------------------------------------------------
 Symbolic Z-matrix:
 Charge =  0 Multiplicity = 1

                         Standard orientation:
 ---------------------------------------------------------------------
 Center     Atomic      Atomic             Coordinates (Angstroms)
 Number     Number       Type             X           Y           Z
 ---------------------------------------------------------------------
      1          6           0        3.136741   -0.251405   -0.019973
      2          6           0        2.152530   -0.388051   -1.182144
      3          6           0        0.694491   -0.411393   -0.722393
      4          1           0        2.984957   -1.083984    0.680541
      5          1           0        2.911707    0.669512    0.535604
      6          1           0        2.380231   -1.307727   -1.736188
      7          1           0        2.306805    0.444845   -1.880069
      8          1           0        0.444272    0.510752   -0.187941
      9          1           0        0.518115   -1.251777   -0.043242
     10          1           0        0.008061   -0.509669   -1.569161
     11          6           0        4.598345   -0.226593   -0.463625
     12          6           0        5.582556   -0.089947    0.698546
     13          6           0        7.040595   -0.066605    0.238795
     14          1           0        4.823379   -1.147510   -1.019202
     15          1           0        4.750129    0.605986   -1.164139
     16          1           0        5.428281   -0.922843    1.396471
     17          1           0        5.354855    0.829729    1.252590
     18          1           0        7.216971    0.773779   -0.440356
     19          1           0        7.290814   -0.988750   -0.295657
     20          1           0        7.727025    0.031671    1.085563
     21          6           0       -4.030231   -2.124686    0.112543
     22          6           0       -3.154835   -1.776771    1.146544
     23          6           0       -2.590021   -0.498963    1.198891
     24          6           0       -2.923999    0.410176    0.196288
     25          6           0       -3.792903    0.093567   -0.846811
     26          6           0       -4.345915   -1.190055   -0.879086
     27          1           0       -4.464408   -3.119576    0.079675
     28          1           0       -2.907871   -2.500579    1.918008
     29          1           0       -1.909429   -0.203123    1.987999
     30          1           0       -4.020129    0.836591   -1.601598
     31          1           0       -5.025456   -1.457472   -1.683297
     32          7           0       -2.332303    1.766011    0.241081
     33          8           0       -2.642547    2.548815   -0.654242
     34          8           0       -1.569492    2.020238    1.170664
 ---------------------------------------------------------------------

 SCF Done:  E(RHF) =  -669.536033919     A.U. after   15 cycles
 E2 =    -0.2092421865D+01 EUMP2 =    -0.67162845578395D+03

 The electronic state is 1-A.
 Alpha  occ. eigenvalues --  -20.60865 -20.60852 -15.85875 -11.31172 -11.27753
 Alpha  occ. eigenvalues --  -11.27741 -11.27492 -11.26757 -11.26746 -11.21350
 Alpha  occ. eigenvalues --  -11.21262 -11.21106 -11.21022 -11.20858 -11.20689
 Alpha  occ. eigenvalues --   -1.59915  -1.39474  -1.19351  -1.08760  -1.08126
 Alpha  occ. eigenvalues --   -1.04750  -1.03236  -0.95701  -0.95602  -0.86726
 Alpha  occ. eigenvalues --   -0.86148  -0.82447  -0.79318  -0.77942  -0.77496
 Alpha  occ. eigenvalues --   -0.72112  -0.71228  -0.70470  -0.65014  -0.64760
 Alpha  occ. eigenvalues --   -0.64750  -0.62102  -0.60626  -0.59068  -0.57304
 Alpha  occ. eigenvalues --   -0.55263  -0.54974  -0.53169  -0.52848  -0.52323
 Alpha  occ. eigenvalues --   -0.52105  -0.49639  -0.48871  -0.48865  -0.47640
 Alpha  occ. eigenvalues --   -0.46354  -0.45511  -0.45417  -0.44754  -0.43499
 Alpha  occ. eigenvalues --   -0.37306  -0.36329
 Alpha virt. eigenvalues --    0.05015   0.11283   0.16488   0.21374   0.23186
 Alpha virt. eigenvalues --    0.24561   0.26962   0.27151   0.27740   0.27959
 Alpha virt. eigenvalues --    0.28671   0.30876   0.31736   0.31978   0.32091

 Mulliken charges:
               1
     1  C   -0.299128
     2  C   -0.299243
     3  C   -0.486688
     4  H    0.145873
     5  H    0.155614
     6  H    0.148467
     7  H    0.154490
     8  H    0.170377
     9  H    0.148029
    10  H    0.157280
    11  C   -0.298177
    12  C   -0.299610
    13  C   -0.475574
    14  H    0.147629
    15  H    0.150762
    16  H    0.150324
    17  H    0.153697
    18  H    0.155678
    19  H    0.154080
    20  H    0.159657
    21  C   -0.170362
    22  C   -0.219398
    23  C   -0.167819
    24  C    0.161562
    25  C   -0.171669
    26  C   -0.218763
    27  H    0.225492
    28  H    0.223267
    29  H    0.275758
    30  H    0.275387
    31  H    0.223282
    32  N    0.488338
    33  O   -0.458788
    34  O   -0.459826
 Sum of Mulliken charges =  -0.00000

 Dipole moment (field-independent basis, Debye):
    X=             -2.1826    Y=             -4.6605    Z=             -0.1251  Tot=              5.1478
 Quadrupole moment (field-independent basis, Debye-Ang):
   XX=            -83.3317   YY=            -98.0169   ZZ=            -91.6670
   XY=             12.8086   XZ=              2.6933   YZ=             -2.3565

 Normal termination of Gaussian 16 at Thu May  6 04:23:55 2021.
