 Gaussian 16, Revision A.03,
 Gaussian 16:  EM64L-G16RevA.03 25-Dec-2016

 -------------
 #p 6-31g* mp2
 -------------

 ------------------------------------------------------
 Input file generated by CHIRIPA (05-May-2021 14:57:26)
 ------------------------------------------------------
 Symbolic Z-matrix:
 Charge =  0 Multiplicity = 1

                         Standard orientation:
 ---------------------------------------------------------------------
 Center     Atomic      Atomic             Coordinates (Angstroms)
 Number     Number       Type             X           Y           Z
 ---------------------------------------------------------------------
      1          6           0        2.034664    1.827966    0.607088
      2          6           0        3.289271    2.236850    0.143087
      3          6           0        4.242162    1.293309   -0.252232
      4          6           0        3.905355   -0.056916   -0.170104
      5          6           0        2.663964   -0.495694    0.287840
      6          6           0        1.726558    0.465401    0.677859
      7          1           0        1.300450    2.567749    0.912122
      8          1           0        3.531309    3.294358    0.087050
      9          1           0        5.221028    1.582150   -0.615286
     10          1           0        2.451763   -1.557016    0.332378
     11          1           0        0.753010    0.144952    1.037806
     12          7           0        4.905941   -1.065092   -0.585804
     13          8           0        4.584668   -2.248608   -0.503891
     14          8           0        5.992528   -0.652695   -0.985672
     15          6           0       -1.959148   -0.316858    1.876357
     16          6           0       -2.847876   -1.372933    1.649669
     17          6           0       -3.838776   -1.268933    0.668930
     18          6           0       -3.912655   -0.089173   -0.069987
     19          6           0       -3.041904    0.980489    0.132264
     20          6           0       -2.058822    0.854419    1.118268
     21          1           0       -1.192430   -0.406220    2.640264
     22          1           0       -2.772819   -2.283744    2.236895
     23          1           0       -4.539781   -2.071098    0.472605
     24          1           0       -3.141507    1.875966   -0.469083
     25          1           0       -1.369985    1.676196    1.292135
     26          7           0       -4.957539    0.032610   -1.111039
     27          8           0       -5.001704    1.082504   -1.748542
     28          8           0       -5.712568   -0.924135   -1.269799
 ---------------------------------------------------------------------

 SCF Done:  E(RHF) =  -868.335595619     A.U. after   16 cycles
 E2 =    -0.2601777506D+01 EUMP2 =    -0.87093737312456D+03

 The electronic state is 1-A.
 Alpha  occ. eigenvalues --  -20.61437 -20.61429 -20.61191 -20.61184 -15.86497
 Alpha  occ. eigenvalues --  -15.86246 -11.32091 -11.31728 -11.28715 -11.28632
 Alpha  occ. eigenvalues --  -11.28541 -11.28316 -11.28282 -11.28171 -11.27896
 Alpha  occ. eigenvalues --  -11.27708 -11.27360 -11.27351  -1.60505  -1.60262
 Alpha  occ. eigenvalues --   -1.40052  -1.39813  -1.20304  -1.19918  -1.09693
 Alpha  occ. eigenvalues --   -1.09313  -1.05738  -1.05333  -0.96470  -0.96129
 Alpha  occ. eigenvalues --   -0.87189  -0.86715  -0.83293  -0.82947  -0.78289
 Alpha  occ. eigenvalues --   -0.77958  -0.72715  -0.72466  -0.71828  -0.71585
 Alpha  occ. eigenvalues --   -0.71461  -0.71099  -0.66070  -0.65888  -0.65569
 Alpha  occ. eigenvalues --   -0.65195  -0.63088  -0.62637  -0.56323  -0.55903
 Alpha  occ. eigenvalues --   -0.54155  -0.53838  -0.53653  -0.53312  -0.49490
 Alpha  occ. eigenvalues --   -0.49451  -0.49233  -0.49211  -0.45406  -0.45192
 Alpha  occ. eigenvalues --   -0.38322  -0.37940  -0.37318  -0.36904
 Alpha virt. eigenvalues --    0.04214   0.04570   0.10090   0.10772   0.15564
 Alpha virt. eigenvalues --    0.16003   0.18211   0.22173   0.24387   0.26022
 Alpha virt. eigenvalues --    0.27885   0.28699   0.30151   0.31420   0.32909

 Mulliken charges:
               1
     1  C   -0.175645
     2  C   -0.217340
     3  C   -0.170427
     4  C    0.159787
     5  C   -0.173081
     6  C   -0.222090
     7  H    0.219057
     8  H    0.225314
     9  H    0.277625
    10  H    0.276434
    11  H    0.224887
    12  N    0.487992
    13  O   -0.459525
    14  O   -0.458621
    15  C   -0.179507
    16  C   -0.218171
    17  C   -0.169160
    18  C    0.159929
    19  C   -0.169615
    20  C   -0.219744
    21  H    0.225377
    22  H    0.227975
    23  H    0.279630
    24  H    0.277998
    25  H    0.218350
    26  N    0.487996
    27  O   -0.458354
    28  O   -0.457073
 Sum of Mulliken charges =  -0.00000

 Dipole moment (field-independent basis, Debye):
    X=             -0.0441    Y=              2.9836    Z=              4.9857  Tot=              5.8104
 Quadrupole moment (field-independent basis, Debye-Ang):
   XX=           -157.5613   YY=            -98.4498   ZZ=           -106.9274
   XY=             20.3015   XZ=             -9.6432   YZ=             -3.3658

 Normal termination of Gaussian 16 at Thu May  6 22:54:37 2021.
