 Gaussian 16, Revision A.03,
 Gaussian 16:  EM64L-G16RevA.03 25-Dec-2016

 -------------
 #p 6-31g* mp2
 -------------

 ------------------------------------------------------
 Input file generated by CHIRIPA (05-May-2021 14:55:19)
 ------------------------------------------------------
 Symbolic Z-matrix:
 Charge =  0 Multiplicity = 1

                         Standard orientation:
 ---------------------------------------------------------------------
 Center     Atomic      Atomic             Coordinates (Angstroms)
 Number     Number       Type             X           Y           Z
 ---------------------------------------------------------------------
      1          6           0       -3.431360   -2.199341    0.216804
      2          6           0       -3.576137   -1.116842    1.090736
      3          6           0       -3.062763    0.139666    0.755800
      4          6           0       -2.407340    0.278675   -0.466652
      5          6           0       -2.247089   -0.780576   -1.358614
      6          6           0       -2.768467   -2.028055   -1.002932
      7          1           0       -3.833271   -3.171919    0.485048
      8          1           0       -4.090483   -1.246938    2.038664
      9          1           0       -3.160721    0.994702    1.413626
     10          1           0       -1.729457   -0.620047   -2.296540
     11          1           0       -2.654551   -2.866955   -1.683604
     12          7           0       -1.859617    1.604104   -0.832215
     13          8           0       -1.286332    1.700532   -1.915120
     14          8           0       -2.013969    2.521451   -0.028917
     15          6           0        3.952797   -0.174127    0.468228
     16          6           0        4.430041   -0.467842   -0.954430
     17          6           0        5.944422   -0.659522   -1.042203
     18          1           0        4.460001    0.726840    0.839641
     19          1           0        4.257772   -0.998681    1.127392
     20          1           0        4.123053    0.356363   -1.610981
     21          1           0        3.921499   -1.368105   -1.322569
     22          1           0        6.264305   -1.494486   -0.410450
     23          1           0        6.467005    0.239782   -0.700501
     24          1           0        6.263865   -0.868414   -2.067961
     25          6           0        2.441089    0.019943    0.572162
     26          6           0        1.963845    0.313659    1.994820
     27          6           0        0.449464    0.505338    2.082593
     28          1           0        2.136115    0.844497   -0.087001
     29          1           0        1.933884   -0.881024    0.200749
     30          1           0        2.472388    1.213922    2.362959
     31          1           0        2.270833   -0.510548    2.651371
     32          1           0       -0.073119   -0.393966    1.740891
     33          1           0        0.129581    1.340303    1.450840
     34          1           0        0.130021    0.714230    3.108351
 ---------------------------------------------------------------------

 SCF Done:  E(RHF) =  -669.535751543     A.U. after   15 cycles
 E2 =    -0.2092977501D+01 EUMP2 =    -0.67162872904480D+03

 The electronic state is 1-A.
 Alpha  occ. eigenvalues --  -20.60881 -20.60872 -15.85887 -11.31173 -11.27769
 Alpha  occ. eigenvalues --  -11.27745 -11.27518 -11.26777 -11.26764 -11.21319
 Alpha  occ. eigenvalues --  -11.21258 -11.21089 -11.20995 -11.20843 -11.20665
 Alpha  occ. eigenvalues --   -1.59934  -1.39491  -1.19371  -1.08780  -1.08109
 Alpha  occ. eigenvalues --   -1.04768  -1.03224  -0.95690  -0.95615  -0.86712
 Alpha  occ. eigenvalues --   -0.86160  -0.82462  -0.79304  -0.77927  -0.77510
 Alpha  occ. eigenvalues --   -0.72125  -0.71252  -0.70486  -0.65029  -0.64774
 Alpha  occ. eigenvalues --   -0.64732  -0.62115  -0.60615  -0.59052  -0.57307
 Alpha  occ. eigenvalues --   -0.55282  -0.54979  -0.53189  -0.52861  -0.52375
 Alpha  occ. eigenvalues --   -0.52035  -0.49612  -0.48885  -0.48881  -0.47616
 Alpha  occ. eigenvalues --   -0.46329  -0.45478  -0.45382  -0.44799  -0.43480
 Alpha  occ. eigenvalues --   -0.37325  -0.36347
 Alpha virt. eigenvalues --    0.04994   0.11255   0.16494   0.21386   0.23186
 Alpha virt. eigenvalues --    0.24551   0.26933   0.27244   0.27662   0.28093
 Alpha virt. eigenvalues --    0.28510   0.30834   0.31651   0.32026   0.32232

 Mulliken charges:
               1
     1  C   -0.170888
     2  C   -0.219294
     3  C   -0.168215
     4  C    0.160477
     5  C   -0.171039
     6  C   -0.219171
     7  H    0.225637
     8  H    0.223657
     9  H    0.276170
    10  H    0.275628
    11  H    0.223376
    12  N    0.487770
    13  O   -0.458961
    14  O   -0.458969
    15  C   -0.297954
    16  C   -0.299758
    17  C   -0.475557
    18  H    0.150683
    19  H    0.147134
    20  H    0.155754
    21  H    0.149163
    22  H    0.153619
    23  H    0.155766
    24  H    0.159589
    25  C   -0.300843
    26  C   -0.298343
    27  C   -0.488933
    28  H    0.158313
    29  H    0.145077
    30  H    0.153652
    31  H    0.148198
    32  H    0.152730
    33  H    0.169056
    34  H    0.156478
 Sum of Mulliken charges =  -0.00000

 Dipole moment (field-independent basis, Debye):
    X=             -2.0220    Y=             -4.5550    Z=              1.2083  Tot=              5.1280
 Quadrupole moment (field-independent basis, Debye-Ang):
   XX=            -86.8820   YY=            -96.2025   ZZ=            -92.6814
   XY=             10.7144   XZ=             -3.8644   YZ=              4.2597

 Normal termination of Gaussian 16 at Thu May  6 15:44:04 2021.
