 Gaussian 16, Revision A.03,
 Gaussian 16:  EM64L-G16RevA.03 25-Dec-2016

 -------------
 #p 6-31g* mp2
 -------------

 ------------------------------------------------------
 Input file generated by CHIRIPA (05-May-2021 14:55:24)
 ------------------------------------------------------
 Symbolic Z-matrix:
 Charge =  0 Multiplicity = 1

                         Standard orientation:
 ---------------------------------------------------------------------
 Center     Atomic      Atomic             Coordinates (Angstroms)
 Number     Number       Type             X           Y           Z
 ---------------------------------------------------------------------
      1          6           0       -2.908259    0.666007   -1.878587
      2          6           0       -3.330517    0.953464   -0.576439
      3          6           0       -2.756067    0.298660    0.517082
      4          6           0       -1.757284   -0.642146    0.270897
      5          6           0       -1.315062   -0.950387   -1.014684
      6          6           0       -1.903651   -0.283327   -2.093175
      7          1           0       -3.359998    1.179434   -2.722222
      8          1           0       -4.110511    1.690263   -0.406792
      9          1           0       -3.063979    0.501928    1.535556
     10          1           0       -0.535446   -1.689775   -1.152235
     11          1           0       -1.573731   -0.508590   -3.103350
     12          7           0       -1.141655   -1.341844    1.420603
     13          8           0       -0.263481   -2.166549    1.177068
     14          8           0       -1.548956   -1.052314    2.543508
     15          6           0        2.357326    1.264541    0.380164
     16          6           0        1.411027    2.379881   -0.065391
     17          6           0        1.378175    3.553639    0.913898
     18          1           0        2.051013    0.907230    1.372860
     19          1           0        3.369691    1.676100    0.494764
     20          1           0        0.401021    1.966037   -0.180454
     21          1           0        1.719512    2.734447   -1.057225
     22          1           0        2.374970    3.993376    1.021752
     23          1           0        1.048987    3.220601    1.903505
     24          1           0        0.695454    4.339469    0.575929
     25          6           0        2.401066    0.084136   -0.588577
     26          6           0        3.347365   -1.031203   -0.143023
     27          6           0        3.380216   -2.204961   -1.122312
     28          1           0        1.388702   -0.327422   -0.703178
     29          1           0        2.707378    0.441447   -1.581273
     30          1           0        3.038879   -1.385769    0.848812
     31          1           0        4.357371   -0.617360   -0.027960
     32          1           0        3.709404   -1.871924   -2.111919
     33          1           0        2.383422   -2.644699   -1.230166
     34          1           0        4.062937   -2.990792   -0.784343
 ---------------------------------------------------------------------

 SCF Done:  E(RHF) =  -669.535223218     A.U. after   15 cycles
 E2 =    -0.2094894006D+01 EUMP2 =    -0.67163011722411D+03

 The electronic state is 1-A.
 Alpha  occ. eigenvalues --  -20.60982 -20.60967 -15.86007 -11.31325 -11.27894
 Alpha  occ. eigenvalues --  -11.27880 -11.27617 -11.26889 -11.26874 -11.21429
 Alpha  occ. eigenvalues --  -11.21077 -11.21036 -11.20986 -11.20944 -11.20693
 Alpha  occ. eigenvalues --   -1.60038  -1.39593  -1.19506  -1.08899  -1.08102
 Alpha  occ. eigenvalues --   -1.04898  -1.03206  -0.95749  -0.95682  -0.86711
 Alpha  occ. eigenvalues --   -0.86297  -0.82571  -0.79280  -0.77979  -0.77594
 Alpha  occ. eigenvalues --   -0.72228  -0.71367  -0.70613  -0.65163  -0.64968
 Alpha  occ. eigenvalues --   -0.64648  -0.62253  -0.60574  -0.59060  -0.57301
 Alpha  occ. eigenvalues --   -0.55401  -0.54976  -0.53270  -0.52990  -0.52374
 Alpha  occ. eigenvalues --   -0.52120  -0.49638  -0.48996  -0.48980  -0.47604
 Alpha  occ. eigenvalues --   -0.46283  -0.45531  -0.45356  -0.44888  -0.43465
 Alpha  occ. eigenvalues --   -0.37452  -0.36432
 Alpha virt. eigenvalues --    0.04866   0.11063   0.16369   0.20598   0.23019
 Alpha virt. eigenvalues --    0.23841   0.26100   0.27360   0.27769   0.27989
 Alpha virt. eigenvalues --    0.28983   0.30399   0.31424   0.32103   0.32121

 Mulliken charges:
               1
     1  C   -0.170365
     2  C   -0.218050
     3  C   -0.171466
     4  C    0.161063
     5  C   -0.173986
     6  C   -0.218643
     7  H    0.226446
     8  H    0.224193
     9  H    0.276063
    10  H    0.278497
    11  H    0.224949
    12  N    0.488356
    13  O   -0.461729
    14  O   -0.459020
    15  C   -0.300524
    16  C   -0.302263
    17  C   -0.475700
    18  H    0.156217
    19  H    0.149138
    20  H    0.152307
    21  H    0.148509
    22  H    0.155397
    23  H    0.157867
    24  H    0.156475
    25  C   -0.302232
    26  C   -0.299667
    27  C   -0.476772
    28  H    0.149375
    29  H    0.143546
    30  H    0.167074
    31  H    0.148638
    32  H    0.149341
    33  H    0.154919
    34  H    0.162050
 Sum of Mulliken charges =  -0.00000

 Dipole moment (field-independent basis, Debye):
    X=             -2.2932    Y=              2.3625    Z=             -3.9138  Tot=              5.1144
 Quadrupole moment (field-independent basis, Debye-Ang):
   XX=            -85.2708   YY=            -98.0959   ZZ=            -95.4678
   XY=             -4.5443   XZ=              4.7566   YZ=              4.2089

 Normal termination of Gaussian 16 at Thu May  6 04:44:15 2021.
