 Gaussian 16, Revision A.03,
 Gaussian 16:  EM64L-G16RevA.03 25-Dec-2016

 -------------
 #p 6-31g* mp2
 -------------

 ------------------------------------------------------
 Input file generated by CHIRIPA (05-May-2021 14:53:11)
 ------------------------------------------------------
 Symbolic Z-matrix:
 Charge =  0 Multiplicity = 1

                         Standard orientation:
 ---------------------------------------------------------------------
 Center     Atomic      Atomic             Coordinates (Angstroms)
 Number     Number       Type             X           Y           Z
 ---------------------------------------------------------------------
      1          6           0        4.489383   -0.271949   -0.020864
      2          6           0        4.206996   -1.749459    0.253376
      3          6           0        5.478323   -2.553209    0.528160
      4          1           0        5.170319   -0.188462   -0.878944
      5          1           0        5.017858    0.159222    0.840647
      6          1           0        3.677986   -2.177372   -0.607818
      7          1           0        3.526501   -1.829431    1.110783
      8          1           0        6.006049   -2.153252    1.400021
      9          1           0        6.158394   -2.503170   -0.328345
     10          1           0        5.253319   -3.606684    0.721609
     11          6           0        3.228287    0.544700   -0.297357
     12          6           0        3.510674    2.022210   -0.571597
     13          6           0        2.239347    2.825960   -0.846381
     14          1           0        2.699812    0.113530   -1.158868
     15          1           0        2.547351    0.461213    0.560723
     16          1           0        4.191169    2.102183   -1.429004
     17          1           0        4.039684    2.450123    0.289597
     18          1           0        1.559276    2.775921    0.010124
     19          1           0        1.711621    2.426004   -1.718242
     20          1           0        2.464351    3.879436   -1.039830
     21          6           0       -0.761673    0.773919    0.841599
     22          6           0       -1.921114    1.200572    1.497485
     23          6           0       -3.174786    0.719369    1.108514
     24          6           0       -3.232530   -0.191663    0.054960
     25          6           0       -2.095477   -0.635782   -0.618210
     26          6           0       -0.852395   -0.141283   -0.212296
     27          1           0        0.208096    1.152895    1.150342
     28          1           0       -1.853678    1.911255    2.316280
     29          1           0       -4.088380    1.032874    1.598900
     30          1           0       -2.194514   -1.345011   -1.430984
     31          1           0        0.046366   -0.474386   -0.723487
     32          7           0       -4.554131   -0.708130   -0.365794
     33          8           0       -4.578145   -1.510087   -1.296882
     34          8           0       -5.540963   -0.301200    0.243473
 ---------------------------------------------------------------------

 SCF Done:  E(RHF) =  -669.534879211     A.U. after   15 cycles
 E2 =    -0.2092632313D+01 EUMP2 =    -0.67162751152357D+03

 The electronic state is 1-A.
 Alpha  occ. eigenvalues --  -20.60692 -20.60687 -15.85744 -11.31089 -11.27657
 Alpha  occ. eigenvalues --  -11.27643 -11.27345 -11.26667 -11.26614 -11.22748
 Alpha  occ. eigenvalues --  -11.22674 -11.22464 -11.22351 -11.22185 -11.21738
 Alpha  occ. eigenvalues --   -1.59768  -1.39322  -1.19254  -1.09516  -1.08649
 Alpha  occ. eigenvalues --   -1.04654  -1.04505  -0.96968  -0.95495  -0.87977
 Alpha  occ. eigenvalues --   -0.86051  -0.82333  -0.80585  -0.79361  -0.77372
 Alpha  occ. eigenvalues --   -0.71962  -0.71091  -0.70406  -0.66136  -0.64902
 Alpha  occ. eigenvalues --   -0.64657  -0.62009  -0.61897  -0.60335  -0.58588
 Alpha  occ. eigenvalues --   -0.56287  -0.55183  -0.53604  -0.53424  -0.52955
 Alpha  occ. eigenvalues --   -0.52733  -0.50911  -0.48867  -0.48724  -0.48718
 Alpha  occ. eigenvalues --   -0.47600  -0.46839  -0.46771  -0.44788  -0.44732
 Alpha  occ. eigenvalues --   -0.37214  -0.36258
 Alpha virt. eigenvalues --    0.05130   0.11363   0.16556   0.19188   0.22537
 Alpha virt. eigenvalues --    0.23504   0.24084   0.25499   0.26860   0.28213
 Alpha virt. eigenvalues --    0.29395   0.30273   0.30813   0.31267   0.31642

 Mulliken charges:
               1
     1  C   -0.297992
     2  C   -0.300982
     3  C   -0.476293
     4  H    0.153697
     5  H    0.152301
     6  H    0.151219
     7  H    0.151653
     8  H    0.156591
     9  H    0.156992
    10  H    0.163093
    11  C   -0.304895
    12  C   -0.300839
    13  C   -0.478157
    14  H    0.148422
    15  H    0.142967
    16  H    0.157208
    17  H    0.154606
    18  H    0.147449
    19  H    0.158391
    20  H    0.166501
    21  C   -0.173825
    22  C   -0.219729
    23  C   -0.170963
    24  C    0.158621
    25  C   -0.171713
    26  C   -0.223165
    27  H    0.230888
    28  H    0.222900
    29  H    0.275119
    30  H    0.275214
    31  H    0.228183
    32  N    0.488023
    33  O   -0.460748
    34  O   -0.460738
 Sum of Mulliken charges =  -0.00000

 Dipole moment (field-independent basis, Debye):
    X=              4.9641    Y=              1.8405    Z=              1.4200  Tot=              5.4814
 Quadrupole moment (field-independent basis, Debye-Ang):
   XX=           -124.0180   YY=            -94.5711   ZZ=            -91.4980
   XY=             -7.6405   XZ=             -6.7743   YZ=              2.2884

 Normal termination of Gaussian 16 at Wed May  5 23:17:24 2021.
