 Gaussian 16, Revision A.03,
 Gaussian 16:  EM64L-G16RevA.03 25-Dec-2016

 -------------
 #p 6-31g* mp2
 -------------

 ------------------------------------------------------
 Input file generated by CHIRIPA (05-May-2021 14:57:21)
 ------------------------------------------------------
 Symbolic Z-matrix:
 Charge =  0 Multiplicity = 1

                         Standard orientation:
 ---------------------------------------------------------------------
 Center     Atomic      Atomic             Coordinates (Angstroms)
 Number     Number       Type             X           Y           Z
 ---------------------------------------------------------------------
      1          6           0        3.251121   -2.359109   -0.267185
      2          6           0        3.415963   -1.489877   -1.350598
      3          6           0        3.243466   -0.112060   -1.188079
      4          6           0        2.904753    0.364410    0.077441
      5          6           0        2.733529   -0.476095    1.176315
      6          6           0        2.911030   -1.850340    0.990596
      7          1           0        3.387064   -3.428043   -0.402445
      8          1           0        3.680071   -1.882179   -2.328551
      9          1           0        3.364915    0.583399   -2.009666
     10          1           0        2.470128   -0.055374    2.139140
     11          1           0        2.782365   -2.523036    1.833788
     12          7           0        2.719490    1.821152    0.261772
     13          8           0        2.421190    2.215886    1.386868
     14          8           0        2.876089    2.540630   -0.722334
     15          6           0       -5.421611    0.303185   -0.083871
     16          6           0       -4.935838   -0.979162    0.192050
     17          6           0       -3.560226   -1.227568    0.215079
     18          6           0       -2.694918   -0.165651   -0.043501
     19          6           0       -3.148121    1.122976   -0.321604
     20          6           0       -4.527777    1.348318   -0.339368
     21          1           0       -6.491791    0.487195   -0.099716
     22          1           0       -5.627668   -1.792734    0.390844
     23          1           0       -3.156994   -2.210619    0.425870
     24          1           0       -2.433872    1.913883   -0.515850
     25          1           0       -4.902187    2.345223   -0.553948
     26          7           0       -1.236478   -0.416419   -0.021909
     27          8           0       -0.494910    0.536102   -0.253031
     28          8           0       -0.862536   -1.560744    0.225728
 ---------------------------------------------------------------------

 SCF Done:  E(RHF) =  -868.338750825     A.U. after   16 cycles
 E2 =    -0.2601009449D+01 EUMP2 =    -0.87093976027484D+03

 The electronic state is 1-A.
 Alpha  occ. eigenvalues --  -20.60987 -20.60938 -20.59239 -20.59231 -15.85996
 Alpha  occ. eigenvalues --  -15.84281 -11.31234 -11.29419 -11.27828 -11.27738
 Alpha  occ. eigenvalues --  -11.27526 -11.26809 -11.26749 -11.26046 -11.25991
 Alpha  occ. eigenvalues --  -11.25827 -11.25127 -11.25062  -1.60025  -1.58287
 Alpha  occ. eigenvalues --   -1.39582  -1.37863  -1.19399  -1.17592  -1.08822
 Alpha  occ. eigenvalues --   -1.07058  -1.04781  -1.03038  -0.95678  -0.93942
 Alpha  occ. eigenvalues --   -0.86186  -0.84469  -0.82515  -0.80824  -0.77566
 Alpha  occ. eigenvalues --   -0.75869  -0.72268  -0.71336  -0.70555  -0.70508
 Alpha  occ. eigenvalues --   -0.69499  -0.68841  -0.65054  -0.64785  -0.63328
 Alpha  occ. eigenvalues --   -0.63139  -0.62124  -0.60451  -0.55303  -0.53636
 Alpha  occ. eigenvalues --   -0.53121  -0.52871  -0.51431  -0.51214  -0.48977
 Alpha  occ. eigenvalues --   -0.48817  -0.47297  -0.47279  -0.45017  -0.43331
 Alpha  occ. eigenvalues --   -0.37382  -0.36379  -0.35494  -0.34572
 Alpha virt. eigenvalues --    0.04951   0.06750   0.11277   0.13055   0.16470
 Alpha virt. eigenvalues --    0.18258   0.21428   0.22853   0.27349   0.28327
 Alpha virt. eigenvalues --    0.28713   0.29738   0.30986   0.32301   0.32590

 Mulliken charges:
               1
     1  C   -0.168221
     2  C   -0.218377
     3  C   -0.170134
     4  C    0.178939
     5  C   -0.163212
     6  C   -0.208481
     7  H    0.218288
     8  H    0.215609
     9  H    0.269187
    10  H    0.269097
    11  H    0.216730
    12  N    0.492356
    13  O   -0.466372
    14  O   -0.467846
    15  C   -0.170401
    16  C   -0.218792
    17  C   -0.171216
    18  C    0.157607
    19  C   -0.170276
    20  C   -0.218837
    21  H    0.225946
    22  H    0.222801
    23  H    0.273265
    24  H    0.281086
    25  H    0.225346
    26  N    0.489804
    27  O   -0.459762
    28  O   -0.464131
 Sum of Mulliken charges =  -0.00000

 Dipole moment (field-independent basis, Debye):
    X=             -4.8472    Y=             -4.1526    Z=             -0.6933  Tot=              6.4203
 Quadrupole moment (field-independent basis, Debye-Ang):
   XX=            -75.3922   YY=           -105.3412   ZZ=           -101.2577
   XY=            -15.4532   XZ=             -2.5632   YZ=             -2.8625

 Normal termination of Gaussian 16 at Wed May  5 16:11:48 2021.
