 Gaussian 16, Revision A.03,
 Gaussian 16:  EM64L-G16RevA.03 25-Dec-2016

 -------------
 #p 6-31g* mp2
 -------------

 ------------------------------------------------------
 Input file generated by CHIRIPA (05-May-2021 14:51:14)
 ------------------------------------------------------
 Symbolic Z-matrix:
 Charge =  0 Multiplicity = 1

                         Standard orientation:
 ---------------------------------------------------------------------
 Center     Atomic      Atomic             Coordinates (Angstroms)
 Number     Number       Type             X           Y           Z
 ---------------------------------------------------------------------
      1          6           0       -2.437902   -0.322175    0.766909
      2          6           0       -2.367685   -1.849566    0.778466
      3          6           0       -1.328045   -2.386116    1.762873
      4          1           0       -1.448243    0.082126    0.513805
      5          1           0       -2.671779    0.034847    1.779446
      6          1           0       -2.135374   -2.203665   -0.234086
      7          1           0       -3.357672   -2.250281    1.031384
      8          1           0       -1.559165   -2.061105    2.782457
      9          1           0       -0.329922   -2.014224    1.509797
     10          1           0       -1.294608   -3.480044    1.754872
     11          6           0       -3.472696    0.229314   -0.212268
     12          6           0       -3.542913    1.756704   -0.223825
     13          6           0       -4.582553    2.293255   -1.208232
     14          1           0       -3.238819   -0.127708   -1.224805
     15          1           0       -4.462355   -0.174987    0.040836
     16          1           0       -2.552926    2.157420   -0.476743
     17          1           0       -3.775224    2.110804    0.788727
     18          1           0       -5.580676    1.921363   -0.955156
     19          1           0       -4.351433    1.968244   -2.227816
     20          1           0       -4.615990    3.387183   -1.200231
     21          6           0        2.881925    0.650160    0.184804
     22          6           0        4.057526    1.624294    0.101066
     23          6           0        3.896150    2.826915    1.031364
     24          1           0        1.953602    1.183752   -0.061048
     25          1           0        2.776842    0.301454    1.221508
     26          1           0        4.161223    1.969993   -0.935445
     27          1           0        4.983182    1.088276    0.346958
     28          1           0        3.815189    2.500003    2.073081
     29          1           0        2.988561    3.386729    0.783391
     30          1           0        4.747660    3.510310    0.955455
     31          6           0        3.028673   -0.557299   -0.739445
     32          6           0        1.853072   -1.531433   -0.655707
     33          6           0        2.014448   -2.734054   -1.586005
     34          1           0        3.133756   -0.208593   -1.776150
     35          1           0        3.956996   -1.090891   -0.493593
     36          1           0        0.927417   -0.995415   -0.901599
     37          1           0        1.749375   -1.877132    0.380804
     38          1           0        2.922037   -3.293868   -1.338032
     39          1           0        2.095409   -2.407141   -2.627722
     40          1           0        1.162938   -3.417448   -1.510096
 ---------------------------------------------------------------------

 SCF Done:  E(RHF) =  -470.733129826     A.U. after   11 cycles
 E2 =    -0.1583372799D+01 EUMP2 =    -0.47231650262528D+03

 The electronic state is 1-A.
 Alpha  occ. eigenvalues --  -11.21679 -11.21640 -11.21602 -11.21554 -11.21464
 Alpha  occ. eigenvalues --  -11.21404 -11.21384 -11.21320 -11.21129 -11.21094
 Alpha  occ. eigenvalues --  -11.21074 -11.20946  -1.08496  -1.08400  -1.03600
 Alpha  occ. eigenvalues --   -1.03482  -0.96033  -0.95939  -0.87049  -0.86959
 Alpha  occ. eigenvalues --   -0.79704  -0.79526  -0.78342  -0.78184  -0.65130
 Alpha  occ. eigenvalues --   -0.65033  -0.61000  -0.60915  -0.59391  -0.59307
 Alpha  occ. eigenvalues --   -0.57658  -0.57542  -0.55330  -0.55211  -0.52723
 Alpha  occ. eigenvalues --   -0.52637  -0.52468  -0.52361  -0.50045  -0.49850
 Alpha  occ. eigenvalues --   -0.48103  -0.47771  -0.46761  -0.46530  -0.46003
 Alpha  occ. eigenvalues --   -0.45736  -0.45720  -0.45465  -0.43835  -0.43754
 Alpha virt. eigenvalues --    0.20411   0.23208   0.23505   0.24884   0.25380
 Alpha virt. eigenvalues --    0.25791   0.26889   0.27907   0.28560   0.29329
 Alpha virt. eigenvalues --    0.30672   0.31124   0.31430   0.31863   0.32177

 Mulliken charges:
               1
     1  C   -0.300785
     2  C   -0.298872
     3  C   -0.482860
     4  H    0.151548
     5  H    0.149572
     6  H    0.151562
     7  H    0.151643
     8  H    0.154322
     9  H    0.163740
    10  H    0.159125
    11  C   -0.298258
    12  C   -0.299466
    13  C   -0.475683
    14  H    0.149163
    15  H    0.149725
    16  H    0.151341
    17  H    0.152081
    18  H    0.155272
    19  H    0.155060
    20  H    0.160200
    21  C   -0.298853
    22  C   -0.299648
    23  C   -0.475767
    24  H    0.149246
    25  H    0.149768
    26  H    0.152000
    27  H    0.152165
    28  H    0.155421
    29  H    0.155265
    30  H    0.160380
    31  C   -0.297589
    32  C   -0.306492
    33  C   -0.475913
    34  H    0.149600
    35  H    0.150040
    36  H    0.153606
    37  H    0.156481
    38  H    0.155583
    39  H    0.155255
    40  H    0.161021
 Sum of Mulliken charges =  -0.00000

 Dipole moment (field-independent basis, Debye):
    X=              0.0547    Y=             -0.0001    Z=             -0.0052  Tot=              0.0549
 Quadrupole moment (field-independent basis, Debye-Ang):
   XX=            -84.5208   YY=            -85.6981   ZZ=            -84.5405
   XY=              0.0444   XZ=             -0.6270   YZ=             -0.5622

 Normal termination of Gaussian 16 at Thu May  6 07:12:23 2021.
