 Gaussian 16, Revision A.03,
 Gaussian 16:  EM64L-G16RevA.03 25-Dec-2016

 -------------
 #p 6-31g* mp2
 -------------

 ------------------------------------------------------
 Input file generated by CHIRIPA (05-May-2021 14:51:12)
 ------------------------------------------------------
 Symbolic Z-matrix:
 Charge =  0 Multiplicity = 1

                         Standard orientation:
 ---------------------------------------------------------------------
 Center     Atomic      Atomic             Coordinates (Angstroms)
 Number     Number       Type             X           Y           Z
 ---------------------------------------------------------------------
      1          6           0        2.814404   -0.272797   -0.883296
      2          6           0        2.517887   -1.733071   -0.540275
      3          6           0        2.290507   -2.597319   -1.780907
      4          1           0        1.979866    0.136371   -1.469021
      5          1           0        3.701636   -0.228202   -1.529999
      6          1           0        1.632295   -1.774799    0.106718
      7          1           0        3.353141   -2.138755    0.044865
      8          1           0        3.174963   -2.585463   -2.426042
      9          1           0        1.444339   -2.219439   -2.363837
     10          1           0        2.080186   -3.637345   -1.512633
     11          6           0        3.044012    0.603819    0.346563
     12          6           0        3.340529    2.064093    0.003542
     13          6           0        3.567909    2.928341    1.244174
     14          1           0        2.156780    0.559223    0.993266
     15          1           0        3.878550    0.194651    0.932288
     16          1           0        2.505275    2.469777   -0.581598
     17          1           0        4.226121    2.105820   -0.643451
     18          1           0        4.414076    2.550460    1.827104
     19          1           0        2.683453    2.916484    1.889309
     20          1           0        3.778230    3.968367    0.975900
     21          6           0       -2.320852   -0.625460    0.310572
     22          6           0       -2.317479   -1.513774    1.555110
     23          6           0       -1.094138   -2.428267    1.625350
     24          1           0       -2.283885   -1.260246   -0.585322
     25          1           0       -1.405963   -0.016960    0.300464
     26          1           0       -3.232762   -2.119415    1.563584
     27          1           0       -2.354651   -0.876804    2.448142
     28          1           0       -0.172286   -1.837914    1.641778
     29          1           0       -1.055385   -3.087584    0.752195
     30          1           0       -1.112016   -3.054481    2.522789
     31          6           0       -3.537565    0.294438    0.226161
     32          6           0       -3.540937    1.182752   -1.018377
     33          6           0       -4.764277    2.097245   -1.088617
     34          1           0       -4.452452   -0.314061    0.236269
     35          1           0       -3.574530    0.929224    1.122054
     36          1           0       -3.503764    0.545783   -1.911408
     37          1           0       -2.625654    1.788393   -1.026851
     38          1           0       -4.803031    2.756563   -0.215461
     39          1           0       -5.686131    1.506893   -1.105045
     40          1           0       -4.746400    2.723459   -1.986056
 ---------------------------------------------------------------------

 SCF Done:  E(RHF) =  -470.733256231     A.U. after   11 cycles
 E2 =    -0.1583050440D+01 EUMP2 =    -0.47231630667155D+03

 The electronic state is 1-A.
 Alpha  occ. eigenvalues --  -11.21663 -11.21652 -11.21612 -11.21491 -11.21473
 Alpha  occ. eigenvalues --  -11.21410 -11.21402 -11.21322 -11.21124 -11.21108
 Alpha  occ. eigenvalues --  -11.21086 -11.21012  -1.08494  -1.08407  -1.03593
 Alpha  occ. eigenvalues --   -1.03494  -0.96040  -0.95953  -0.87060  -0.86967
 Alpha  occ. eigenvalues --   -0.79692  -0.79530  -0.78325  -0.78202  -0.65159
 Alpha  occ. eigenvalues --   -0.65012  -0.61025  -0.60874  -0.59411  -0.59317
 Alpha  occ. eigenvalues --   -0.57680  -0.57533  -0.55336  -0.55240  -0.52726
 Alpha  occ. eigenvalues --   -0.52656  -0.52485  -0.52367  -0.50032  -0.49865
 Alpha  occ. eigenvalues --   -0.48116  -0.47786  -0.46766  -0.46515  -0.45969
 Alpha  occ. eigenvalues --   -0.45792  -0.45731  -0.45442  -0.43842  -0.43758
 Alpha virt. eigenvalues --    0.20445   0.23263   0.23750   0.24676   0.25428
 Alpha virt. eigenvalues --    0.26715   0.26797   0.27707   0.28338   0.29233
 Alpha virt. eigenvalues --    0.31026   0.31576   0.31681   0.31833   0.32004

 Mulliken charges:
               1
     1  C   -0.297944
     2  C   -0.308119
     3  C   -0.475272
     4  H    0.149703
     5  H    0.149349
     6  H    0.161495
     7  H    0.151297
     8  H    0.154771
     9  H    0.154961
    10  H    0.160057
    11  C   -0.298722
    12  C   -0.299602
    13  C   -0.475658
    14  H    0.148175
    15  H    0.149929
    16  H    0.151765
    17  H    0.152237
    18  H    0.155309
    19  H    0.154819
    20  H    0.160302
    21  C   -0.298731
    22  C   -0.299643
    23  C   -0.480882
    24  H    0.149898
    25  H    0.148721
    26  H    0.152319
    27  H    0.152027
    28  H    0.159713
    29  H    0.156089
    30  H    0.160970
    31  C   -0.298289
    32  C   -0.299673
    33  C   -0.475751
    34  H    0.149886
    35  H    0.149789
    36  H    0.152031
    37  H    0.151651
    38  H    0.155279
    39  H    0.155328
    40  H    0.160416
 Sum of Mulliken charges =  -0.00000

 Dipole moment (field-independent basis, Debye):
    X=             -0.0364    Y=             -0.0173    Z=              0.0148  Tot=              0.0429
 Quadrupole moment (field-independent basis, Debye-Ang):
   XX=            -84.2036   YY=            -85.2792   ZZ=            -85.2077
   XY=              0.6531   XZ=             -0.0591   YZ=             -0.1315

 Normal termination of Gaussian 16 at Thu May  6 00:43:46 2021.
