 Gaussian 16, Revision A.03,
 Gaussian 16:  EM64L-G16RevA.03 25-Dec-2016

 -------------
 #p 6-31g* mp2
 -------------

 ------------------------------------------------------
 Input file generated by CHIRIPA (05-May-2021 14:51:09)
 ------------------------------------------------------
 Symbolic Z-matrix:
 Charge =  0 Multiplicity = 1

                         Standard orientation:
 ---------------------------------------------------------------------
 Center     Atomic      Atomic             Coordinates (Angstroms)
 Number     Number       Type             X           Y           Z
 ---------------------------------------------------------------------
      1          6           0        3.418947   -0.381231    0.170619
      2          6           0        3.784452   -1.455141   -0.854616
      3          6           0        3.755258   -2.866809   -0.267985
      4          1           0        4.114122   -0.441668    1.019161
      5          1           0        2.417726   -0.592213    0.571168
      6          1           0        4.784118   -1.241420   -1.254126
      7          1           0        3.088444   -1.392015   -1.700904
      8          1           0        2.757187   -3.104712    0.113927
      9          1           0        4.462496   -2.953261    0.563244
     10          1           0        4.019653   -3.618775   -1.017987
     11          6           0        3.443707    1.035303   -0.400824
     12          6           0        3.078201    2.109213    0.624411
     13          6           0        3.107395    3.520881    0.037780
     14          1           0        4.444927    1.246285   -0.801373
     15          1           0        2.748531    1.095740   -1.249366
     16          1           0        3.774209    2.046087    1.470699
     17          1           0        2.078535    1.895492    1.023921
     18          1           0        2.400158    3.607333   -0.793449
     19          1           0        4.105466    3.758784   -0.344132
     20          1           0        2.843001    4.272847    0.787782
     21          6           0       -4.163784   -0.214962    0.300516
     22          6           0       -4.945333    0.562640   -0.758967
     23          6           0       -6.409084    0.778871   -0.373650
     24          1           0       -4.648635   -1.187014    0.464770
     25          1           0       -4.216456    0.325949    1.255521
     26          1           0       -4.890043    0.021128   -1.712026
     27          1           0       -4.458453    1.532876   -0.920857
     28          1           0       -6.481868    1.339233    0.564059
     29          1           0       -6.915908   -0.181104   -0.231606
     30          1           0       -6.949089    1.336741   -1.145037
     31          6           0       -2.698869   -0.439110   -0.070310
     32          6           0       -1.917321   -1.216712    0.989172
     33          6           0       -0.453570   -1.432944    0.603855
     34          1           0       -2.646198   -0.980020   -1.025317
     35          1           0       -2.214018    0.532942   -0.234565
     36          1           0       -2.404200   -2.186947    1.151062
     37          1           0       -1.972610   -0.675200    1.942232
     38          1           0        0.053256   -0.472968    0.461811
     39          1           0       -0.380786   -1.993306   -0.333855
     40          1           0        0.086436   -1.990813    1.375241
 ---------------------------------------------------------------------

 SCF Done:  E(RHF) =  -470.732998960     A.U. after   11 cycles
 E2 =    -0.1583220089D+01 EUMP2 =    -0.47231621904905D+03

 The electronic state is 1-A.
 Alpha  occ. eigenvalues --  -11.21690 -11.21643 -11.21589 -11.21496 -11.21471
 Alpha  occ. eigenvalues --  -11.21408 -11.21319 -11.21205 -11.21188 -11.21102
 Alpha  occ. eigenvalues --  -11.21063 -11.20975  -1.08500  -1.08348  -1.03608
 Alpha  occ. eigenvalues --   -1.03463  -0.96068  -0.95907  -0.87095  -0.86922
 Alpha  occ. eigenvalues --   -0.79698  -0.79517  -0.78323  -0.78138  -0.65160
 Alpha  occ. eigenvalues --   -0.64970  -0.61005  -0.60870  -0.59438  -0.59266
 Alpha  occ. eigenvalues --   -0.57676  -0.57520  -0.55473  -0.55094  -0.52780
 Alpha  occ. eigenvalues --   -0.52613  -0.52503  -0.52319  -0.50083  -0.49784
 Alpha  occ. eigenvalues --   -0.48004  -0.47844  -0.46749  -0.46563  -0.45937
 Alpha  occ. eigenvalues --   -0.45783  -0.45685  -0.45420  -0.43822  -0.43707
 Alpha virt. eigenvalues --    0.20848   0.22950   0.23560   0.24486   0.25809
 Alpha virt. eigenvalues --    0.26598   0.27220   0.27368   0.27806   0.29385
 Alpha virt. eigenvalues --    0.30041   0.31222   0.31810   0.32068   0.32306

 Mulliken charges:
               1
     1  C   -0.307866
     2  C   -0.298428
     3  C   -0.477772
     4  H    0.148536
     5  H    0.161836
     6  H    0.151209
     7  H    0.151577
     8  H    0.157438
     9  H    0.154639
    10  H    0.159596
    11  C   -0.298098
    12  C   -0.300406
    13  C   -0.475617
    14  H    0.149321
    15  H    0.149186
    16  H    0.152190
    17  H    0.151165
    18  H    0.154964
    19  H    0.155397
    20  H    0.159993
    21  C   -0.298362
    22  C   -0.299704
    23  C   -0.475753
    24  H    0.149856
    25  H    0.149709
    26  H    0.151991
    27  H    0.152004
    28  H    0.155277
    29  H    0.155258
    30  H    0.160409
    31  C   -0.298693
    32  C   -0.300203
    33  C   -0.480070
    34  H    0.149659
    35  H    0.149627
    36  H    0.152438
    37  H    0.152444
    38  H    0.157598
    39  H    0.156092
    40  H    0.161561
 Sum of Mulliken charges =  -0.00000

 Dipole moment (field-independent basis, Debye):
    X=             -0.0683    Y=             -0.0158    Z=              0.0150  Tot=              0.0717
 Quadrupole moment (field-independent basis, Debye-Ang):
   XX=            -85.0814   YY=            -85.2732   ZZ=            -84.6177
   XY=              0.6361   XZ=              0.5489   YZ=              0.6795

 Normal termination of Gaussian 16 at Wed May  5 18:09:14 2021.
