 Gaussian 16, Revision A.03,
 Gaussian 16:  EM64L-G16RevA.03 25-Dec-2016

 -------------
 #p 6-31g* mp2
 -------------

 ------------------------------------------------------
 Input file generated by CHIRIPA (05-May-2021 14:57:23)
 ------------------------------------------------------
 Symbolic Z-matrix:
 Charge =  0 Multiplicity = 1

                         Standard orientation:
 ---------------------------------------------------------------------
 Center     Atomic      Atomic             Coordinates (Angstroms)
 Number     Number       Type             X           Y           Z
 ---------------------------------------------------------------------
      1          6           0       -1.244761    1.553003    1.134786
      2          6           0       -1.516111    0.330501    1.757985
      3          6           0       -2.491930   -0.527919    1.242777
      4          6           0       -3.180440   -0.130406    0.097689
      5          6           0       -2.932941    1.081131   -0.545905
      6          6           0       -1.952794    1.923763   -0.013146
      7          1           0       -0.485040    2.213712    1.541828
      8          1           0       -0.967808    0.039963    2.649611
      9          1           0       -2.722165   -1.480052    1.705221
     10          1           0       -3.496006    1.343352   -1.433382
     11          1           0       -1.744174    2.872576   -0.499229
     12          7           0       -4.215788   -1.030819   -0.457028
     13          8           0       -4.808444   -0.657475   -1.466984
     14          8           0       -4.415032   -2.092859    0.128643
     15          6           0        2.044850    2.295971   -0.472585
     16          6           0        2.324685    1.511723   -1.596492
     17          6           0        2.859472    0.228180   -1.451341
     18          6           0        3.103091   -0.241699   -0.161708
     19          6           0        2.834991    0.515528    0.977598
     20          6           0        2.300445    1.796252    0.808615
     21          1           0        1.629507    3.291963   -0.594599
     22          1           0        2.127207    1.897222   -2.592704
     23          1           0        3.085559   -0.400258   -2.304201
     24          1           0        3.042603    0.103952    1.957864
     25          1           0        2.084111    2.403077    1.683262
     26          7           0        3.669118   -1.599036    0.004572
     27          8           0        3.874666   -1.989958    1.151553
     28          8           0        3.896504   -2.246293   -1.015228
 ---------------------------------------------------------------------

 SCF Done:  E(RHF) =  -868.335197344     A.U. after   16 cycles
 E2 =    -0.2602367939D+01 EUMP2 =    -0.87093756528268D+03

 The electronic state is 1-A.
 Alpha  occ. eigenvalues --  -20.61336 -20.61320 -20.60964 -20.60951 -15.86392
 Alpha  occ. eigenvalues --  -15.86021 -11.31935 -11.31464 -11.28585 -11.28484
 Alpha  occ. eigenvalues --  -11.28387 -11.28111 -11.28050 -11.27902 -11.27708
 Alpha  occ. eigenvalues --  -11.27547 -11.27177 -11.27082  -1.60401  -1.60035
 Alpha  occ. eigenvalues --   -1.39951  -1.39586  -1.20145  -1.19677  -1.09537
 Alpha  occ. eigenvalues --   -1.09063  -1.05586  -1.05102  -0.96328  -0.95884
 Alpha  occ. eigenvalues --   -0.87001  -0.86511  -0.83157  -0.82718  -0.78160
 Alpha  occ. eigenvalues --   -0.77733  -0.72611  -0.72239  -0.71726  -0.71360
 Alpha  occ. eigenvalues --   -0.71319  -0.70859  -0.65814  -0.65638  -0.65343
 Alpha  occ. eigenvalues --   -0.65127  -0.62933  -0.62454  -0.56154  -0.55734
 Alpha  occ. eigenvalues --   -0.54008  -0.53681  -0.53231  -0.53215  -0.49382
 Alpha  occ. eigenvalues --   -0.49350  -0.49006  -0.48985  -0.45317  -0.44974
 Alpha  occ. eigenvalues --   -0.38473  -0.37577  -0.36934  -0.36642
 Alpha virt. eigenvalues --    0.04349   0.04814   0.10350   0.10924   0.15801
 Alpha virt. eigenvalues --    0.16326   0.18699   0.22225   0.25037   0.25842
 Alpha virt. eigenvalues --    0.28087   0.28997   0.29818   0.31043   0.32559

 Mulliken charges:
               1
     1  C   -0.158890
     2  C   -0.219920
     3  C   -0.169143
     4  C    0.158270
     5  C   -0.170344
     6  C   -0.219981
     7  H    0.214394
     8  H    0.223036
     9  H    0.278317
    10  H    0.275417
    11  H    0.216309
    12  N    0.488106
    13  O   -0.460749
    14  O   -0.458318
    15  C   -0.169504
    16  C   -0.216343
    17  C   -0.168241
    18  C    0.160389
    19  C   -0.170593
    20  C   -0.223364
    21  H    0.221501
    22  H    0.226021
    23  H    0.279359
    24  H    0.275487
    25  H    0.217581
    26  N    0.487986
    27  O   -0.460072
    28  O   -0.456710
 Sum of Mulliken charges =  -0.00000

 Dipole moment (field-independent basis, Debye):
    X=              1.7650    Y=              7.6820    Z=              1.2218  Tot=              7.9763
 Quadrupole moment (field-independent basis, Debye-Ang):
   XX=           -141.3424   YY=           -107.2272   ZZ=            -96.8605
   XY=              4.0542   XZ=             -7.0906   YZ=             -2.9341

 Normal termination of Gaussian 16 at Thu May  6 11:17:24 2021.
