 Gaussian 16, Revision A.03,
 Gaussian 16:  EM64L-G16RevA.03 25-Dec-2016

 -------------
 #p 6-31g* mp2
 -------------

 ------------------------------------------------------
 Input file generated by CHIRIPA (05-May-2021 14:51:09)
 ------------------------------------------------------
 Symbolic Z-matrix:
 Charge =  0 Multiplicity = 1

                         Standard orientation:
 ---------------------------------------------------------------------
 Center     Atomic      Atomic             Coordinates (Angstroms)
 Number     Number       Type             X           Y           Z
 ---------------------------------------------------------------------
      1          6           0        3.598129   -0.144096    0.176943
      2          6           0        3.596883   -1.383902   -0.717968
      3          6           0        4.351352   -2.560765   -0.098642
      4          1           0        4.636240    0.151164    0.382104
      5          1           0        3.148471   -0.399765    1.146394
      6          1           0        4.045151   -1.125613   -1.685934
      7          1           0        2.558652   -1.676132   -0.921179
      8          1           0        3.901315   -2.846554    0.857596
      9          1           0        5.396260   -2.292908    0.088496
     10          1           0        4.337925   -3.436413   -0.755087
     11          6           0        2.847787    1.040852   -0.428541
     12          6           0        2.849033    2.280658    0.466370
     13          6           0        2.094564    3.457521   -0.152956
     14          1           0        3.297445    1.296521   -1.397992
     15          1           0        1.809675    0.745592   -0.633702
     16          1           0        3.887264    2.572888    0.669581
     17          1           0        2.400765    2.022369    1.434336
     18          1           0        1.049656    3.189664   -0.340094
     19          1           0        2.544601    3.743310   -1.109194
     20          1           0        2.107991    4.333169    0.503489
     21          6           0       -2.578241   -0.406734    0.533276
     22          6           0       -1.469414   -1.319661    0.008820
     23          6           0       -0.185953   -1.225181    0.834407
     24          1           0       -2.218628    0.631345    0.537123
     25          1           0       -2.793791   -0.666733    1.578902
     26          1           0       -1.256981   -1.058937   -1.035934
     27          1           0       -1.831775   -2.355665    0.006041
     28          1           0       -0.376064   -1.505533    1.875494
     29          1           0        0.201996   -0.201438    0.827600
     30          1           0        0.593353   -1.885920    0.442021
     31          6           0       -3.867675   -0.490022   -0.281678
     32          6           0       -4.976502    0.422905    0.242778
     33          6           0       -6.259963    0.328425   -0.582810
     34          1           0       -3.652124   -0.230023   -1.327304
     35          1           0       -4.227288   -1.528101   -0.285525
     36          1           0       -4.614140    1.458909    0.245558
     37          1           0       -5.188935    0.162181    1.287532
     38          1           0       -6.647912   -0.695318   -0.576002
     39          1           0       -6.069852    0.608777   -1.623896
     40          1           0       -7.039269    0.989164   -0.190423
 ---------------------------------------------------------------------

 SCF Done:  E(RHF) =  -470.732405146     A.U. after   11 cycles
 E2 =    -0.1584068347D+01 EUMP2 =    -0.47231647349270D+03

 The electronic state is 1-A.
 Alpha  occ. eigenvalues --  -11.21682 -11.21632 -11.21590 -11.21539 -11.21460
 Alpha  occ. eigenvalues --  -11.21396 -11.21331 -11.21272 -11.21134 -11.21093
 Alpha  occ. eigenvalues --  -11.21089 -11.21043  -1.08497  -1.08381  -1.03592
 Alpha  occ. eigenvalues --   -1.03506  -0.96062  -0.95936  -0.87067  -0.86970
 Alpha  occ. eigenvalues --   -0.79659  -0.79570  -0.78298  -0.78199  -0.65271
 Alpha  occ. eigenvalues --   -0.64937  -0.61039  -0.60931  -0.59396  -0.59288
 Alpha  occ. eigenvalues --   -0.57655  -0.57557  -0.55530  -0.55056  -0.52762
 Alpha  occ. eigenvalues --   -0.52635  -0.52500  -0.52340  -0.50050  -0.49825
 Alpha  occ. eigenvalues --   -0.48040  -0.47818  -0.46743  -0.46558  -0.45869
 Alpha  occ. eigenvalues --   -0.45784  -0.45680  -0.45572  -0.43812  -0.43743
 Alpha virt. eigenvalues --    0.20263   0.22942   0.23301   0.24483   0.26247
 Alpha virt. eigenvalues --    0.26651   0.27320   0.27699   0.27735   0.29550
 Alpha virt. eigenvalues --    0.30308   0.31598   0.31739   0.31822   0.32254

 Mulliken charges:
               1
     1  C   -0.298825
     2  C   -0.303649
     3  C   -0.476365
     4  H    0.149454
     5  H    0.152027
     6  H    0.151852
     7  H    0.155167
     8  H    0.155419
     9  H    0.155335
    10  H    0.159910
    11  C   -0.302429
    12  C   -0.301024
    13  C   -0.475282
    14  H    0.149477
    15  H    0.153768
    16  H    0.152255
    17  H    0.152276
    18  H    0.153815
    19  H    0.155385
    20  H    0.160371
    21  C   -0.298337
    22  C   -0.300957
    23  C   -0.484087
    24  H    0.149323
    25  H    0.149828
    26  H    0.152227
    27  H    0.152525
    28  H    0.155411
    29  H    0.159284
    30  H    0.165231
    31  C   -0.298350
    32  C   -0.299718
    33  C   -0.475749
    34  H    0.149692
    35  H    0.149806
    36  H    0.152053
    37  H    0.151984
    38  H    0.155219
    39  H    0.155286
    40  H    0.160390
 Sum of Mulliken charges =  -0.00000

 Dipole moment (field-independent basis, Debye):
    X=             -0.0259    Y=             -0.0132    Z=              0.0116  Tot=              0.0313
 Quadrupole moment (field-independent basis, Debye-Ang):
   XX=            -85.2085   YY=            -85.0369   ZZ=            -84.5881
   XY=              1.0774   XZ=             -1.1935   YZ=             -0.2994

 Normal termination of Gaussian 16 at Thu May  6 05:18:44 2021.
