 Gaussian 16, Revision A.03,
 Gaussian 16:  EM64L-G16RevA.03 25-Dec-2016

 -------------
 #p 6-31g* mp2
 -------------

 ------------------------------------------------------
 Input file generated by CHIRIPA (05-May-2021 14:55:21)
 ------------------------------------------------------
 Symbolic Z-matrix:
 Charge =  0 Multiplicity = 1

                         Standard orientation:
 ---------------------------------------------------------------------
 Center     Atomic      Atomic             Coordinates (Angstroms)
 Number     Number       Type             X           Y           Z
 ---------------------------------------------------------------------
      1          6           0        2.427220    2.502547   -0.320292
      2          6           0        1.475607    1.580703    0.128215
      3          6           0        1.776957    0.216417    0.177807
      4          6           0        3.045400   -0.193019   -0.230488
      5          6           0        4.014918    0.701002   -0.682208
      6          6           0        3.691609    2.060533   -0.723361
      7          1           0        2.184594    3.560510   -0.355538
      8          1           0        0.492861    1.921114    0.441864
      9          1           0        1.059135   -0.518804    0.520736
     10          1           0        4.986088    0.331498   -0.988333
     11          1           0        4.432623    2.774189   -1.072127
     12          7           0        3.376049   -1.634811   -0.182454
     13          8           0        4.500708   -1.970058   -0.547681
     14          8           0        2.504293   -2.402341    0.219511
     15          6           0       -4.327981    0.264897   -0.174562
     16          6           0       -5.116827   -0.751556   -1.000716
     17          6           0       -6.112271   -0.092091   -1.955697
     18          1           0       -5.030045    0.886887    0.397433
     19          1           0       -3.792159    0.942295   -0.853842
     20          1           0       -5.649900   -1.427697   -0.320068
     21          1           0       -4.412793   -1.371324   -1.570664
     22          1           0       -5.592996    0.568278   -2.657742
     23          1           0       -6.837131    0.511585   -1.400041
     24          1           0       -6.665321   -0.836961   -2.536357
     25          6           0       -3.328735   -0.379087    0.784877
     26          6           0       -2.539890    0.637367    1.611032
     27          6           0       -1.544445   -0.022098    2.566013
     28          1           0       -3.864557   -1.056485    1.464158
     29          1           0       -2.626671   -1.001077    0.212882
     30          1           0       -3.243923    1.257135    2.180980
     31          1           0       -2.006816    1.313508    0.930384
     32          1           0       -0.819585   -0.625774    2.010356
     33          1           0       -2.063720   -0.682467    3.268058
     34          1           0       -0.991395    0.722771    3.146672
 ---------------------------------------------------------------------

 SCF Done:  E(RHF) =  -669.535244914     A.U. after   15 cycles
 E2 =    -0.2091878637D+01 EUMP2 =    -0.67162712355132D+03

 The electronic state is 1-A.
 Alpha  occ. eigenvalues --  -20.60747 -20.60742 -15.85799 -11.31149 -11.27723
 Alpha  occ. eigenvalues --  -11.27702 -11.27465 -11.26741 -11.26710 -11.22419
 Alpha  occ. eigenvalues --  -11.21913 -11.21885 -11.21836 -11.21792 -11.21313
 Alpha  occ. eigenvalues --   -1.59822  -1.39376  -1.19324  -1.08948  -1.08723
 Alpha  occ. eigenvalues --   -1.04730  -1.04057  -0.96489  -0.95560  -0.87504
 Alpha  occ. eigenvalues --   -0.86128  -0.82392  -0.80132  -0.78723  -0.77446
 Alpha  occ. eigenvalues --   -0.72019  -0.71144  -0.70450  -0.65609  -0.64974
 Alpha  occ. eigenvalues --   -0.64742  -0.62245  -0.61307  -0.59869  -0.58089
 Alpha  occ. eigenvalues --   -0.55797  -0.55198  -0.53195  -0.53050  -0.52982
 Alpha  occ. eigenvalues --   -0.52763  -0.50417  -0.48778  -0.48774  -0.48428
 Alpha  occ. eigenvalues --   -0.47168  -0.46264  -0.46175  -0.44784  -0.44289
 Alpha  occ. eigenvalues --   -0.37309  -0.36324
 Alpha virt. eigenvalues --    0.05088   0.11314   0.16572   0.18729   0.22874
 Alpha virt. eigenvalues --    0.23757   0.24995   0.25674   0.27204   0.28261
 Alpha virt. eigenvalues --    0.29096   0.29534   0.31256   0.31494   0.32083

 Mulliken charges:
               1
     1  C   -0.171531
     2  C   -0.226049
     3  C   -0.178902
     4  C    0.159797
     5  C   -0.170530
     6  C   -0.218682
     7  H    0.225806
     8  H    0.230774
     9  H    0.282848
    10  H    0.275481
    11  H    0.223265
    12  N    0.487566
    13  O   -0.460473
    14  O   -0.460585
    15  C   -0.298466
    16  C   -0.300424
    17  C   -0.476004
    18  H    0.150143
    19  H    0.147634
    20  H    0.153477
    21  H    0.154242
    22  H    0.154826
    23  H    0.155145
    24  H    0.162059
    25  C   -0.298713
    26  C   -0.304326
    27  C   -0.481891
    28  H    0.153628
    29  H    0.151718
    30  H    0.155989
    31  H    0.143009
    32  H    0.155273
    33  H    0.163478
    34  H    0.160415
 Sum of Mulliken charges =  -0.00000

 Dipole moment (field-independent basis, Debye):
    X=             -1.3413    Y=              5.0026    Z=             -0.1163  Tot=              5.1806
 Quadrupole moment (field-independent basis, Debye-Ang):
   XX=            -97.1785   YY=            -97.2656   ZZ=            -94.5632
   XY=             17.4427   XZ=             -3.4001   YZ=             -1.4317

 Normal termination of Gaussian 16 at Thu May  6 06:12:56 2021.
