 Gaussian 16, Revision A.03,
 Gaussian 16:  EM64L-G16RevA.03 25-Dec-2016

 -------------
 #p 6-31g* mp2
 -------------

 ------------------------------------------------------
 Input file generated by CHIRIPA (05-May-2021 14:53:14)
 ------------------------------------------------------
 Symbolic Z-matrix:
 Charge =  0 Multiplicity = 1

                         Standard orientation:
 ---------------------------------------------------------------------
 Center     Atomic      Atomic             Coordinates (Angstroms)
 Number     Number       Type             X           Y           Z
 ---------------------------------------------------------------------
      1          6           0        2.630492   -0.449026    1.098281
      2          6           0        1.203539    0.091906    1.194106
      3          6           0        0.437166   -0.470863    2.391503
      4          1           0        2.596621   -1.545080    1.031485
      5          1           0        3.169245   -0.208874    2.025355
      6          1           0        0.668059   -0.147985    0.266567
      7          1           0        1.240802    1.186813    1.260488
      8          1           0        0.946351   -0.219397    3.327503
      9          1           0        0.370354   -1.561778    2.327934
     10          1           0       -0.580426   -0.070944    2.440811
     11          6           0        3.409376    0.104350   -0.093710
     12          6           0        4.836329   -0.436582   -0.189536
     13          6           0        5.602702    0.126188   -1.386932
     14          1           0        2.870623   -0.135801   -1.020785
     15          1           0        3.443247    1.200405   -0.026915
     16          1           0        4.799066   -1.531489   -0.255918
     17          1           0        5.371809   -0.196691    0.738003
     18          1           0        5.669514    1.217103   -1.323364
     19          1           0        5.093517   -0.125279   -2.322933
     20          1           0        6.620294   -0.273731   -1.436241
     21          6           0       -1.892120    2.601588   -0.143802
     22          6           0       -2.479593    1.890922    0.908029
     23          6           0       -2.743001    0.523761    0.781386
     24          6           0       -2.404491   -0.103857   -0.416444
     25          6           0       -1.818221    0.576759   -1.482437
     26          6           0       -1.563887    1.943400   -1.333581
     27          1           0       -1.691023    3.663429   -0.036794
     28          1           0       -2.735565    2.399475    1.833176
     29          1           0       -3.196960   -0.050624    1.579771
     30          1           0       -1.574247    0.042373   -2.392560
     31          1           0       -1.107559    2.492775   -2.152114
     32          7           0       -2.678545   -1.550932   -0.562275
     33          8           0       -2.370870   -2.080702   -1.627787
     34          8           0       -3.195837   -2.127980    0.391698
 ---------------------------------------------------------------------

 SCF Done:  E(RHF) =  -669.534256994     A.U. after   15 cycles
 E2 =    -0.2094658571D+01 EUMP2 =    -0.67162891556424D+03

 The electronic state is 1-A.
 Alpha  occ. eigenvalues --  -20.60822 -20.60813 -15.85875 -11.31239 -11.27826
 Alpha  occ. eigenvalues --  -11.27820 -11.27581 -11.26846 -11.26829 -11.21641
 Alpha  occ. eigenvalues --  -11.21530 -11.21454 -11.21335 -11.21152 -11.20941
 Alpha  occ. eigenvalues --   -1.59896  -1.39449  -1.19445  -1.08824  -1.08440
 Alpha  occ. eigenvalues --   -1.04858  -1.03529  -0.95997  -0.95654  -0.87010
 Alpha  occ. eigenvalues --   -0.86239  -0.82493  -0.79599  -0.78261  -0.77535
 Alpha  occ. eigenvalues --   -0.72093  -0.71228  -0.70551  -0.65093  -0.65074
 Alpha  occ. eigenvalues --   -0.64844  -0.62202  -0.60939  -0.59437  -0.57695
 Alpha  occ. eigenvalues --   -0.55346  -0.55277  -0.53312  -0.52940  -0.52520
 Alpha  occ. eigenvalues --   -0.52277  -0.49922  -0.48853  -0.48847  -0.47932
 Alpha  occ. eigenvalues --   -0.46635  -0.45790  -0.45730  -0.44847  -0.43811
 Alpha  occ. eigenvalues --   -0.37380  -0.36334
 Alpha virt. eigenvalues --    0.04966   0.11155   0.16421   0.21244   0.22839
 Alpha virt. eigenvalues --    0.24249   0.26586   0.26854   0.27393   0.27990
 Alpha virt. eigenvalues --    0.28397   0.30873   0.31395   0.31752   0.31842

 Mulliken charges:
               1
     1  C   -0.298539
     2  C   -0.300039
     3  C   -0.479740
     4  H    0.152934
     5  H    0.148441
     6  H    0.154138
     7  H    0.146501
     8  H    0.152525
     9  H    0.161130
    10  H    0.157351
    11  C   -0.297540
    12  C   -0.299732
    13  C   -0.475679
    14  H    0.148794
    15  H    0.146216
    16  H    0.154122
    17  H    0.151776
    18  H    0.153424
    19  H    0.155059
    20  H    0.160941
    21  C   -0.169940
    22  C   -0.216373
    23  C   -0.174012
    24  C    0.164426
    25  C   -0.174134
    26  C   -0.215254
    27  H    0.226033
    28  H    0.224165
    29  H    0.276644
    30  H    0.275695
    31  H    0.223983
    32  N    0.487633
    33  O   -0.460880
    34  O   -0.460072
 Sum of Mulliken charges =  -0.00000

 Dipole moment (field-independent basis, Debye):
    X=              0.8690    Y=              5.0837    Z=              0.4661  Tot=              5.1784
 Quadrupole moment (field-independent basis, Debye-Ang):
   XX=            -99.8178   YY=            -95.8134   ZZ=            -91.5424
   XY=            -12.6232   XZ=             -2.9983   YZ=             -1.6703

 Normal termination of Gaussian 16 at Thu May  6 05:48:49 2021.
