 Gaussian 16, Revision A.03,
 Gaussian 16:  EM64L-G16RevA.03 25-Dec-2016

 -------------
 #p 6-31g* mp2
 -------------

 ------------------------------------------------------
 Input file generated by CHIRIPA (05-May-2021 14:57:25)
 ------------------------------------------------------
 Symbolic Z-matrix:
 Charge =  0 Multiplicity = 1

                         Standard orientation:
 ---------------------------------------------------------------------
 Center     Atomic      Atomic             Coordinates (Angstroms)
 Number     Number       Type             X           Y           Z
 ---------------------------------------------------------------------
      1          6           0       -3.021934    2.449609    0.164820
      2          6           0       -4.401348    2.260640    0.030550
      3          6           0       -4.928690    0.977470   -0.142456
      4          6           0       -4.043695   -0.099054   -0.176665
      5          6           0       -2.664621    0.056844   -0.045746
      6          6           0       -2.159493    1.349048    0.126311
      7          1           0       -2.620910    3.449915    0.298846
      8          1           0       -5.073510    3.113501    0.060072
      9          1           0       -5.992413    0.802609   -0.248925
     10          1           0       -2.019646   -0.812814   -0.079228
     11          1           0       -1.087784    1.492809    0.230322
     12          7           0       -4.590210   -1.462271   -0.359316
     13          8           0       -3.789362   -2.394239   -0.386032
     14          8           0       -5.809068   -1.572978   -0.472304
     15          6           0        6.109426    0.350233   -1.074913
     16          6           0        5.238923    1.397989   -0.757182
     17          6           0        4.041725    1.146016   -0.080591
     18          6           0        3.745207   -0.171625    0.264649
     19          6           0        4.591923   -1.236918   -0.037865
     20          6           0        5.783721   -0.961564   -0.714874
     21          1           0        7.037341    0.555053   -1.600668
     22          1           0        5.489280    2.417734   -1.035546
     23          1           0        3.349644    1.938282    0.177782
     24          1           0        4.315075   -2.243056    0.252755
     25          1           0        6.457862   -1.777242   -0.960329
     26          7           0        2.480646   -0.450753    0.981148
     27          8           0        2.242443   -1.620372    1.274217
     28          8           0        1.751629    0.505369    1.236102
 ---------------------------------------------------------------------

 SCF Done:  E(RHF) =  -868.339622415     A.U. after   16 cycles
 E2 =    -0.2598393900D+01 EUMP2 =    -0.87093801631506D+03

 The electronic state is 1-A.
 Alpha  occ. eigenvalues --  -20.61596 -20.61517 -20.59993 -20.59974 -15.86588
 Alpha  occ. eigenvalues --  -15.85031 -11.31744 -11.30282 -11.28321 -11.28256
 Alpha  occ. eigenvalues --  -11.27983 -11.27269 -11.27227 -11.26887 -11.26715
 Alpha  occ. eigenvalues --  -11.26571 -11.25920 -11.25650  -1.60619  -1.59064
 Alpha  occ. eigenvalues --   -1.40179  -1.38619  -1.19895  -1.18436  -1.09327
 Alpha  occ. eigenvalues --   -1.07866  -1.05268  -1.03795  -0.96197  -0.94720
 Alpha  occ. eigenvalues --   -0.86675  -0.85210  -0.83039  -0.81532  -0.78113
 Alpha  occ. eigenvalues --   -0.76587  -0.72813  -0.71924  -0.71254  -0.71000
 Alpha  occ. eigenvalues --   -0.70385  -0.69568  -0.65552  -0.65267  -0.64082
 Alpha  occ. eigenvalues --   -0.63772  -0.62620  -0.61119  -0.55770  -0.54349
 Alpha  occ. eigenvalues --   -0.53606  -0.53357  -0.52170  -0.51861  -0.49584
 Alpha  occ. eigenvalues --   -0.49539  -0.48015  -0.48001  -0.45624  -0.44049
 Alpha  occ. eigenvalues --   -0.37859  -0.36861  -0.36449  -0.35396
 Alpha virt. eigenvalues --    0.04382   0.05904   0.10797   0.12244   0.15896
 Alpha virt. eigenvalues --    0.17423   0.20931   0.22434   0.26865   0.27626
 Alpha virt. eigenvalues --    0.28559   0.29196   0.30524   0.31707   0.32321

 Mulliken charges:
               1
     1  C   -0.172370
     2  C   -0.218749
     3  C   -0.172943
     4  C    0.157782
     5  C   -0.172491
     6  C   -0.224075
     7  H    0.222120
     8  H    0.219424
     9  H    0.272406
    10  H    0.281173
    11  H    0.240525
    12  N    0.487943
    13  O   -0.459476
    14  O   -0.464046
    15  C   -0.169930
    16  C   -0.218286
    17  C   -0.170851
    18  C    0.157855
    19  C   -0.170041
    20  C   -0.218373
    21  H    0.227619
    22  H    0.224247
    23  H    0.272155
    24  H    0.277903
    25  H    0.225947
    26  N    0.489918
    27  O   -0.453554
    28  O   -0.471832
 Sum of Mulliken charges =  -0.00000

 Dipole moment (field-independent basis, Debye):
    X=              6.9107    Y=              5.6296    Z=             -1.8701  Tot=              9.1076
 Quadrupole moment (field-independent basis, Debye-Ang):
   XX=            -83.4453   YY=           -101.3134   ZZ=           -108.0889
   XY=            -20.0702   XZ=            -11.5434   YZ=             -0.5017

 Normal termination of Gaussian 16 at Fri May  7 03:29:03 2021.
