 Gaussian 16, Revision A.03,
 Gaussian 16:  EM64L-G16RevA.03 25-Dec-2016

 -------------
 #p 6-31g* mp2
 -------------

 ------------------------------------------------------
 Input file generated by CHIRIPA (05-May-2021 14:57:25)
 ------------------------------------------------------
 Symbolic Z-matrix:
 Charge =  0 Multiplicity = 1

                         Standard orientation:
 ---------------------------------------------------------------------
 Center     Atomic      Atomic             Coordinates (Angstroms)
 Number     Number       Type             X           Y           Z
 ---------------------------------------------------------------------
      1          6           0        3.190339   -2.390267   -0.486225
      2          6           0        4.078216   -1.919597    0.486742
      3          6           0        4.197646   -0.549045    0.735481
      4          6           0        3.410399    0.326656   -0.010629
      5          6           0        2.516741   -0.111428   -0.986717
      6          6           0        2.413804   -1.486274   -1.218558
      7          1           0        3.103969   -3.456613   -0.672889
      8          1           0        4.682538   -2.619340    1.057004
      9          1           0        4.877031   -0.157441    1.482811
     10          1           0        1.927544    0.610446   -1.539133
     11          1           0        1.723431   -1.848949   -1.974796
     12          7           0        3.528104    1.779871    0.243755
     13          8           0        2.823377    2.530820   -0.427119
     14          8           0        4.322860    2.140436    1.109200
     15          6           0       -5.842107    0.491114    0.206204
     16          6           0       -5.106605    0.855423   -0.926420
     17          6           0       -3.747933    0.540215   -1.022356
     18          6           0       -3.154036   -0.143053    0.037700
     19          6           0       -3.859973   -0.519667    1.179237
     20          6           0       -5.217545   -0.194059    1.253571
     21          1           0       -6.897129    0.740014    0.272338
     22          1           0       -5.589026    1.387596   -1.741349
     23          1           0       -3.154829    0.810213   -1.887657
     24          1           0       -3.351424   -1.049565    1.975482
     25          1           0       -5.786261   -0.478249    2.134390
     26          7           0       -1.716253   -0.482254   -0.052427
     27          8           0       -1.216372   -1.084719    0.895091
     28          8           0       -1.116425   -0.139231   -1.068881
 ---------------------------------------------------------------------

 SCF Done:  E(RHF) =  -868.339722680     A.U. after   16 cycles
 E2 =    -0.2599073598D+01 EUMP2 =    -0.87093879627807D+03

 The electronic state is 1-A.
 Alpha  occ. eigenvalues --  -20.61319 -20.61297 -20.59603 -20.59591 -15.86339
 Alpha  occ. eigenvalues --  -15.84642 -11.31494 -11.29704 -11.28038 -11.28035
 Alpha  occ. eigenvalues --  -11.27747 -11.27010 -11.26999 -11.26352 -11.26129
 Alpha  occ. eigenvalues --  -11.26031 -11.25353 -11.25125  -1.60364  -1.58679
 Alpha  occ. eigenvalues --   -1.39926  -1.38240  -1.19646  -1.17869  -1.09082
 Alpha  occ. eigenvalues --   -1.07348  -1.05019  -1.03215  -0.95953  -0.94222
 Alpha  occ. eigenvalues --   -0.86428  -0.84662  -0.82797  -0.81055  -0.77861
 Alpha  occ. eigenvalues --   -0.76122  -0.72579  -0.71664  -0.70878  -0.70756
 Alpha  occ. eigenvalues --   -0.69991  -0.69032  -0.65306  -0.65023  -0.63539
 Alpha  occ. eigenvalues --   -0.63257  -0.62370  -0.60577  -0.55532  -0.53822
 Alpha  occ. eigenvalues --   -0.53357  -0.53111  -0.51594  -0.51334  -0.49323
 Alpha  occ. eigenvalues --   -0.49283  -0.47637  -0.47607  -0.45375  -0.43712
 Alpha  occ. eigenvalues --   -0.37614  -0.36611  -0.35880  -0.34744
 Alpha virt. eigenvalues --    0.04654   0.06394   0.11047   0.12857   0.16192
 Alpha virt. eigenvalues --    0.17928   0.21194   0.22825   0.27119   0.28037
 Alpha virt. eigenvalues --    0.28784   0.29666   0.30785   0.32287   0.32327

 Mulliken charges:
               1
     1  C   -0.170309
     2  C   -0.219063
     3  C   -0.172498
     4  C    0.155281
     5  C   -0.158906
     6  C   -0.209522
     7  H    0.220120
     8  H    0.217146
     9  H    0.270073
    10  H    0.279948
    11  H    0.225343
    12  N    0.488353
    13  O   -0.462456
    14  O   -0.466101
    15  C   -0.169969
    16  C   -0.218438
    17  C   -0.169938
    18  C    0.158258
    19  C   -0.170299
    20  C   -0.218525
    21  H    0.226926
    22  H    0.224789
    23  H    0.275442
    24  H    0.275836
    25  H    0.224511
    26  N    0.490369
    27  O   -0.457348
    28  O   -0.469024
 Sum of Mulliken charges =  -0.00000

 Dipole moment (field-independent basis, Debye):
    X=             -6.0076    Y=             -3.9426    Z=             -0.6590  Tot=              7.2159
 Quadrupole moment (field-independent basis, Debye-Ang):
   XX=            -75.3728   YY=           -109.1919   ZZ=            -98.7897
   XY=            -21.5255   XZ=             -2.2125   YZ=             -3.2940

 Normal termination of Gaussian 16 at Fri May  7 05:01:39 2021.
