 Gaussian 16, Revision A.03,
 Gaussian 16:  EM64L-G16RevA.03 25-Dec-2016

 -------------
 #p 6-31g* mp2
 -------------

 ------------------------------------------------------
 Input file generated by CHIRIPA (05-May-2021 14:57:26)
 ------------------------------------------------------
 Symbolic Z-matrix:
 Charge =  0 Multiplicity = 1

                         Standard orientation:
 ---------------------------------------------------------------------
 Center     Atomic      Atomic             Coordinates (Angstroms)
 Number     Number       Type             X           Y           Z
 ---------------------------------------------------------------------
      1          6           0        2.135628    2.692244    0.184741
      2          6           0        3.434457    2.418386    0.625838
      3          6           0        3.981492    1.140862    0.473414
      4          6           0        3.198150    0.156487   -0.127144
      5          6           0        1.901018    0.398293   -0.576889
      6          6           0        1.374396    1.683103   -0.414159
      7          1           0        1.718607    3.687485    0.307151
      8          1           0        4.027943    3.200151    1.091309
      9          1           0        4.984287    0.901456    0.805836
     10          1           0        1.333676   -0.401531   -1.037131
     11          1           0        0.365424    1.892914   -0.757670
     12          7           0        3.766466   -1.199827   -0.293964
     13          8           0        3.055846   -2.049736   -0.826233
     14          8           0        4.911772   -1.387314    0.110709
     15          6           0       -1.168477   -1.867951    0.735160
     16          6           0       -2.024556   -1.372434    1.724155
     17          6           0       -3.100431   -0.547176    1.383576
     18          6           0       -3.291650   -0.236177    0.038212
     19          6           0       -2.456196   -0.714232   -0.970139
     20          6           0       -1.386644   -1.537850   -0.606465
     21          1           0       -0.335168   -2.508394    1.008700
     22          1           0       -1.857543   -1.627140    2.766880
     23          1           0       -3.778602   -0.149762    2.128937
     24          1           0       -2.648165   -0.442895   -2.001130
     25          1           0       -0.723418   -1.921229   -1.376658
     26          7           0       -4.427283    0.636619   -0.334569
     27          8           0       -4.574236    0.895891   -1.526969
     28          8           0       -5.148936    1.044917    0.572706
 ---------------------------------------------------------------------

 SCF Done:  E(RHF) =  -868.338855372     A.U. after   16 cycles
 E2 =    -0.2600644290D+01 EUMP2 =    -0.87093949966239D+03

 The electronic state is 1-A.
 Alpha  occ. eigenvalues --  -20.61482 -20.61432 -20.61202 -20.61194 -15.86500
 Alpha  occ. eigenvalues --  -15.86256 -11.31669 -11.31628 -11.28235 -11.28213
 Alpha  occ. eigenvalues --  -11.28192 -11.28183 -11.27868 -11.27819 -11.27164
 Alpha  occ. eigenvalues --  -11.27163 -11.27132 -11.27117  -1.60530  -1.60281
 Alpha  occ. eigenvalues --   -1.40094  -1.39833  -1.19826  -1.19787  -1.09237
 Alpha  occ. eigenvalues --   -1.09159  -1.05243  -1.05143  -0.96114  -0.95988
 Alpha  occ. eigenvalues --   -0.86657  -0.86514  -0.82951  -0.82824  -0.78064
 Alpha  occ. eigenvalues --   -0.77875  -0.72724  -0.72465  -0.71851  -0.71614
 Alpha  occ. eigenvalues --   -0.70935  -0.70794  -0.65462  -0.65435  -0.65324
 Alpha  occ. eigenvalues --   -0.65019  -0.62696  -0.62379  -0.55686  -0.55571
 Alpha  occ. eigenvalues --   -0.53662  -0.53430  -0.53346  -0.53118  -0.49497
 Alpha  occ. eigenvalues --   -0.49448  -0.49227  -0.49223  -0.45541  -0.45237
 Alpha  occ. eigenvalues --   -0.37847  -0.37718  -0.36917  -0.36623
 Alpha virt. eigenvalues --    0.04420   0.04679   0.10549   0.11014   0.16017
 Alpha virt. eigenvalues --    0.16090   0.20126   0.21761   0.25586   0.27307
 Alpha virt. eigenvalues --    0.28014   0.28802   0.30140   0.31111   0.31687

 Mulliken charges:
               1
     1  C   -0.170581
     2  C   -0.218733
     3  C   -0.170826
     4  C    0.157200
     5  C   -0.171729
     6  C   -0.219766
     7  H    0.228965
     8  H    0.225151
     9  H    0.276036
    10  H    0.269736
    11  H    0.227600
    12  N    0.488250
    13  O   -0.468932
    14  O   -0.456806
    15  C   -0.170300
    16  C   -0.218734
    17  C   -0.170624
    18  C    0.156925
    19  C   -0.176691
    20  C   -0.231999
    21  H    0.237917
    22  H    0.226275
    23  H    0.276563
    24  H    0.275940
    25  H    0.231498
    26  N    0.487787
    27  O   -0.460755
    28  O   -0.459371
 Sum of Mulliken charges =  -0.00000

 Dipole moment (field-independent basis, Debye):
    X=              1.9962    Y=              1.7328    Z=              2.0681  Tot=              3.3562
 Quadrupole moment (field-independent basis, Debye-Ang):
   XX=           -140.8011   YY=           -102.1103   ZZ=            -99.9527
   XY=             26.0869   XZ=             -1.4069   YZ=              0.0221

 Normal termination of Gaussian 16 at Thu May  6 06:48:57 2021.
