 Gaussian 16, Revision A.03,
 Gaussian 16:  EM64L-G16RevA.03 25-Dec-2016

 -------------
 #p 6-31g* mp2
 -------------

 ------------------------------------------------------
 Input file generated by CHIRIPA (05-May-2021 14:53:13)
 ------------------------------------------------------
 Symbolic Z-matrix:
 Charge =  0 Multiplicity = 1

                         Standard orientation:
 ---------------------------------------------------------------------
 Center     Atomic      Atomic             Coordinates (Angstroms)
 Number     Number       Type             X           Y           Z
 ---------------------------------------------------------------------
      1          6           0        3.320958    1.086999   -0.263420
      2          6           0        2.639287    2.161641    0.584196
      3          6           0        3.110558    3.574473    0.238359
      4          1           0        4.408771    1.156088   -0.126181
      5          1           0        3.126436    1.289662   -1.325721
      6          1           0        2.833882    1.956227    1.644646
      7          1           0        1.552959    2.089862    0.445072
      8          1           0        2.901734    3.804038   -0.811543
      9          1           0        4.189935    3.669644    0.394847
     10          1           0        2.610539    4.326949    0.856114
     11          6           0        2.860228   -0.330701    0.070620
     12          6           0        3.541899   -1.405343   -0.776996
     13          6           0        3.070628   -2.818175   -0.431159
     14          1           0        3.054750   -0.533364    1.132921
     15          1           0        1.772415   -0.399789   -0.066619
     16          1           0        4.628227   -1.333564   -0.637872
     17          1           0        3.347304   -1.199929   -1.837446
     18          1           0        1.991251   -2.913346   -0.587647
     19          1           0        3.279452   -3.047740    0.618743
     20          1           0        3.570647   -3.570651   -1.048914
     21          6           0       -0.773550   -1.967293    1.012323
     22          6           0       -1.545148   -1.183763    1.876752
     23          6           0       -2.457523   -0.254239    1.368710
     24          6           0       -2.573169   -0.133799   -0.015274
     25          6           0       -1.818598   -0.899957   -0.902357
     26          6           0       -0.912492   -1.823144   -0.372031
     27          1           0       -0.067231   -2.686909    1.415639
     28          1           0       -1.439351   -1.293566    2.952295
     29          1           0       -3.067391    0.365134    2.015127
     30          1           0       -1.946268   -0.767909   -1.969916
     31          1           0       -0.314572   -2.430304   -1.045745
     32          7           0       -3.535742    0.846892   -0.564911
     33          8           0       -3.618877    0.933927   -1.788083
     34          8           0       -4.188843    1.509952    0.237863
 ---------------------------------------------------------------------

 SCF Done:  E(RHF) =  -669.534931915     A.U. after   15 cycles
 E2 =    -0.2093196388D+01 EUMP2 =    -0.67162812830280D+03

 The electronic state is 1-A.
 Alpha  occ. eigenvalues --  -20.60807 -20.60802 -15.85862 -11.31239 -11.27824
 Alpha  occ. eigenvalues --  -11.27813 -11.27537 -11.26819 -11.26804 -11.22301
 Alpha  occ. eigenvalues --  -11.22131 -11.21836 -11.21822 -11.21701 -11.21198
 Alpha  occ. eigenvalues --   -1.59883  -1.39436  -1.19423  -1.08916  -1.08788
 Alpha  occ. eigenvalues --   -1.04831  -1.04037  -0.96501  -0.95638  -0.87526
 Alpha  occ. eigenvalues --   -0.86229  -0.82470  -0.80114  -0.78669  -0.77520
 Alpha  occ. eigenvalues --   -0.72080  -0.71207  -0.70510  -0.65588  -0.65066
 Alpha  occ. eigenvalues --   -0.64826  -0.62224  -0.61395  -0.59882  -0.58090
 Alpha  occ. eigenvalues --   -0.55822  -0.55302  -0.53258  -0.53141  -0.53025
 Alpha  occ. eigenvalues --   -0.52808  -0.50459  -0.48841  -0.48834  -0.48416
 Alpha  occ. eigenvalues --   -0.47130  -0.46214  -0.46103  -0.44839  -0.44249
 Alpha  occ. eigenvalues --   -0.37334  -0.36409
 Alpha virt. eigenvalues --    0.05016   0.11106   0.16488   0.19856   0.22773
 Alpha virt. eigenvalues --    0.24025   0.25642   0.26299   0.27311   0.27557
 Alpha virt. eigenvalues --    0.29283   0.30094   0.30958   0.31618   0.32079

 Mulliken charges:
               1
     1  C   -0.298181
     2  C   -0.300229
     3  C   -0.476055
     4  H    0.149805
     5  H    0.150712
     6  H    0.150215
     7  H    0.154611
     8  H    0.156941
     9  H    0.154711
    10  H    0.161981
    11  C   -0.306355
    12  C   -0.299407
    13  C   -0.478557
    14  H    0.146215
    15  H    0.157198
    16  H    0.155223
    17  H    0.152983
    18  H    0.143697
    19  H    0.155101
    20  H    0.164702
    21  C   -0.168838
    22  C   -0.218629
    23  C   -0.170677
    24  C    0.158188
    25  C   -0.171957
    26  C   -0.222550
    27  H    0.228597
    28  H    0.223911
    29  H    0.275913
    30  H    0.275927
    31  H    0.227365
    32  N    0.488036
    33  O   -0.460397
    34  O   -0.460200
 Sum of Mulliken charges =  -0.00000

 Dipole moment (field-independent basis, Debye):
    X=              3.4082    Y=             -3.3871    Z=              1.9497  Tot=              5.1855
 Quadrupole moment (field-independent basis, Debye-Ang):
   XX=           -112.0084   YY=            -95.2947   ZZ=            -90.0588
   XY=              7.8498   XZ=             -6.0624   YZ=              1.2110

 Normal termination of Gaussian 16 at Wed May  5 20:09:49 2021.
