 Gaussian 16, Revision A.03,
 Gaussian 16:  EM64L-G16RevA.03 25-Dec-2016

 -------------
 #p 6-31g* mp2
 -------------

 ------------------------------------------------------
 Input file generated by CHIRIPA (05-May-2021 14:57:22)
 ------------------------------------------------------
 Symbolic Z-matrix:
 Charge =  0 Multiplicity = 1

                         Standard orientation:
 ---------------------------------------------------------------------
 Center     Atomic      Atomic             Coordinates (Angstroms)
 Number     Number       Type             X           Y           Z
 ---------------------------------------------------------------------
      1          6           0       -5.360032    1.101015   -0.033052
      2          6           0       -4.579498    1.081643    1.127514
      3          6           0       -3.438162    0.277705    1.202224
      4          6           0       -3.105155   -0.497738    0.092681
      5          6           0       -3.862508   -0.500093   -1.077661
      6          6           0       -4.999682    0.311477   -1.130001
      7          1           0       -6.245033    1.728497   -0.082400
      8          1           0       -4.856945    1.693773    1.980957
      9          1           0       -2.815976    0.243599    2.088305
     10          1           0       -3.560578   -1.121204   -1.912213
     11          1           0       -5.603976    0.324518   -2.032611
     12          7           0       -1.899077   -1.352871    0.159932
     13          8           0       -1.627107   -2.026826   -0.831256
     14          8           0       -1.248560   -1.332977    1.202558
     15          6           0        2.112794    2.570247   -0.300167
     16          6           0        3.499306    2.536387   -0.118628
     17          6           0        4.169762    1.315699    0.003676
     18          6           0        3.419086    0.142814   -0.060466
     19          6           0        2.036743    0.143729   -0.240518
     20          6           0        1.387216    1.375915   -0.360426
     21          1           0        1.600096    3.522972   -0.394246
     22          1           0        4.065367    3.462343   -0.071450
     23          1           0        5.242337    1.260525    0.144942
     24          1           0        1.499527   -0.795933   -0.283546
     25          1           0        0.310346    1.399176   -0.501337
     26          7           0        4.117790   -1.155561    0.067744
     27          8           0        3.433597   -2.174840    0.007857
     28          8           0        5.336397   -1.129362    0.225694
 ---------------------------------------------------------------------

 SCF Done:  E(RHF) =  -868.338473672     A.U. after   16 cycles
 E2 =    -0.2599821665D+01 EUMP2 =    -0.87093829533682D+03

 The electronic state is 1-A.
 Alpha  occ. eigenvalues --  -20.61590 -20.61584 -20.59845 -20.59794 -15.86606
 Alpha  occ. eigenvalues --  -15.84877 -11.31890 -11.30277 -11.28434 -11.28419
 Alpha  occ. eigenvalues --  -11.28138 -11.27406 -11.27392 -11.26975 -11.26779
 Alpha  occ. eigenvalues --  -11.26724 -11.26015 -11.25939  -1.60667  -1.58902
 Alpha  occ. eigenvalues --   -1.40209  -1.38448  -1.20045  -1.18505  -1.09455
 Alpha  occ. eigenvalues --   -1.07921  -1.05417  -1.03908  -0.96296  -0.94724
 Alpha  occ. eigenvalues --   -0.86817  -0.85320  -0.83115  -0.81552  -0.78186
 Alpha  occ. eigenvalues --   -0.76562  -0.72785  -0.72017  -0.71124  -0.71096
 Alpha  occ. eigenvalues --   -0.70229  -0.69628  -0.65681  -0.65400  -0.64166
 Alpha  occ. eigenvalues --   -0.63947  -0.62752  -0.61221  -0.55906  -0.54486
 Alpha  occ. eigenvalues --   -0.53772  -0.53491  -0.52260  -0.52015  -0.49567
 Alpha  occ. eigenvalues --   -0.49551  -0.47880  -0.47830  -0.45620  -0.43845
 Alpha  occ. eigenvalues --   -0.38025  -0.37021  -0.36553  -0.35503
 Alpha virt. eigenvalues --    0.04280   0.05969   0.10629   0.12134   0.15801
 Alpha virt. eigenvalues --    0.17403   0.20840   0.22038   0.26779   0.27426
 Alpha virt. eigenvalues --    0.27874   0.29083   0.30546   0.31539   0.31990

 Mulliken charges:
               1
     1  C   -0.170362
     2  C   -0.218967
     3  C   -0.173105
     4  C    0.154514
     5  C   -0.171575
     6  C   -0.218765
     7  H    0.227852
     8  H    0.225450
     9  H    0.277433
    10  H    0.277776
    11  H    0.225891
    12  N    0.484435
    13  O   -0.457241
    14  O   -0.458980
    15  C   -0.171663
    16  C   -0.220040
    17  C   -0.171149
    18  C    0.155789
    19  C   -0.169895
    20  C   -0.219235
    21  H    0.220112
    22  H    0.219377
    23  H    0.273107
    24  H    0.295370
    25  H    0.215746
    26  N    0.487377
    27  O   -0.453378
    28  O   -0.465874
 Sum of Mulliken charges =  -0.00000

 Dipole moment (field-independent basis, Debye):
    X=             -7.1009    Y=              7.3164    Z=             -0.6689  Tot=             10.2176
 Quadrupole moment (field-independent basis, Debye-Ang):
   XX=            -92.1001   YY=           -106.3054   ZZ=           -101.2631
   XY=             10.0542   XZ=              0.4708   YZ=              2.1690

 Normal termination of Gaussian 16 at Wed May  5 21:00:13 2021.
