 Gaussian 16, Revision A.03,
 Gaussian 16:  EM64L-G16RevA.03 25-Dec-2016

 -------------
 #p 6-31g* mp2
 -------------

 ------------------------------------------------------
 Input file generated by CHIRIPA (05-May-2021 14:57:21)
 ------------------------------------------------------
 Symbolic Z-matrix:
 Charge =  0 Multiplicity = 1

                         Standard orientation:
 ---------------------------------------------------------------------
 Center     Atomic      Atomic             Coordinates (Angstroms)
 Number     Number       Type             X           Y           Z
 ---------------------------------------------------------------------
      1          6           0        4.923958   -0.584007   -1.720190
      2          6           0        4.035302   -1.551220   -1.239242
      3          6           0        3.162249   -1.253482   -0.188682
      4          6           0        3.204861    0.027297    0.360027
      5          6           0        4.078753    1.012475   -0.097167
      6          6           0        4.942813    0.692503   -1.148625
      7          1           0        5.598673   -0.823933   -2.536640
      8          1           0        4.018455   -2.543404   -1.681207
      9          1           0        2.464137   -1.983277    0.203053
     10          1           0        4.072327    1.992801    0.363634
     11          1           0        5.631891    1.445644   -1.520103
     12          7           0        2.285359    0.354268    1.472684
     13          8           0        2.342503    1.490007    1.939018
     14          8           0        1.524919   -0.531382    1.857381
     15          6           0       -3.166877    2.502344   -0.624593
     16          6           0       -2.083578    1.804461   -0.080586
     17          6           0       -2.177338    0.432575    0.171773
     18          6           0       -3.374729   -0.212754   -0.133342
     19          6           0       -4.471612    0.454819   -0.676005
     20          6           0       -4.355342    1.826487   -0.920046
     21          1           0       -3.085299    3.567974   -0.817402
     22          1           0       -1.159372    2.326746    0.149860
     23          1           0       -1.354183   -0.132184    0.592348
     24          1           0       -5.379950   -0.093151   -0.895249
     25          1           0       -5.198271    2.365906   -1.342590
     26          7           0       -3.485903   -1.664993    0.129417
     27          8           0       -4.551746   -2.210454   -0.148234
     28          8           0       -2.505096   -2.230299    0.608043
 ---------------------------------------------------------------------

 SCF Done:  E(RHF) =  -868.339485430     A.U. after   16 cycles
 E2 =    -0.2598798483D+01 EUMP2 =    -0.87093828391258D+03

 The electronic state is 1-A.
 Alpha  occ. eigenvalues --  -20.61369 -20.61348 -20.60159 -20.60137 -15.86371
 Alpha  occ. eigenvalues --  -15.85200 -11.31525 -11.30492 -11.28103 -11.28016
 Alpha  occ. eigenvalues --  -11.27779 -11.27130 -11.27060 -11.26997 -11.26929
 Alpha  occ. eigenvalues --  -11.26853 -11.26146 -11.26005  -1.60431  -1.59232
 Alpha  occ. eigenvalues --   -1.39981  -1.38783  -1.19683  -1.18677  -1.09121
 Alpha  occ. eigenvalues --   -1.08100  -1.05045  -1.04056  -0.95983  -0.94935
 Alpha  occ. eigenvalues --   -0.86454  -0.85464  -0.82810  -0.81758  -0.77886
 Alpha  occ. eigenvalues --   -0.76799  -0.72575  -0.71756  -0.71419  -0.70779
 Alpha  occ. eigenvalues --   -0.70557  -0.69786  -0.65331  -0.65039  -0.64329
 Alpha  occ. eigenvalues --   -0.64056  -0.62384  -0.61375  -0.55557  -0.54598
 Alpha  occ. eigenvalues --   -0.53398  -0.53126  -0.52419  -0.52136  -0.49361
 Alpha  occ. eigenvalues --   -0.49330  -0.48188  -0.48165  -0.45415  -0.44205
 Alpha  occ. eigenvalues --   -0.37662  -0.36694  -0.36641  -0.35664
 Alpha virt. eigenvalues --    0.04576   0.05707   0.11013   0.11982   0.16087
 Alpha virt. eigenvalues --    0.17196   0.21179   0.22142   0.27136   0.27755
 Alpha virt. eigenvalues --    0.28248   0.29028   0.30825   0.31598   0.32258

 Mulliken charges:
               1
     1  C   -0.170071
     2  C   -0.218719
     3  C   -0.171402
     4  C    0.155615
     5  C   -0.171913
     6  C   -0.218789
     7  H    0.227110
     8  H    0.226840
     9  H    0.281787
    10  H    0.274198
    11  H    0.223855
    12  N    0.485615
    13  O   -0.462524
    14  O   -0.457468
    15  C   -0.171240
    16  C   -0.221673
    17  C   -0.176693
    18  C    0.156704
    19  C   -0.171750
    20  C   -0.219456
    21  H    0.223282
    22  H    0.228411
    23  H    0.289374
    24  H    0.273104
    25  H    0.220497
    26  N    0.487391
    27  O   -0.464285
    28  O   -0.457800
 Sum of Mulliken charges =  -0.00000

 Dipole moment (field-independent basis, Debye):
    X=              3.9761    Y=              3.8392    Z=             -4.8016  Tot=              7.3215
 Quadrupole moment (field-independent basis, Debye-Ang):
   XX=            -82.7895   YY=           -103.5274   ZZ=           -108.2348
   XY=            -19.4853   XZ=             -7.0689   YZ=             -0.7596

 Normal termination of Gaussian 16 at Thu May  6 06:27:05 2021.
