 Gaussian 16, Revision A.03,
 Gaussian 16:  EM64L-G16RevA.03 25-Dec-2016

 -------------
 #p 6-31g* mp2
 -------------

 ------------------------------------------------------
 Input file generated by CHIRIPA (05-May-2021 14:57:25)
 ------------------------------------------------------
 Symbolic Z-matrix:
 Charge =  0 Multiplicity = 1

                         Standard orientation:
 ---------------------------------------------------------------------
 Center     Atomic      Atomic             Coordinates (Angstroms)
 Number     Number       Type             X           Y           Z
 ---------------------------------------------------------------------
      1          6           0        5.528678    1.869742   -0.149679
      2          6           0        5.922669    0.565998    0.168980
      3          6           0        4.983976   -0.469209    0.210794
      4          6           0        3.653733   -0.163717   -0.072787
      5          6           0        3.230131    1.125067   -0.393550
      6          6           0        4.186034    2.144631   -0.429434
      7          1           0        6.264562    2.667840   -0.179858
      8          1           0        6.964694    0.349592    0.386691
      9          1           0        5.261585   -1.487496    0.454600
     10          1           0        2.184112    1.309982   -0.605844
     11          1           0        3.877183    3.156195   -0.677212
     12          7           0        2.650870   -1.251364   -0.031660
     13          8           0        1.485069   -0.956214   -0.285490
     14          8           0        3.049618   -2.378417    0.253627
     15          6           0       -5.471558    1.888479   -0.019127
     16          6           0       -5.765850    0.672990   -0.645626
     17          6           0       -4.857660   -0.388809   -0.597421
     18          6           0       -3.659255   -0.199614    0.089107
     19          6           0       -3.337200    0.999291    0.723297
     20          6           0       -4.260308    2.047469    0.662134
     21          1           0       -6.182857    2.708019   -0.061607
     22          1           0       -6.705746    0.546668   -1.175421
     23          1           0       -5.060038   -1.340491   -1.073615
     24          1           0       -2.392085    1.095210    1.243850
     25          1           0       -4.029091    2.990314    1.149605
     26          7           0       -2.689898   -1.316483    0.146999
     27          8           0       -1.641008   -1.124470    0.758224
     28          8           0       -2.997362   -2.362751   -0.419947
 ---------------------------------------------------------------------

 SCF Done:  E(RHF) =  -868.334607639     A.U. after   16 cycles
 E2 =    -0.2600547972D+01 EUMP2 =    -0.87093515561089D+03

 The electronic state is 1-A.
 Alpha  occ. eigenvalues --  -20.59826 -20.59761 -20.59746 -20.59657 -15.84852
 Alpha  occ. eigenvalues --  -15.84772 -11.30618 -11.30564 -11.27248 -11.27226
 Alpha  occ. eigenvalues --  -11.27190 -11.27177 -11.27055 -11.27011 -11.26355
 Alpha  occ. eigenvalues --  -11.26327 -11.26309 -11.26285  -1.58861  -1.58776
 Alpha  occ. eigenvalues --   -1.38408  -1.38317  -1.18830  -1.18778  -1.08151
 Alpha  occ. eigenvalues --   -1.08093  -1.04295  -1.04246  -0.94926  -0.94843
 Alpha  occ. eigenvalues --   -0.85673  -0.85623  -0.81774  -0.81661  -0.76744
 Alpha  occ. eigenvalues --   -0.76653  -0.71181  -0.70850  -0.70213  -0.70105
 Alpha  occ. eigenvalues --   -0.69935  -0.69883  -0.64478  -0.64412  -0.64304
 Alpha  occ. eigenvalues --   -0.64256  -0.61641  -0.61591  -0.54784  -0.54737
 Alpha  occ. eigenvalues --   -0.52601  -0.52552  -0.52395  -0.52346  -0.47944
 Alpha  occ. eigenvalues --   -0.47821  -0.47737  -0.47592  -0.43781  -0.43548
 Alpha  occ. eigenvalues --   -0.36833  -0.36782  -0.35917  -0.35871
 Alpha virt. eigenvalues --    0.05768   0.05929   0.11732   0.11778   0.17186
 Alpha virt. eigenvalues --    0.17345   0.21787   0.21875   0.27657   0.27748
 Alpha virt. eigenvalues --    0.28672   0.28852   0.31260   0.31433   0.32876

 Mulliken charges:
               1
     1  C   -0.172098
     2  C   -0.218441
     3  C   -0.171401
     4  C    0.159660
     5  C   -0.171582
     6  C   -0.218522
     7  H    0.223102
     8  H    0.221759
     9  H    0.275689
    10  H    0.274226
    11  H    0.220076
    12  N    0.487045
    13  O   -0.447694
    14  O   -0.461995
    15  C   -0.172259
    16  C   -0.218513
    17  C   -0.171506
    18  C    0.159903
    19  C   -0.171871
    20  C   -0.218777
    21  H    0.222812
    22  H    0.221487
    23  H    0.275551
    24  H    0.275094
    25  H    0.219970
    26  N    0.487142
    27  O   -0.446245
    28  O   -0.462615
 Sum of Mulliken charges =  -0.00000

 Dipole moment (field-independent basis, Debye):
    X=              0.1348    Y=              7.5399    Z=             -0.3162  Tot=              7.5477
 Quadrupole moment (field-independent basis, Debye-Ang):
   XX=            -52.5125   YY=           -105.1568   ZZ=           -104.6143
   XY=             -0.9346   XZ=              2.7232   YZ=              0.9408

 Normal termination of Gaussian 16 at Fri May  7 11:10:23 2021.
