 Gaussian 16, Revision A.03,
 Gaussian 16:  EM64L-G16RevA.03 25-Dec-2016

 -------------
 #p 6-31g* mp2
 -------------

 ------------------------------------------------------
 Input file generated by CHIRIPA (05-May-2021 14:51:12)
 ------------------------------------------------------
 Symbolic Z-matrix:
 Charge =  0 Multiplicity = 1

                         Standard orientation:
 ---------------------------------------------------------------------
 Center     Atomic      Atomic             Coordinates (Angstroms)
 Number     Number       Type             X           Y           Z
 ---------------------------------------------------------------------
      1          6           0        4.702111   -0.123097   -0.505889
      2          6           0        5.142094   -1.370591    0.261026
      3          6           0        6.259504   -2.136729   -0.447651
      4          1           0        4.367405   -0.416894   -1.510180
      5          1           0        5.569014    0.537370   -0.646097
      6          1           0        4.274325   -2.027868    0.400953
      7          1           0        5.475611   -1.073812    1.263674
      8          1           0        7.142187   -1.501467   -0.573799
      9          1           0        5.934076   -2.460944   -1.441423
     10          1           0        6.558635   -3.024748    0.117859
     11          6           0        3.585645    0.653455    0.189956
     12          6           0        3.145662    1.900949   -0.576959
     13          6           0        2.028252    2.667087    0.131718
     14          1           0        2.718742   -0.007012    0.330164
     15          1           0        3.920351    0.947252    1.194247
     16          1           0        2.812145    1.604170   -1.579608
     17          1           0        4.013431    2.558226   -0.716886
     18          1           0        2.353680    2.991302    1.125489
     19          1           0        1.145569    2.031825    0.257866
     20          1           0        1.729121    3.555106   -0.433792
     21          6           0       -3.538554   -0.575197    0.505679
     22          6           0       -2.315852    0.342687    0.527502
     23          6           0       -1.112949   -0.291541    1.226480
     24          1           0       -3.809292   -0.839324    1.537125
     25          1           0       -3.273898   -1.514997    0.001566
     26          1           0       -2.583128    1.281024    1.030198
     27          1           0       -2.048110    0.604814   -0.504108
     28          1           0       -0.818435   -1.217539    0.722107
     29          1           0       -1.356492   -0.537487    2.265131
     30          1           0       -0.250083    0.381739    1.230631
     31          6           0       -4.749202    0.044839   -0.189745
     32          6           0       -5.971903   -0.873045   -0.211569
     33          6           0       -7.174808   -0.238817   -0.910547
     34          1           0       -5.013858    0.984638    0.314366
     35          1           0       -4.478464    0.308966   -1.221192
     36          1           0       -6.239646   -1.135172    0.820042
     37          1           0       -5.704629   -1.811382   -0.714265
     38          1           0       -6.931264    0.007129   -1.949198
     39          1           0       -7.469321    0.687181   -0.406174
     40          1           0       -8.037674   -0.912097   -0.914697
 ---------------------------------------------------------------------

 SCF Done:  E(RHF) =  -470.733339595     A.U. after   11 cycles
 E2 =    -0.1582446238D+01 EUMP2 =    -0.47231578583244D+03

 The electronic state is 1-A.
 Alpha  occ. eigenvalues --  -11.21624 -11.21609 -11.21594 -11.21582 -11.21418
 Alpha  occ. eigenvalues --  -11.21386 -11.21358 -11.21327 -11.21092 -11.21076
 Alpha  occ. eigenvalues --  -11.21065 -11.21058  -1.08445  -1.08414  -1.03556
 Alpha  occ. eigenvalues --   -1.03511  -0.96015  -0.95954  -0.87036  -0.86967
 Alpha  occ. eigenvalues --   -0.79625  -0.79565  -0.78255  -0.78226  -0.65079
 Alpha  occ. eigenvalues --   -0.65045  -0.60970  -0.60920  -0.59449  -0.59272
 Alpha  occ. eigenvalues --   -0.57716  -0.57485  -0.55284  -0.55255  -0.52761
 Alpha  occ. eigenvalues --   -0.52663  -0.52492  -0.52276  -0.49936  -0.49899
 Alpha  occ. eigenvalues --   -0.48007  -0.47813  -0.46641  -0.46600  -0.45798
 Alpha  occ. eigenvalues --   -0.45767  -0.45723  -0.45686  -0.43789  -0.43753
 Alpha virt. eigenvalues --    0.21228   0.23058   0.23428   0.24966   0.26197
 Alpha virt. eigenvalues --    0.26655   0.27070   0.27319   0.27944   0.28904
 Alpha virt. eigenvalues --    0.30485   0.31393   0.31702   0.31823   0.32017

 Mulliken charges:
               1
     1  C   -0.298265
     2  C   -0.299682
     3  C   -0.475702
     4  H    0.149528
     5  H    0.149496
     6  H    0.152180
     7  H    0.151966
     8  H    0.155124
     9  H    0.155090
    10  H    0.160237
    11  C   -0.300104
    12  C   -0.299188
    13  C   -0.482832
    14  H    0.151513
    15  H    0.149555
    16  H    0.151772
    17  H    0.151947
    18  H    0.155174
    19  H    0.161706
    20  H    0.160558
    21  C   -0.298254
    22  C   -0.299604
    23  C   -0.484053
    24  H    0.149823
    25  H    0.149433
    26  H    0.152481
    27  H    0.151897
    28  H    0.154737
    29  H    0.155885
    30  H    0.167377
    31  C   -0.298300
    32  C   -0.299673
    33  C   -0.475718
    34  H    0.149672
    35  H    0.149656
    36  H    0.151981
    37  H    0.151892
    38  H    0.155181
    39  H    0.155239
    40  H    0.160274
 Sum of Mulliken charges =  -0.00000

 Dipole moment (field-independent basis, Debye):
    X=             -0.0120    Y=              0.0031    Z=              0.0079  Tot=              0.0147
 Quadrupole moment (field-independent basis, Debye-Ang):
   XX=            -85.7746   YY=            -84.8946   ZZ=            -84.0881
   XY=              1.0843   XZ=             -0.0669   YZ=              0.5455

 Normal termination of Gaussian 16 at Thu May  6 02:19:24 2021.
