 Gaussian 16, Revision A.03,
 Gaussian 16:  EM64L-G16RevA.03 25-Dec-2016

 -------------
 #p 6-31g* mp2
 -------------

 ------------------------------------------------------
 Input file generated by CHIRIPA (05-May-2021 14:57:21)
 ------------------------------------------------------
 Symbolic Z-matrix:
 Charge =  0 Multiplicity = 1

                         Standard orientation:
 ---------------------------------------------------------------------
 Center     Atomic      Atomic             Coordinates (Angstroms)
 Number     Number       Type             X           Y           Z
 ---------------------------------------------------------------------
      1          6           0        0.793163    2.675563    0.754423
      2          6           0        1.748310    2.018159    1.536750
      3          6           0        2.422924    0.898262    1.041499
      4          6           0        2.116227    0.460903   -0.246113
      5          6           0        1.169755    1.094457   -1.049909
      6          6           0        0.507437    2.212430   -0.534138
      7          1           0        0.273883    3.544778    1.147117
      8          1           0        1.972245    2.375608    2.537814
      9          1           0        3.166924    0.370410    1.625669
     10          1           0        0.967986    0.714674   -2.044129
     11          1           0       -0.233866    2.720995   -1.143954
     12          7           0        2.823902   -0.723664   -0.781275
     13          8           0        2.535583   -1.089171   -1.918778
     14          8           0        3.653496   -1.264190   -0.053098
     15          6           0       -3.592725    0.766949   -1.184732
     16          6           0       -2.646017   -0.029751   -1.837061
     17          6           0       -1.758285   -0.822242   -1.103278
     18          6           0       -1.845576   -0.793713    0.287713
     19          6           0       -2.777711   -0.010515    0.966695
     20          6           0       -3.655441    0.774012    0.212601
     21          1           0       -4.278451    1.379482   -1.762641
     22          1           0       -2.595017   -0.037223   -2.922137
     23          1           0       -1.015587   -1.448351   -1.582657
     24          1           0       -2.804376   -0.024012    2.049526
     25          1           0       -4.389640    1.391762    0.721896
     26          7           0       -0.911069   -1.628472    1.075287
     27          8           0       -1.008383   -1.585652    2.299760
     28          8           0       -0.098984   -2.309769    0.453203
 ---------------------------------------------------------------------

 SCF Done:  E(RHF) =  -868.337056644     A.U. after   16 cycles
 E2 =    -0.2605396486D+01 EUMP2 =    -0.87094245313016D+03

 The electronic state is 1-A.
 Alpha  occ. eigenvalues --  -20.60916 -20.60900 -20.60210 -20.60152 -15.85951
 Alpha  occ. eigenvalues --  -15.85248 -11.31421 -11.30826 -11.28083 -11.27994
 Alpha  occ. eigenvalues --  -11.27883 -11.27482 -11.27334 -11.27212 -11.27134
 Alpha  occ. eigenvalues --  -11.27097 -11.26541 -11.26449  -1.59976  -1.59219
 Alpha  occ. eigenvalues --   -1.39528  -1.38785  -1.19665  -1.19023  -1.09036
 Alpha  occ. eigenvalues --   -1.08370  -1.05103  -1.04456  -0.95841  -0.95178
 Alpha  occ. eigenvalues --   -0.86483  -0.85845  -0.82674  -0.82016  -0.77691
 Alpha  occ. eigenvalues --   -0.77024  -0.72187  -0.71485  -0.71382  -0.70786
 Alpha  occ. eigenvalues --   -0.70398  -0.70146  -0.65315  -0.65097  -0.64674
 Alpha  occ. eigenvalues --   -0.64473  -0.62431  -0.61806  -0.55604  -0.54978
 Alpha  occ. eigenvalues --   -0.53735  -0.53177  -0.52559  -0.52475  -0.48946
 Alpha  occ. eigenvalues --   -0.48915  -0.48249  -0.48209  -0.44931  -0.44147
 Alpha  occ. eigenvalues --   -0.37767  -0.37193  -0.36754  -0.35666
 Alpha virt. eigenvalues --    0.04816   0.05538   0.10599   0.11946   0.16235
 Alpha virt. eigenvalues --    0.16985   0.20813   0.21763   0.26370   0.27597
 Alpha virt. eigenvalues --    0.27864   0.28891   0.30556   0.31062   0.32154

 Mulliken charges:
               1
     1  C   -0.174166
     2  C   -0.217451
     3  C   -0.167715
     4  C    0.163128
     5  C   -0.176306
     6  C   -0.213886
     7  H    0.221930
     8  H    0.223884
     9  H    0.279145
    10  H    0.267459
    11  H    0.218416
    12  N    0.495696
    13  O   -0.467565
    14  O   -0.454697
    15  C   -0.173642
    16  C   -0.224887
    17  C   -0.175782
    18  C    0.164316
    19  C   -0.170474
    20  C   -0.220791
    21  H    0.225168
    22  H    0.224490
    23  H    0.285718
    24  H    0.275081
    25  H    0.222509
    26  N    0.487671
    27  O   -0.461258
    28  O   -0.455989
 Sum of Mulliken charges =  -0.00000

 Dipole moment (field-independent basis, Debye):
    X=             -5.6153    Y=              6.8185    Z=             -0.7177  Tot=              8.8622
 Quadrupole moment (field-independent basis, Debye-Ang):
   XX=           -102.0200   YY=           -106.5943   ZZ=           -100.6821
   XY=              3.6581   XZ=              9.6579   YZ=              4.2823

 Normal termination of Gaussian 16 at Thu May  6 21:05:41 2021.
