 Gaussian 16, Revision A.03,
 Gaussian 16:  EM64L-G16RevA.03 25-Dec-2016

 -------------
 #p 6-31g* mp2
 -------------

 ------------------------------------------------------
 Input file generated by CHIRIPA (05-May-2021 14:51:11)
 ------------------------------------------------------
 Symbolic Z-matrix:
 Charge =  0 Multiplicity = 1

                         Standard orientation:
 ---------------------------------------------------------------------
 Center     Atomic      Atomic             Coordinates (Angstroms)
 Number     Number       Type             X           Y           Z
 ---------------------------------------------------------------------
      1          6           0       -3.463967   -0.060928   -0.354714
      2          6           0       -4.966870   -0.341579   -0.332341
      3          6           0       -5.313483   -1.745712   -0.828389
      4          1           0       -3.087970   -0.192879   -1.378511
      5          1           0       -2.949334   -0.807497    0.265918
      6          1           0       -5.478653    0.406129   -0.951717
      7          1           0       -5.339368   -0.208759    0.691485
      8          1           0       -4.829201   -2.504774   -0.205576
      9          1           0       -4.969278   -1.886392   -1.858114
     10          1           0       -6.392885   -1.925039   -0.803999
     11          6           0       -3.101666    1.338834    0.138369
     12          6           0       -1.598762    1.619485    0.115996
     13          6           0       -1.252149    3.023618    0.612044
     14          1           0       -3.616299    2.085403   -0.482263
     15          1           0       -3.477662    1.470784    1.162166
     16          1           0       -1.226264    1.486665   -0.907830
     17          1           0       -1.086979    0.871776    0.735371
     18          1           0       -1.596355    3.164298    1.641769
     19          1           0       -1.736431    3.782680   -0.010770
     20          1           0       -0.172748    3.202945    0.587653
     21          6           0        2.800377   -1.231123    0.103906
     22          6           0        1.598304   -1.040605    1.029492
     23          6           0        0.642274   -2.233677    1.010028
     24          1           0        2.442758   -1.399560   -0.921123
     25          1           0        3.341469   -2.140622    0.399584
     26          1           0        1.060432   -0.130981    0.733027
     27          1           0        1.958832   -0.872412    2.052404
     28          1           0        1.158159   -3.145931    1.326657
     29          1           0        0.254654   -2.400288   -0.000217
     30          1           0       -0.209796   -2.076304    1.678661
     31          6           0        3.765255   -0.046782    0.112440
     32          6           0        4.967328   -0.237301   -0.813147
     33          6           0        5.923358    0.955771   -0.793682
     34          1           0        3.224163    0.862716   -0.183239
     35          1           0        4.122874    0.121653    1.137468
     36          1           0        4.606801   -0.405494   -1.836059
     37          1           0        5.505202   -1.146925   -0.516681
     38          1           0        6.310978    1.122381    0.216562
     39          1           0        5.407473    1.868026   -1.110312
     40          1           0        6.775428    0.798399   -1.462315
 ---------------------------------------------------------------------

 SCF Done:  E(RHF) =  -470.733277486     A.U. after   11 cycles
 E2 =    -0.1583056679D+01 EUMP2 =    -0.47231633416542D+03

 The electronic state is 1-A.
 Alpha  occ. eigenvalues --  -11.21608 -11.21599 -11.21597 -11.21553 -11.21409
 Alpha  occ. eigenvalues --  -11.21394 -11.21348 -11.21334 -11.21097 -11.21083
 Alpha  occ. eigenvalues --  -11.21068 -11.21063  -1.08449  -1.08408  -1.03563
 Alpha  occ. eigenvalues --   -1.03502  -0.95987  -0.95975  -0.87005  -0.86987
 Alpha  occ. eigenvalues --   -0.79689  -0.79515  -0.78308  -0.78177  -0.65140
 Alpha  occ. eigenvalues --   -0.64989  -0.61052  -0.60826  -0.59415  -0.59284
 Alpha  occ. eigenvalues --   -0.57632  -0.57556  -0.55278  -0.55258  -0.52697
 Alpha  occ. eigenvalues --   -0.52659  -0.52411  -0.52400  -0.49973  -0.49877
 Alpha  occ. eigenvalues --   -0.48077  -0.47809  -0.46823  -0.46450  -0.45927
 Alpha  occ. eigenvalues --   -0.45753  -0.45742  -0.45419  -0.43790  -0.43776
 Alpha virt. eigenvalues --    0.21059   0.23018   0.23738   0.24231   0.26160
 Alpha virt. eigenvalues --    0.26214   0.26966   0.27242   0.28662   0.29511
 Alpha virt. eigenvalues --    0.30721   0.31225   0.31656   0.31757   0.32163

 Mulliken charges:
               1
     1  C   -0.299519
     2  C   -0.299642
     3  C   -0.475738
     4  H    0.149279
     5  H    0.151106
     6  H    0.151883
     7  H    0.151901
     8  H    0.155495
     9  H    0.155078
    10  H    0.160214
    11  C   -0.297588
    12  C   -0.306637
    13  C   -0.475908
    14  H    0.149492
    15  H    0.149581
    16  H    0.151018
    17  H    0.159437
    18  H    0.155431
    19  H    0.155380
    20  H    0.160111
    21  C   -0.297659
    22  C   -0.307160
    23  C   -0.476323
    24  H    0.149678
    25  H    0.149327
    26  H    0.159741
    27  H    0.151409
    28  H    0.155299
    29  H    0.156334
    30  H    0.159250
    31  C   -0.298330
    32  C   -0.299639
    33  C   -0.475708
    34  H    0.149372
    35  H    0.149608
    36  H    0.151927
    37  H    0.151945
    38  H    0.155175
    39  H    0.155139
    40  H    0.160242
 Sum of Mulliken charges =  -0.00000

 Dipole moment (field-independent basis, Debye):
    X=             -0.0068    Y=              0.0005    Z=              0.0006  Tot=              0.0069
 Quadrupole moment (field-independent basis, Debye-Ang):
   XX=            -85.3561   YY=            -86.0846   ZZ=            -83.3973
   XY=             -1.2611   XZ=              0.3953   YZ=             -0.9066

 Normal termination of Gaussian 16 at Wed May  5 21:27:30 2021.
