 Gaussian 16, Revision A.03,
 Gaussian 16:  EM64L-G16RevA.03 25-Dec-2016

 -------------
 #p 6-31g* mp2
 -------------

 ------------------------------------------------------
 Input file generated by CHIRIPA (05-May-2021 14:51:09)
 ------------------------------------------------------
 Symbolic Z-matrix:
 Charge =  0 Multiplicity = 1

                         Standard orientation:
 ---------------------------------------------------------------------
 Center     Atomic      Atomic             Coordinates (Angstroms)
 Number     Number       Type             X           Y           Z
 ---------------------------------------------------------------------
      1          6           0       -4.324587    0.686582   -0.143702
      2          6           0       -3.006135    0.252320    0.497459
      3          6           0       -1.844204    1.182716    0.148067
      4          1           0       -4.199265    0.725371   -1.234452
      5          1           0       -4.562410    1.709297    0.180164
      6          1           0       -2.771572   -0.769783    0.173575
      7          1           0       -3.134665    0.214376    1.586796
      8          1           0       -2.052510    2.202938    0.486235
      9          1           0       -1.687354    1.213188   -0.935016
     10          1           0       -0.911522    0.853714    0.616813
     11          6           0       -5.495605   -0.233664    0.196286
     12          6           0       -6.814056    0.200597   -0.444875
     13          6           0       -7.975987   -0.729799   -0.095483
     14          1           0       -5.257782   -1.256379   -0.127580
     15          1           0       -5.620927   -0.272453    1.287036
     16          1           0       -6.685526    0.238542   -1.534212
     17          1           0       -7.048619    1.222700   -0.120990
     18          1           0       -8.132838   -0.760270    0.987601
     19          1           0       -7.767682   -1.750020   -0.433651
     20          1           0       -8.908669   -0.400796   -0.564228
     21          6           0        4.341490   -0.736350   -0.037713
     22          6           0        2.954805   -0.100684    0.067261
     23          6           0        1.827668   -1.133528    0.043060
     24          1           0        4.399689   -1.323047   -0.964720
     25          1           0        4.475463   -1.446122    0.790339
     26          1           0        2.824018    0.608704   -0.759952
     27          1           0        2.899965    0.484725    0.994032
     28          1           0        1.930281   -1.835340    0.877046
     29          1           0        1.853903   -1.710658   -0.886904
     30          1           0        0.845141   -0.657402    0.119258
     31          6           0        5.478702    0.283432   -0.014872
     32          6           0        6.865386   -0.352234   -0.119845
     33          6           0        7.992524    0.680611   -0.095644
     34          1           0        5.344729    0.993205   -0.842922
     35          1           0        5.420502    0.870130    0.912137
     36          1           0        6.920227   -0.937643   -1.046617
     37          1           0        6.996173   -1.061620    0.707368
     38          1           0        7.966289    1.257741    0.834320
     39          1           0        7.889910    1.382423   -0.929631
     40          1           0        8.975050    0.204485   -0.171841
 ---------------------------------------------------------------------

 SCF Done:  E(RHF) =  -470.733286031     A.U. after   11 cycles
 E2 =    -0.1582148233D+01 EUMP2 =    -0.47231543426391D+03

 The electronic state is 1-A.
 Alpha  occ. eigenvalues --  -11.21609 -11.21600 -11.21589 -11.21576 -11.21406
 Alpha  occ. eigenvalues --  -11.21386 -11.21347 -11.21327 -11.21088 -11.21069
 Alpha  occ. eigenvalues --  -11.21060 -11.21018  -1.08434  -1.08410  -1.03545
 Alpha  occ. eigenvalues --   -1.03501  -0.96017  -0.95933  -0.87047  -0.86937
 Alpha  occ. eigenvalues --   -0.79607  -0.79561  -0.78243  -0.78222  -0.65062
 Alpha  occ. eigenvalues --   -0.65040  -0.60936  -0.60903  -0.59638  -0.59133
 Alpha  occ. eigenvalues --   -0.57740  -0.57415  -0.55275  -0.55240  -0.52959
 Alpha  occ. eigenvalues --   -0.52531  -0.52442  -0.52179  -0.49925  -0.49896
 Alpha  occ. eigenvalues --   -0.47971  -0.47826  -0.46628  -0.46605  -0.45787
 Alpha  occ. eigenvalues --   -0.45764  -0.45710  -0.45690  -0.43910  -0.43624
 Alpha virt. eigenvalues --    0.21774   0.22997   0.23406   0.24988   0.26620
 Alpha virt. eigenvalues --    0.26671   0.26923   0.27497   0.27613   0.28778
 Alpha virt. eigenvalues --    0.30546   0.31400   0.31439   0.31841   0.32021

 Mulliken charges:
               1
     1  C   -0.298368
     2  C   -0.300120
     3  C   -0.480968
     4  H    0.149706
     5  H    0.149574
     6  H    0.152742
     7  H    0.152016
     8  H    0.155562
     9  H    0.155383
    10  H    0.164894
    11  C   -0.298312
    12  C   -0.299667
    13  C   -0.475713
    14  H    0.149669
    15  H    0.149665
    16  H    0.151950
    17  H    0.151911
    18  H    0.155181
    19  H    0.155223
    20  H    0.160246
    21  C   -0.298230
    22  C   -0.299129
    23  C   -0.483386
    24  H    0.149603
    25  H    0.149439
    26  H    0.152238
    27  H    0.151621
    28  H    0.154844
    29  H    0.155005
    30  H    0.167489
    31  C   -0.298259
    32  C   -0.299641
    33  C   -0.475695
    34  H    0.149556
    35  H    0.149630
    36  H    0.151901
    37  H    0.151889
    38  H    0.155168
    39  H    0.155182
    40  H    0.160200
 Sum of Mulliken charges =  -0.00000

 Dipole moment (field-independent basis, Debye):
    X=             -0.0209    Y=              0.0082    Z=             -0.0016  Tot=              0.0225
 Quadrupole moment (field-independent basis, Debye-Ang):
   XX=            -86.5417   YY=            -85.2060   ZZ=            -83.0577
   XY=             -1.2145   XZ=              0.0034   YZ=              0.5058

 Normal termination of Gaussian 16 at Wed May  5 15:06:54 2021.
