 Gaussian 16, Revision A.03,
 Gaussian 16:  EM64L-G16RevA.03 25-Dec-2016

 -------------
 #p 6-31g* mp2
 -------------

 ------------------------------------------------------
 Input file generated by CHIRIPA (05-May-2021 14:51:07)
 ------------------------------------------------------
 Symbolic Z-matrix:
 Charge =  0 Multiplicity = 1

                         Standard orientation:
 ---------------------------------------------------------------------
 Center     Atomic      Atomic             Coordinates (Angstroms)
 Number     Number       Type             X           Y           Z
 ---------------------------------------------------------------------
      1          6           0        2.331435    0.985786   -0.153674
      2          6           0        2.714916    2.366835    0.378896
      3          6           0        1.505500    3.281497    0.575106
      4          1           0        1.799543    1.102485   -1.107832
      5          1           0        1.623922    0.515288    0.543071
      6          1           0        3.422564    2.834020   -0.317946
      7          1           0        3.246125    2.246824    1.331803
      8          1           0        0.800208    2.840235    1.286762
      9          1           0        0.977649    3.430767   -0.372361
     10          1           0        1.802470    4.263482    0.956385
     11          6           0        3.529775    0.059957   -0.355043
     12          6           0        3.146294   -1.321091   -0.887613
     13          6           0        4.355711   -2.235753   -1.083823
     14          1           0        4.237288    0.530455   -1.051787
     15          1           0        4.061667   -0.056741    0.599116
     16          1           0        2.615085   -1.201081   -1.840519
     17          1           0        2.438646   -1.788277   -0.190770
     18          1           0        4.883561   -2.385023   -0.136355
     19          1           0        5.061002   -1.794492   -1.795478
     20          1           0        4.058740   -3.217739   -1.465101
     21          6           0       -2.580978   -1.108413    0.598356
     22          6           0       -1.220364   -0.739216    1.190310
     23          6           0       -0.533279   -1.921057    1.875115
     24          1           0       -3.227504   -1.497952    1.396610
     25          1           0       -2.449156   -1.925884   -0.123973
     26          1           0       -1.354524    0.078251    1.910285
     27          1           0       -0.577066   -0.350331    0.390589
     28          1           0       -0.370429   -2.737048    1.163610
     29          1           0       -1.152305   -2.306030    2.691940
     30          1           0        0.437730   -1.634859    2.291158
     31          6           0       -3.280232    0.062669   -0.089640
     32          6           0       -4.640846   -0.306527   -0.681593
     33          6           0       -5.327931    0.875314   -1.366399
     34          1           0       -3.412055    0.880141    0.632688
     35          1           0       -2.633706    0.452208   -0.887894
     36          1           0       -5.284144   -0.695412    0.118126
     37          1           0       -4.506685   -1.123994   -1.401569
     38          1           0       -4.708905    1.260288   -2.183224
     39          1           0       -5.490781    1.691305   -0.654893
     40          1           0       -6.298941    0.589115   -1.782443
 ---------------------------------------------------------------------

 SCF Done:  E(RHF) =  -470.733144340     A.U. after   11 cycles
 E2 =    -0.1583550880D+01 EUMP2 =    -0.47231669521924D+03

 The electronic state is 1-A.
 Alpha  occ. eigenvalues --  -11.21597 -11.21591 -11.21590 -11.21570 -11.21393
 Alpha  occ. eigenvalues --  -11.21389 -11.21333 -11.21323 -11.21128 -11.21071
 Alpha  occ. eigenvalues --  -11.21061 -11.21049  -1.08453  -1.08397  -1.03540
 Alpha  occ. eigenvalues --   -1.03517  -0.96000  -0.95960  -0.87012  -0.86978
 Alpha  occ. eigenvalues --   -0.79665  -0.79533  -0.78368  -0.78111  -0.65149
 Alpha  occ. eigenvalues --   -0.64976  -0.60941  -0.60912  -0.59381  -0.59324
 Alpha  occ. eigenvalues --   -0.57674  -0.57517  -0.55297  -0.55232  -0.52700
 Alpha  occ. eigenvalues --   -0.52652  -0.52413  -0.52402  -0.49993  -0.49852
 Alpha  occ. eigenvalues --   -0.48042  -0.47825  -0.46754  -0.46558  -0.46046
 Alpha  occ. eigenvalues --   -0.45752  -0.45711  -0.45257  -0.43786  -0.43773
 Alpha virt. eigenvalues --    0.20696   0.23139   0.23867   0.24057   0.26079
 Alpha virt. eigenvalues --    0.26246   0.26899   0.27629   0.28164   0.29775
 Alpha virt. eigenvalues --    0.30457   0.31348   0.31696   0.31861   0.32096

 Mulliken charges:
               1
     1  C   -0.306754
     2  C   -0.299057
     3  C   -0.476230
     4  H    0.148404
     5  H    0.159891
     6  H    0.151776
     7  H    0.151638
     8  H    0.156027
     9  H    0.155025
    10  H    0.160096
    11  C   -0.297437
    12  C   -0.302743
    13  C   -0.475518
    14  H    0.149439
    15  H    0.149327
    16  H    0.151261
    17  H    0.155021
    18  H    0.155270
    19  H    0.155177
    20  H    0.160156
    21  C   -0.297782
    22  C   -0.305951
    23  C   -0.477525
    24  H    0.149351
    25  H    0.149571
    26  H    0.151078
    27  H    0.159024
    28  H    0.155960
    29  H    0.155612
    30  H    0.159693
    31  C   -0.298330
    32  C   -0.299666
    33  C   -0.475679
    34  H    0.149590
    35  H    0.149952
    36  H    0.151890
    37  H    0.151866
    38  H    0.155133
    39  H    0.155256
    40  H    0.160189
 Sum of Mulliken charges =  -0.00000

 Dipole moment (field-independent basis, Debye):
    X=             -0.0079    Y=             -0.0016    Z=              0.0020  Tot=              0.0083
 Quadrupole moment (field-independent basis, Debye-Ang):
   XX=            -85.6570   YY=            -85.8242   ZZ=            -83.4195
   XY=              0.9671   XZ=             -0.6492   YZ=              0.1516

 Normal termination of Gaussian 16 at Thu May  6 11:32:35 2021.
