 Gaussian 16, Revision A.03,
 Gaussian 16:  EM64L-G16RevA.03 25-Dec-2016

 -------------
 #p 6-31g* mp2
 -------------

 ------------------------------------------------------
 Input file generated by CHIRIPA (05-May-2021 14:57:22)
 ------------------------------------------------------
 Symbolic Z-matrix:
 Charge =  0 Multiplicity = 1

                         Standard orientation:
 ---------------------------------------------------------------------
 Center     Atomic      Atomic             Coordinates (Angstroms)
 Number     Number       Type             X           Y           Z
 ---------------------------------------------------------------------
      1          6           0        2.473305    1.872095   -1.651723
      2          6           0        2.461852    0.514050   -1.986539
      3          6           0        2.529665   -0.463631   -0.989498
      4          6           0        2.608419   -0.045866    0.338116
      5          6           0        2.621838    1.299341    0.703532
      6          6           0        2.553120    2.259723   -0.310121
      7          1           0        2.420275    2.624862   -2.432700
      8          1           0        2.399937    0.210093   -3.027607
      9          1           0        2.522570   -1.521909   -1.220617
     10          1           0        2.684306    1.571580    1.750146
     11          1           0        2.562201    3.313673   -0.047154
     12          7           0        2.680688   -1.071736    1.402432
     13          8           0        2.749439   -0.677716    2.564610
     14          8           0        2.667214   -2.250408    1.054311
     15          6           0       -3.747196    1.710680    1.132938
     16          6           0       -2.560133    1.979453    0.443616
     17          6           0       -1.913954    0.971026   -0.277549
     18          6           0       -2.485264   -0.300504   -0.287962
     19          6           0       -3.666788   -0.599513    0.388710
     20          6           0       -4.295767    0.424324    1.103337
     21          1           0       -4.242482    2.500036    1.690616
     22          1           0       -2.131816    2.977520    0.464840
     23          1           0       -0.993933    1.151548   -0.820125
     24          1           0       -4.069632   -1.604279    0.348959
     25          1           0       -5.217547    0.212704    1.637738
     26          7           0       -1.810288   -1.376236   -1.047966
     27          8           0       -2.333979   -2.488145   -1.041442
     28          8           0       -0.770331   -1.087117   -1.635790
 ---------------------------------------------------------------------

 SCF Done:  E(RHF) =  -868.338568896     A.U. after   16 cycles
 E2 =    -0.2601027140D+01 EUMP2 =    -0.87093959603608D+03

 The electronic state is 1-A.
 Alpha  occ. eigenvalues --  -20.60946 -20.60897 -20.60340 -20.60298 -15.85966
 Alpha  occ. eigenvalues --  -15.85374 -11.31254 -11.30719 -11.27821 -11.27809
 Alpha  occ. eigenvalues --  -11.27576 -11.27424 -11.27192 -11.27169 -11.26857
 Alpha  occ. eigenvalues --  -11.26811 -11.26488 -11.26239  -1.59988  -1.59399
 Alpha  occ. eigenvalues --   -1.39548  -1.38950  -1.19428  -1.18942  -1.08843
 Alpha  occ. eigenvalues --   -1.08360  -1.04825  -1.04320  -0.95691  -0.95175
 Alpha  occ. eigenvalues --   -0.86229  -0.85735  -0.82536  -0.81988  -0.77583
 Alpha  occ. eigenvalues --   -0.77016  -0.72218  -0.71595  -0.71301  -0.70720
 Alpha  occ. eigenvalues --   -0.70543  -0.70069  -0.65093  -0.64841  -0.64593
 Alpha  occ. eigenvalues --   -0.64335  -0.62178  -0.61651  -0.55342  -0.54892
 Alpha  occ. eigenvalues --   -0.53154  -0.53000  -0.52601  -0.52414  -0.48959
 Alpha  occ. eigenvalues --   -0.48936  -0.48365  -0.48337  -0.44977  -0.44353
 Alpha  occ. eigenvalues --   -0.37412  -0.36995  -0.36430  -0.35837
 Alpha virt. eigenvalues --    0.04882   0.05567   0.11227   0.11743   0.16462
 Alpha virt. eigenvalues --    0.16949   0.21275   0.21823   0.27131   0.27749
 Alpha virt. eigenvalues --    0.28148   0.28713   0.30745   0.31331   0.32248

 Mulliken charges:
               1
     1  C   -0.178268
     2  C   -0.213517
     3  C   -0.152046
     4  C    0.152827
     5  C   -0.174222
     6  C   -0.224978
     7  H    0.222979
     8  H    0.227937
     9  H    0.283412
    10  H    0.272540
    11  H    0.218288
    12  N    0.487776
    13  O   -0.465123
    14  O   -0.455569
    15  C   -0.169905
    16  C   -0.218796
    17  C   -0.172737
    18  C    0.158305
    19  C   -0.169361
    20  C   -0.218426
    21  H    0.225571
    22  H    0.220442
    23  H    0.276215
    24  H    0.276742
    25  H    0.224312
    26  N    0.490677
    27  O   -0.456483
    28  O   -0.468593
 Sum of Mulliken charges =  -0.00000

 Dipole moment (field-independent basis, Debye):
    X=             -2.7181    Y=              7.0258    Z=             -1.2164  Tot=              7.6308
 Quadrupole moment (field-independent basis, Debye-Ang):
   XX=            -92.6893   YY=           -103.7658   ZZ=           -107.2056
   XY=              2.9446   XZ=            -17.6696   YZ=              1.5749

 Normal termination of Gaussian 16 at Thu May  6 04:57:04 2021.
