 Gaussian 16, Revision A.03,
 Gaussian 16:  EM64L-G16RevA.03 25-Dec-2016

 -------------
 #p 6-31g* mp2
 -------------

 ------------------------------------------------------
 Input file generated by CHIRIPA (05-May-2021 14:55:22)
 ------------------------------------------------------
 Symbolic Z-matrix:
 Charge =  0 Multiplicity = 1

                         Standard orientation:
 ---------------------------------------------------------------------
 Center     Atomic      Atomic             Coordinates (Angstroms)
 Number     Number       Type             X           Y           Z
 ---------------------------------------------------------------------
      1          6           0        0.738764   -1.369991   -0.128081
      2          6           0        1.873159   -2.134240    0.164479
      3          6           0        3.135840   -1.536976    0.223305
      4          6           0        3.228036   -0.166895   -0.016835
      5          6           0        2.116528    0.621422   -0.310769
      6          6           0        0.863848    0.002981   -0.364355
      7          1           0       -0.238233   -1.842185   -0.171744
      8          1           0        1.779016   -3.200707    0.348409
      9          1           0        4.030568   -2.104917    0.447634
     10          1           0        2.241979    1.682428   -0.489506
     11          1           0       -0.015407    0.598992   -0.591787
     12          7           0        4.559486    0.476611    0.042668
     13          8           0        4.614027    1.685428   -0.172791
     14          8           0        5.523324   -0.240011    0.303639
     15          6           0       -3.421663    0.929787   -0.215348
     16          6           0       -3.712496    2.249983    0.499133
     17          6           0       -2.845688    3.401635   -0.010901
     18          1           0       -2.360379    0.676646   -0.086735
     19          1           0       -3.583064    1.061488   -1.294236
     20          1           0       -3.551929    2.115451    1.576508
     21          1           0       -4.773254    2.499913    0.368966
     22          1           0       -3.012055    3.564545   -1.080660
     23          1           0       -1.783792    3.177899    0.133743
     24          1           0       -3.070073    4.335747    0.513452
     25          6           0       -4.280345   -0.231028    0.283551
     26          6           0       -3.989512   -1.551224   -0.430930
     27          6           0       -4.856320   -2.702876    0.079104
     28          1           0       -4.118943   -0.362729    1.362438
     29          1           0       -5.341629    0.022112    0.154938
     30          1           0       -2.928754   -1.801154   -0.300763
     31          1           0       -4.150078   -1.416693   -1.508305
     32          1           0       -5.918215   -2.479140   -0.065540
     33          1           0       -4.689952   -2.865786    1.148863
     34          1           0       -4.631934   -3.636988   -0.445248
 ---------------------------------------------------------------------

 SCF Done:  E(RHF) =  -669.535413973     A.U. after   15 cycles
 E2 =    -0.2091973391D+01 EUMP2 =    -0.67162738736390D+03

 The electronic state is 1-A.
 Alpha  occ. eigenvalues --  -20.60731 -20.60725 -15.85783 -11.31145 -11.27717
 Alpha  occ. eigenvalues --  -11.27708 -11.27450 -11.26731 -11.26693 -11.22738
 Alpha  occ. eigenvalues --  -11.22533 -11.22449 -11.22369 -11.21974 -11.21894
 Alpha  occ. eigenvalues --   -1.59806  -1.39360  -1.19317  -1.09455  -1.08712
 Alpha  occ. eigenvalues --   -1.04720  -1.04484  -0.96918  -0.95549  -0.87932
 Alpha  occ. eigenvalues --   -0.86122  -0.82383  -0.80553  -0.79303  -0.77427
 Alpha  occ. eigenvalues --   -0.72002  -0.71129  -0.70435  -0.66125  -0.64967
 Alpha  occ. eigenvalues --   -0.64705  -0.62108  -0.61848  -0.60289  -0.58536
 Alpha  occ. eigenvalues --   -0.56208  -0.55228  -0.53582  -0.53355  -0.53049
 Alpha  occ. eigenvalues --   -0.52816  -0.50857  -0.48879  -0.48757  -0.48744
 Alpha  occ. eigenvalues --   -0.47587  -0.46819  -0.46717  -0.44766  -0.44753
 Alpha  occ. eigenvalues --   -0.37297  -0.36323
 Alpha virt. eigenvalues --    0.05105   0.11291   0.16592   0.18220   0.21985
 Alpha virt. eigenvalues --    0.22799   0.24839   0.26054   0.26300   0.27311
 Alpha virt. eigenvalues --    0.29312   0.30656   0.30943   0.31413   0.31843

 Mulliken charges:
               1
     1  C   -0.177445
     2  C   -0.219755
     3  C   -0.170885
     4  C    0.158710
     5  C   -0.171645
     6  C   -0.227663
     7  H    0.232195
     8  H    0.223669
     9  H    0.275422
    10  H    0.275896
    11  H    0.232775
    12  N    0.487912
    13  O   -0.460418
    14  O   -0.460573
    15  C   -0.304051
    16  C   -0.300188
    17  C   -0.476708
    18  H    0.142469
    19  H    0.152226
    20  H    0.154743
    21  H    0.155827
    22  H    0.156927
    23  H    0.150393
    24  H    0.165648
    25  C   -0.298529
    26  C   -0.302722
    27  C   -0.476264
    28  H    0.151977
    29  H    0.154539
    30  H    0.142843
    31  H    0.155375
    32  H    0.159201
    33  H    0.156654
    34  H    0.161445
 Sum of Mulliken charges =  -0.00000

 Dipole moment (field-independent basis, Debye):
    X=             -4.9916    Y=             -2.2027    Z=             -0.1832  Tot=              5.4591
 Quadrupole moment (field-independent basis, Debye-Ang):
   XX=           -123.1287   YY=            -90.6083   ZZ=            -94.9039
   XY=             -9.5435   XZ=              0.4872   YZ=             -0.9299

 Normal termination of Gaussian 16 at Wed May  5 20:39:41 2021.
