 Gaussian 16, Revision A.03,
 Gaussian 16:  EM64L-G16RevA.03 25-Dec-2016

 -------------
 #p 6-31g* mp2
 -------------

 ------------------------------------------------------
 Input file generated by CHIRIPA (05-May-2021 14:51:12)
 ------------------------------------------------------
 Symbolic Z-matrix:
 Charge =  0 Multiplicity = 1

                         Standard orientation:
 ---------------------------------------------------------------------
 Center     Atomic      Atomic             Coordinates (Angstroms)
 Number     Number       Type             X           Y           Z
 ---------------------------------------------------------------------
      1          6           0       -2.904075   -0.756423    0.396097
      2          6           0       -2.185682   -1.771320   -0.493780
      3          6           0       -1.150583   -2.598372    0.269338
      4          1           0       -2.161370   -0.087157    0.851528
      5          1           0       -3.395195   -1.287402    1.223296
      6          1           0       -1.697219   -1.238721   -1.319829
      7          1           0       -2.930200   -2.438127   -0.947296
      8          1           0       -1.626361   -3.155163    1.083107
      9          1           0       -0.386374   -1.948942    0.708457
     10          1           0       -0.649062   -3.317436   -0.385860
     11          6           0       -3.941934    0.077991   -0.352454
     12          6           0       -4.660327    1.092888    0.537423
     13          6           0       -5.695426    1.919940   -0.225695
     14          1           0       -3.450815    0.608970   -1.179653
     15          1           0       -4.684639   -0.591275   -0.807886
     16          1           0       -3.915809    1.759695    0.990939
     17          1           0       -5.148791    0.560289    1.363472
     18          1           0       -6.459635    1.270510   -0.664814
     19          1           0       -5.219648    2.476731   -1.039464
     20          1           0       -6.196947    2.639003    0.429503
     21          6           0        3.736519   -0.341728    0.124653
     22          6           0        2.837894   -1.518039   -0.258429
     23          6           0        3.478927   -2.873558    0.040630
     24          1           0        4.689484   -0.425435   -0.415528
     25          1           0        3.977125   -0.406467    1.194846
     26          1           0        2.597925   -1.450334   -1.327282
     27          1           0        1.886884   -1.431417    0.282582
     28          1           0        3.702980   -2.966603    1.108218
     29          1           0        4.418062   -2.985627   -0.510793
     30          1           0        2.819439   -3.700394   -0.240936
     31          6           0        3.109489    1.020161   -0.168296
     32          6           0        4.008116    2.196471    0.214786
     33          6           0        3.367083    3.551991   -0.084272
     34          1           0        2.868884    1.084899   -1.238489
     35          1           0        2.156525    1.103868    0.371886
     36          1           0        4.959126    2.109850   -0.326224
     37          1           0        4.248084    2.128767    1.283639
     38          1           0        2.427948    3.664059    0.467150
     39          1           0        3.143030    3.645035   -1.151860
     40          1           0        4.026570    4.378826    0.197293
 ---------------------------------------------------------------------

 SCF Done:  E(RHF) =  -470.733183867     A.U. after   11 cycles
 E2 =    -0.1582627158D+01 EUMP2 =    -0.47231581102530D+03

 The electronic state is 1-A.
 Alpha  occ. eigenvalues --  -11.21617 -11.21605 -11.21598 -11.21546 -11.21413
 Alpha  occ. eigenvalues --  -11.21411 -11.21351 -11.21345 -11.21092 -11.21072
 Alpha  occ. eigenvalues --  -11.21061 -11.21035  -1.08441  -1.08422  -1.03551
 Alpha  occ. eigenvalues --   -1.03501  -0.96001  -0.95954  -0.87012  -0.86978
 Alpha  occ. eigenvalues --   -0.79655  -0.79530  -0.78271  -0.78219  -0.65119
 Alpha  occ. eigenvalues --   -0.65014  -0.61056  -0.60814  -0.59395  -0.59295
 Alpha  occ. eigenvalues --   -0.57593  -0.57585  -0.55340  -0.55198  -0.52705
 Alpha  occ. eigenvalues --   -0.52632  -0.52437  -0.52372  -0.50047  -0.49835
 Alpha  occ. eigenvalues --   -0.47997  -0.47825  -0.46792  -0.46463  -0.45862
 Alpha  occ. eigenvalues --   -0.45747  -0.45737  -0.45548  -0.43785  -0.43776
 Alpha virt. eigenvalues --    0.21534   0.23150   0.23549   0.24830   0.25801
 Alpha virt. eigenvalues --    0.26793   0.27089   0.27377   0.27893   0.29004
 Alpha virt. eigenvalues --    0.30184   0.31061   0.31591   0.31893   0.32564

 Mulliken charges:
               1
     1  C   -0.298297
     2  C   -0.299769
     3  C   -0.479538
     4  H    0.149223
     5  H    0.149492
     6  H    0.152560
     7  H    0.151908
     8  H    0.155002
     9  H    0.159034
    10  H    0.160583
    11  C   -0.298340
    12  C   -0.299644
    13  C   -0.475720
    14  H    0.149724
    15  H    0.149679
    16  H    0.151864
    17  H    0.151889
    18  H    0.155181
    19  H    0.155267
    20  H    0.160254
    21  C   -0.297851
    22  C   -0.305741
    23  C   -0.475543
    24  H    0.149576
    25  H    0.149357
    26  H    0.151388
    27  H    0.158697
    28  H    0.155012
    29  H    0.154874
    30  H    0.160718
    31  C   -0.298026
    32  C   -0.299618
    33  C   -0.475695
    34  H    0.149453
    35  H    0.148480
    36  H    0.152117
    37  H    0.152010
    38  H    0.154938
    39  H    0.155132
    40  H    0.160374
 Sum of Mulliken charges =  -0.00000

 Dipole moment (field-independent basis, Debye):
    X=             -0.0089    Y=             -0.0101    Z=             -0.0026  Tot=              0.0138
 Quadrupole moment (field-independent basis, Debye-Ang):
   XX=            -84.8703   YY=            -85.8723   ZZ=            -84.0553
   XY=              1.3807   XZ=             -0.9066   YZ=              0.3003

 Normal termination of Gaussian 16 at Wed May  5 16:49:03 2021.
