 Gaussian 16, Revision A.03,
 Gaussian 16:  EM64L-G16RevA.03 25-Dec-2016

 -------------
 #p 6-31g* mp2
 -------------

 ------------------------------------------------------
 Input file generated by CHIRIPA (05-May-2021 14:51:10)
 ------------------------------------------------------
 Symbolic Z-matrix:
 Charge =  0 Multiplicity = 1

                         Standard orientation:
 ---------------------------------------------------------------------
 Center     Atomic      Atomic             Coordinates (Angstroms)
 Number     Number       Type             X           Y           Z
 ---------------------------------------------------------------------
      1          6           0        2.582341    0.877158    0.305855
      2          6           0        2.538630    2.347245   -0.112378
      3          6           0        2.463848    3.299535    1.081500
      4          1           0        1.691160    0.646462    0.905455
      5          1           0        3.449970    0.714997    0.960316
      6          1           0        1.672127    2.506289   -0.766973
      7          1           0        3.429924    2.574419   -0.711213
      8          1           0        3.334321    3.169985    1.732726
      9          1           0        1.566537    3.101468    1.676649
     10          1           0        2.433528    4.345184    0.759696
     11          6           0        2.657226   -0.087136   -0.876625
     12          6           0        2.700938   -1.557222   -0.458391
     13          6           0        2.775720   -2.509513   -1.652269
     14          1           0        1.789598    0.075025   -1.531085
     15          1           0        3.548408    0.143560   -1.476224
     16          1           0        1.809644   -1.784396    0.140443
     17          1           0        3.567441   -1.716266    0.196203
     18          1           0        3.673031   -2.311446   -2.247418
     19          1           0        1.905247   -2.379963   -2.303495
     20          1           0        2.806039   -3.555162   -1.330465
     21          6           0       -2.425684   -1.077317    0.568609
     22          6           0       -1.053600   -1.085710    1.243370
     23          6           0       -0.679406   -2.457700    1.804989
     24          1           0       -3.185923   -1.397938    1.293994
     25          1           0       -2.433013   -1.820330   -0.240880
     26          1           0       -1.048414   -0.341927    2.050449
     27          1           0       -0.296564   -0.764847    0.516350
     28          1           0       -0.656798   -3.207338    1.007410
     29          1           0       -1.412920   -2.782015    2.550226
     30          1           0        0.305080   -2.440979    2.282868
     31          6           0       -2.813885    0.287295    0.002160
     32          6           0       -4.185968    0.295688   -0.672600
     33          6           0       -4.560162    1.667677   -1.234220
     34          1           0       -2.806554    1.030308    0.811648
     35          1           0       -2.053645    0.607916   -0.723224
     36          1           0       -4.943003   -0.025176    0.054420
     37          1           0       -4.191154   -0.448096   -1.479680
     38          1           0       -3.826647    1.991993   -1.979456
     39          1           0       -4.582769    2.417316   -0.436641
     40          1           0       -5.544647    1.650957   -1.712099
 ---------------------------------------------------------------------

 SCF Done:  E(RHF) =  -470.732477050     A.U. after   11 cycles
 E2 =    -0.1584509734D+01 EUMP2 =    -0.47231698678404D+03

 The electronic state is 1-A.
 Alpha  occ. eigenvalues --  -11.21675 -11.21654 -11.21571 -11.21535 -11.21478
 Alpha  occ. eigenvalues --  -11.21419 -11.21381 -11.21298 -11.21146 -11.21112
 Alpha  occ. eigenvalues --  -11.21065 -11.21044  -1.08528  -1.08391  -1.03623
 Alpha  occ. eigenvalues --   -1.03490  -0.96053  -0.95959  -0.87067  -0.86972
 Alpha  occ. eigenvalues --   -0.79687  -0.79571  -0.78399  -0.78149  -0.65388
 Alpha  occ. eigenvalues --   -0.64866  -0.61197  -0.60724  -0.59453  -0.59279
 Alpha  occ. eigenvalues --   -0.57662  -0.57569  -0.55350  -0.55248  -0.52749
 Alpha  occ. eigenvalues --   -0.52644  -0.52491  -0.52366  -0.49991  -0.49903
 Alpha  occ. eigenvalues --   -0.48033  -0.47869  -0.46801  -0.46573  -0.46107
 Alpha  occ. eigenvalues --   -0.45797  -0.45721  -0.45266  -0.43853  -0.43755
 Alpha virt. eigenvalues --    0.20407   0.23313   0.23425   0.24528   0.25843
 Alpha virt. eigenvalues --    0.26483   0.26954   0.27555   0.28705   0.29682
 Alpha virt. eigenvalues --    0.31132   0.31423   0.31607   0.31917   0.32008

 Mulliken charges:
               1
     1  C   -0.304240
     2  C   -0.299118
     3  C   -0.475716
     4  H    0.155904
     5  H    0.149245
     6  H    0.151574
     7  H    0.151744
     8  H    0.155018
     9  H    0.155374
    10  H    0.160122
    11  C   -0.298311
    12  C   -0.309723
    13  C   -0.475145
    14  H    0.147960
    15  H    0.150047
    16  H    0.163242
    17  H    0.151741
    18  H    0.155201
    19  H    0.154136
    20  H    0.160259
    21  C   -0.297388
    22  C   -0.308776
    23  C   -0.478250
    24  H    0.150035
    25  H    0.149613
    26  H    0.151971
    27  H    0.159662
    28  H    0.155703
    29  H    0.156486
    30  H    0.161713
    31  C   -0.298420
    32  C   -0.299695
    33  C   -0.475770
    34  H    0.149626
    35  H    0.148937
    36  H    0.152200
    37  H    0.152064
    38  H    0.155171
    39  H    0.155313
    40  H    0.160495
 Sum of Mulliken charges =  -0.00000

 Dipole moment (field-independent basis, Debye):
    X=             -0.0392    Y=             -0.0198    Z=              0.0341  Tot=              0.0556
 Quadrupole moment (field-independent basis, Debye-Ang):
   XX=            -83.7611   YY=            -86.2551   ZZ=            -84.7794
   XY=              0.3537   XZ=             -0.4686   YZ=             -0.0193

 Normal termination of Gaussian 16 at Wed May  5 19:46:53 2021.
