 Gaussian 16, Revision A.03,
 Gaussian 16:  EM64L-G16RevA.03 25-Dec-2016

 -------------
 #p 6-31g* mp2
 -------------

 ------------------------------------------------------
 Input file generated by CHIRIPA (05-May-2021 14:51:08)
 ------------------------------------------------------
 Symbolic Z-matrix:
 Charge =  0 Multiplicity = 1

                         Standard orientation:
 ---------------------------------------------------------------------
 Center     Atomic      Atomic             Coordinates (Angstroms)
 Number     Number       Type             X           Y           Z
 ---------------------------------------------------------------------
      1          6           0       -3.097644   -0.891530    0.223085
      2          6           0       -1.761762   -1.550997   -0.121167
      3          6           0       -1.699372   -3.017943    0.305411
      4          1           0       -3.268694   -0.967665    1.305623
      5          1           0       -3.910137   -1.450223   -0.261799
      6          1           0       -0.951918   -0.990408    0.363093
      7          1           0       -1.593782   -1.473113   -1.202987
      8          1           0       -2.487050   -3.596461   -0.188027
      9          1           0       -1.841539   -3.111013    1.386951
     10          1           0       -0.735848   -3.469747    0.049765
     11          6           0       -3.175318    0.575134   -0.197143
     12          6           0       -4.511199    1.234601    0.147109
     13          6           0       -4.573590    2.701548   -0.279470
     14          1           0       -2.362825    1.133827    0.287740
     15          1           0       -3.004268    0.651270   -1.279682
     16          1           0       -4.679179    1.156718    1.228928
     17          1           0       -5.321043    0.674012   -0.337152
     18          1           0       -4.431423    2.794617   -1.361010
     19          1           0       -3.785912    3.280065    0.213968
     20          1           0       -5.537114    3.153352   -0.023824
     21          6           0        2.964447    0.874407    0.189220
     22          6           0        4.069063    1.879242   -0.139588
     23          6           0        3.710120    3.307692    0.270876
     24          1           0        2.037411    1.180273   -0.314761
     25          1           0        2.758783    0.906159    1.268149
     26          1           0        4.273544    1.844612   -1.217365
     27          1           0        4.993626    1.570842    0.365080
     28          1           0        3.526173    3.364124    1.348642
     29          1           0        2.801999    3.639450   -0.242794
     30          1           0        4.513657    4.009505    0.026649
     31          6           0        3.308515   -0.558011   -0.215161
     32          6           0        2.203898   -1.562846    0.113646
     33          6           0        2.562842   -2.991297   -0.296817
     34          1           0        3.514178   -0.589764   -1.294091
     35          1           0        4.235550   -0.863878    0.288819
     36          1           0        1.279336   -1.254447   -0.391021
     37          1           0        1.999418   -1.528217    1.191423
     38          1           0        3.470962   -3.323055    0.216852
     39          1           0        2.746788   -3.047729   -1.374584
     40          1           0        1.759304   -3.693110   -0.052590
 ---------------------------------------------------------------------

 SCF Done:  E(RHF) =  -470.732626058     A.U. after   11 cycles
 E2 =    -0.1583652153D+01 EUMP2 =    -0.47231627821123D+03

 The electronic state is 1-A.
 Alpha  occ. eigenvalues --  -11.21605 -11.21599 -11.21555 -11.21538 -11.21402
 Alpha  occ. eigenvalues --  -11.21396 -11.21339 -11.21334 -11.21076 -11.21072
 Alpha  occ. eigenvalues --  -11.21071 -11.21049  -1.08451  -1.08397  -1.03586
 Alpha  occ. eigenvalues --   -1.03464  -0.96028  -0.95925  -0.87039  -0.86948
 Alpha  occ. eigenvalues --   -0.79739  -0.79469  -0.78349  -0.78122  -0.65093
 Alpha  occ. eigenvalues --   -0.65019  -0.60993  -0.60879  -0.59693  -0.59090
 Alpha  occ. eigenvalues --   -0.57823  -0.57283  -0.55265  -0.55250  -0.52872
 Alpha  occ. eigenvalues --   -0.52553  -0.52478  -0.52221  -0.49950  -0.49892
 Alpha  occ. eigenvalues --   -0.48223  -0.47694  -0.46744  -0.46523  -0.45996
 Alpha  occ. eigenvalues --   -0.45763  -0.45698  -0.45335  -0.43879  -0.43654
 Alpha virt. eigenvalues --    0.21337   0.23128   0.23236   0.25150   0.25748
 Alpha virt. eigenvalues --    0.26538   0.26696   0.27018   0.28659   0.29071
 Alpha virt. eigenvalues --    0.30068   0.31012   0.31334   0.31613   0.32567

 Mulliken charges:
               1
     1  C   -0.297691
     2  C   -0.303536
     3  C   -0.481170
     4  H    0.149595
     5  H    0.149271
     6  H    0.157304
     7  H    0.150528
     8  H    0.155120
     9  H    0.155063
    10  H    0.165409
    11  C   -0.298420
    12  C   -0.299586
    13  C   -0.475730
    14  H    0.149578
    15  H    0.149245
    16  H    0.152004
    17  H    0.151943
    18  H    0.155047
    19  H    0.155239
    20  H    0.160278
    21  C   -0.298693
    22  C   -0.299548
    23  C   -0.475755
    24  H    0.149737
    25  H    0.149081
    26  H    0.152014
    27  H    0.152003
    28  H    0.155029
    29  H    0.155252
    30  H    0.160305
    31  C   -0.297597
    32  C   -0.306643
    33  C   -0.479459
    34  H    0.149358
    35  H    0.149409
    36  H    0.161699
    37  H    0.151022
    38  H    0.155338
    39  H    0.155104
    40  H    0.162854
 Sum of Mulliken charges =  -0.00000

 Dipole moment (field-independent basis, Debye):
    X=              0.0043    Y=              0.0033    Z=             -0.0008  Tot=              0.0055
 Quadrupole moment (field-independent basis, Debye-Ang):
   XX=            -84.6685   YY=            -87.0525   ZZ=            -83.2088
   XY=              0.3685   XZ=              0.6858   YZ=              0.1167

 Normal termination of Gaussian 16 at Wed May  5 16:35:32 2021.
