 Gaussian 16, Revision A.03,
 Gaussian 16:  EM64L-G16RevA.03 25-Dec-2016

 -------------
 #p 6-31g* mp2
 -------------

 ------------------------------------------------------
 Input file generated by CHIRIPA (05-May-2021 14:51:11)
 ------------------------------------------------------
 Symbolic Z-matrix:
 Charge =  0 Multiplicity = 1

                         Standard orientation:
 ---------------------------------------------------------------------
 Center     Atomic      Atomic             Coordinates (Angstroms)
 Number     Number       Type             X           Y           Z
 ---------------------------------------------------------------------
      1          6           0       -2.987884    1.073223    0.303278
      2          6           0       -1.582954    1.611054    0.029608
      3          6           0       -1.173345    2.716905    1.002803
      4          1           0       -3.708227    1.900631    0.244576
      5          1           0       -3.032908    0.692051    1.332878
      6          1           0       -1.540198    1.989835   -0.999621
      7          1           0       -0.865896    0.782234    0.088779
      8          1           0       -1.187826    2.347899    2.033446
      9          1           0       -1.865960    3.562361    0.938862
     10          1           0       -0.165731    3.086879    0.789043
     11          6           0       -3.411691   -0.032891   -0.661412
     12          6           0       -4.816621   -0.570723   -0.387743
     13          6           0       -5.226230   -1.676573   -1.360937
     14          1           0       -3.366667    0.348280   -1.691012
     15          1           0       -2.691348   -0.860300   -0.602710
     16          1           0       -5.533679    0.258097   -0.446914
     17          1           0       -4.859376   -0.949504    0.641487
     18          1           0       -4.533615   -2.522030   -1.296996
     19          1           0       -5.211749   -1.307568   -2.391581
     20          1           0       -6.233844   -2.046547   -1.147178
     21          6           0        2.922915   -0.953063    0.744199
     22          6           0        1.427354   -0.748341    0.987862
     23          6           0        0.888160   -1.621286    2.121453
     24          1           0        3.109039   -2.011129    0.514421
     25          1           0        3.471700   -0.733121    1.670404
     26          1           0        0.881673   -0.967265    0.061082
     27          1           0        1.244742    0.309398    1.216898
     28          1           0        1.406475   -1.397954    3.059576
     29          1           0        1.041343   -2.681873    1.897193
     30          1           0       -0.182741   -1.458973    2.278565
     31          6           0        3.476660   -0.087268   -0.386064
     32          6           0        4.972221   -0.291991   -0.629727
     33          6           0        5.511414    0.580955   -1.763318
     34          1           0        2.927875   -0.307210   -1.312269
     35          1           0        3.290535    0.970798   -0.156286
     36          1           0        5.154833   -1.349730   -0.858763
     37          1           0        5.517901   -0.073066    0.297053
     38          1           0        5.358232    1.641541   -1.539059
     39          1           0        4.993100    0.357624   -2.701441
     40          1           0        6.582316    0.418643   -1.920430
 ---------------------------------------------------------------------

 SCF Done:  E(RHF) =  -470.732725536     A.U. after   11 cycles
 E2 =    -0.1583615306D+01 EUMP2 =    -0.47231634084177D+03

 The electronic state is 1-A.
 Alpha  occ. eigenvalues --  -11.21656 -11.21623 -11.21584 -11.21441 -11.21434
 Alpha  occ. eigenvalues --  -11.21381 -11.21368 -11.21300 -11.21160 -11.21086
 Alpha  occ. eigenvalues --  -11.21060 -11.21041  -1.08486  -1.08376  -1.03610
 Alpha  occ. eigenvalues --   -1.03460  -0.96031  -0.95945  -0.87043  -0.86961
 Alpha  occ. eigenvalues --   -0.79766  -0.79469  -0.78370  -0.78109  -0.65110
 Alpha  occ. eigenvalues --   -0.65026  -0.61030  -0.60887  -0.59446  -0.59246
 Alpha  occ. eigenvalues --   -0.57669  -0.57516  -0.55327  -0.55221  -0.52727
 Alpha  occ. eigenvalues --   -0.52636  -0.52451  -0.52371  -0.49970  -0.49890
 Alpha  occ. eigenvalues --   -0.48191  -0.47749  -0.46677  -0.46599  -0.46003
 Alpha  occ. eigenvalues --   -0.45754  -0.45704  -0.45325  -0.43823  -0.43737
 Alpha virt. eigenvalues --    0.20756   0.23010   0.23707   0.24642   0.25718
 Alpha virt. eigenvalues --    0.26490   0.26758   0.27660   0.28386   0.29134
 Alpha virt. eigenvalues --    0.31013   0.31406   0.31556   0.31801   0.32403

 Mulliken charges:
               1
     1  C   -0.297506
     2  C   -0.310695
     3  C   -0.475773
     4  H    0.149205
     5  H    0.148608
     6  H    0.150955
     7  H    0.166019
     8  H    0.154591
     9  H    0.155092
    10  H    0.159212
    11  C   -0.298486
    12  C   -0.299549
    13  C   -0.475694
    14  H    0.149497
    15  H    0.149123
    16  H    0.152009
    17  H    0.151826
    18  H    0.155070
    19  H    0.155111
    20  H    0.160214
    21  C   -0.296868
    22  C   -0.306330
    23  C   -0.476621
    24  H    0.149635
    25  H    0.149656
    26  H    0.152837
    27  H    0.157268
    28  H    0.155866
    29  H    0.155620
    30  H    0.159858
    31  C   -0.298486
    32  C   -0.299685
    33  C   -0.475726
    34  H    0.149767
    35  H    0.149569
    36  H    0.151995
    37  H    0.151986
    38  H    0.155221
    39  H    0.155274
    40  H    0.160334
 Sum of Mulliken charges =  -0.00000

 Dipole moment (field-independent basis, Debye):
    X=              0.0544    Y=             -0.0218    Z=              0.0016  Tot=              0.0586
 Quadrupole moment (field-independent basis, Debye-Ang):
   XX=            -85.1612   YY=            -84.7963   ZZ=            -84.9611
   XY=             -0.7483   XZ=              0.5689   YZ=             -0.0149

 Normal termination of Gaussian 16 at Wed May  5 19:51:13 2021.
