 Gaussian 16, Revision A.03,
 Gaussian 16:  EM64L-G16RevA.03 25-Dec-2016

 -------------
 #p 6-31g* mp2
 -------------

 ------------------------------------------------------
 Input file generated by CHIRIPA (05-May-2021 14:53:16)
 ------------------------------------------------------
 Symbolic Z-matrix:
 Charge =  0 Multiplicity = 1

                         Standard orientation:
 ---------------------------------------------------------------------
 Center     Atomic      Atomic             Coordinates (Angstroms)
 Number     Number       Type             X           Y           Z
 ---------------------------------------------------------------------
      1          6           0       -4.519444   -0.126022   -0.465469
      2          6           0       -5.437004   -0.450542    0.713834
      3          6           0       -6.879518   -0.719242    0.284010
      4          1           0       -4.913908    0.749858   -0.998550
      5          1           0       -4.540918   -0.961749   -1.178557
      6          1           0       -5.412733    0.384951    1.425155
      7          1           0       -5.040204   -1.325636    1.244284
      8          1           0       -6.923803   -1.566255   -0.408239
      9          1           0       -7.298448    0.154051   -0.226340
     10          1           0       -7.518081   -0.949097    1.142650
     11          6           0       -3.074061    0.145009   -0.051779
     12          6           0       -2.156500    0.469528   -1.231082
     13          6           0       -0.713987    0.738228   -0.801257
     14          1           0       -3.052586    0.980735    0.661309
     15          1           0       -2.679596   -0.730872    0.481302
     16          1           0       -2.553300    1.344622   -1.761531
     17          1           0       -2.180772   -0.365965   -1.942403
     18          1           0       -0.295056   -0.135065   -0.290907
     19          1           0       -0.669701    1.585241   -0.109008
     20          1           0       -0.075423    0.968083   -1.659898
     21          6           0        2.208472    2.364348    0.610079
     22          6           0        1.971726    1.378308    1.573509
     23          6           0        2.387150    0.060898    1.358095
     24          6           0        3.039468   -0.236710    0.162604
     25          6           0        3.289954    0.723439   -0.816509
     26          6           0        2.865671    2.034348   -0.579758
     27          1           0        1.882321    3.385218    0.785704
     28          1           0        1.461565    1.631706    2.498479
     29          1           0        2.216759   -0.722108    2.086988
     30          1           0        3.800911    0.440454   -1.728792
     31          1           0        3.050882    2.798060   -1.329748
     32          7           0        3.483947   -1.627951   -0.076741
     33          8           0        4.056612   -1.864491   -1.138221
     34          8           0        3.251249   -2.455523    0.801675
 ---------------------------------------------------------------------

 SCF Done:  E(RHF) =  -669.533951932     A.U. after   15 cycles
 E2 =    -0.2093589153D+01 EUMP2 =    -0.67162754108512D+03

 The electronic state is 1-A.
 Alpha  occ. eigenvalues --  -20.60760 -20.60755 -15.85814 -11.31160 -11.27735
 Alpha  occ. eigenvalues --  -11.27719 -11.27466 -11.26750 -11.26726 -11.21725
 Alpha  occ. eigenvalues --  -11.21682 -11.21552 -11.21481 -11.21168 -11.21099
 Alpha  occ. eigenvalues --   -1.59837  -1.39391  -1.19343  -1.08746  -1.08553
 Alpha  occ. eigenvalues --   -1.04748  -1.03637  -0.96090  -0.95579  -0.87111
 Alpha  occ. eigenvalues --   -0.86149  -0.82412  -0.79712  -0.78380  -0.77458
 Alpha  occ. eigenvalues --   -0.72034  -0.71161  -0.70463  -0.65190  -0.64998
 Alpha  occ. eigenvalues --   -0.64757  -0.62098  -0.61042  -0.59471  -0.57725
 Alpha  occ. eigenvalues --   -0.55394  -0.55255  -0.53657  -0.52845  -0.52656
 Alpha  occ. eigenvalues --   -0.52063  -0.50054  -0.48791  -0.48788  -0.48002
 Alpha  occ. eigenvalues --   -0.46758  -0.45905  -0.45851  -0.44800  -0.43890
 Alpha  occ. eigenvalues --   -0.37232  -0.36280
 Alpha virt. eigenvalues --    0.05053   0.11232   0.16510   0.21308   0.22745
 Alpha virt. eigenvalues --    0.24179   0.26498   0.27129   0.27494   0.27727
 Alpha virt. eigenvalues --    0.28341   0.30880   0.31284   0.31775   0.31829

 Mulliken charges:
               1
     1  C   -0.298191
     2  C   -0.299688
     3  C   -0.475769
     4  H    0.148974
     5  H    0.151226
     6  H    0.150359
     7  H    0.152751
     8  H    0.156188
     9  H    0.154817
    10  H    0.160409
    11  C   -0.297930
    12  C   -0.301328
    13  C   -0.471209
    14  H    0.145494
    15  H    0.150688
    16  H    0.149341
    17  H    0.153860
    18  H    0.157382
    19  H    0.147532
    20  H    0.158943
    21  C   -0.168612
    22  C   -0.213975
    23  C   -0.172661
    24  C    0.160956
    25  C   -0.171266
    26  C   -0.216673
    27  H    0.225143
    28  H    0.223174
    29  H    0.275215
    30  H    0.275361
    31  H    0.223177
    32  N    0.487758
    33  O   -0.460538
    34  O   -0.460908
 Sum of Mulliken charges =  -0.00000

 Dipole moment (field-independent basis, Debye):
    X=             -1.5037    Y=              4.9003    Z=              0.8514  Tot=              5.1961
 Quadrupole moment (field-independent basis, Debye-Ang):
   XX=           -105.6104   YY=            -96.3891   ZZ=            -90.7572
   XY=             15.7780   XZ=              0.2289   YZ=             -0.6573

 Normal termination of Gaussian 16 at Thu May  6 02:46:54 2021.
