 Gaussian 16, Revision A.03,
 Gaussian 16:  EM64L-G16RevA.03 25-Dec-2016

 -------------
 #p 6-31g* mp2
 -------------

 ------------------------------------------------------
 Input file generated by CHIRIPA (05-May-2021 14:57:24)
 ------------------------------------------------------
 Symbolic Z-matrix:
 Charge =  0 Multiplicity = 1

                         Standard orientation:
 ---------------------------------------------------------------------
 Center     Atomic      Atomic             Coordinates (Angstroms)
 Number     Number       Type             X           Y           Z
 ---------------------------------------------------------------------
      1          6           0       -5.514968    1.235872   -1.493253
      2          6           0       -5.785715   -0.116216   -1.258573
      3          6           0       -4.958137   -0.871281   -0.422189
      4          6           0       -3.863473   -0.239396    0.165794
      5          6           0       -3.567400    1.105863   -0.048465
      6          6           0       -4.408624    1.841529   -0.888516
      7          1           0       -6.163151    1.814890   -2.144401
      8          1           0       -6.644212   -0.589208   -1.726875
      9          1           0       -5.144516   -1.919662   -0.223250
     10          1           0       -2.704188    1.549635    0.432523
     11          1           0       -4.195924    2.891406   -1.068963
     12          7           0       -2.980130   -1.028481    1.053178
     13          8           0       -2.021994   -0.448379    1.559236
     14          8           0       -3.262627   -2.212127    1.225849
     15          6           0        2.067042    0.943390    1.358450
     16          6           0        3.313062    1.571996    1.452319
     17          6           0        4.396112    1.118386    0.693513
     18          6           0        4.196806    0.028713   -0.152762
     19          6           0        2.967639   -0.618662   -0.268281
     20          6           0        1.898605   -0.148008    0.499963
     21          1           0        1.231147    1.302385    1.951575
     22          1           0        3.446785    2.419801    2.118194
     23          1           0        5.371569    1.586431    0.746776
     24          1           0        2.865025   -1.461569   -0.940884
     25          1           0        0.932064   -0.638141    0.425029
     26          7           0        5.335964   -0.460525   -0.961072
     27          8           0        5.134467   -1.422408   -1.699189
     28          8           0        6.408763    0.127158   -0.841203
 ---------------------------------------------------------------------

 SCF Done:  E(RHF) =  -868.340053346     A.U. after   16 cycles
 E2 =    -0.2598368685D+01 EUMP2 =    -0.87093842203073D+03

 The electronic state is 1-A.
 Alpha  occ. eigenvalues --  -20.61881 -20.61801 -20.60253 -20.60246 -15.86868
 Alpha  occ. eigenvalues --  -15.85298 -11.31968 -11.30521 -11.28537 -11.28474
 Alpha  occ. eigenvalues --  -11.28174 -11.27459 -11.27427 -11.27097 -11.27008
 Alpha  occ. eigenvalues --  -11.26680 -11.26084 -11.25854  -1.60899  -1.59331
 Alpha  occ. eigenvalues --   -1.40463  -1.38888  -1.20111  -1.18657  -1.09550
 Alpha  occ. eigenvalues --   -1.08060  -1.05474  -1.04029  -0.96431  -0.94928
 Alpha  occ. eigenvalues --   -0.86884  -0.85414  -0.83277  -0.81764  -0.78360
 Alpha  occ. eigenvalues --   -0.76845  -0.73098  -0.72202  -0.71518  -0.71212
 Alpha  occ. eigenvalues --   -0.70653  -0.69724  -0.65767  -0.65469  -0.64291
 Alpha  occ. eigenvalues --   -0.63980  -0.62829  -0.61365  -0.55971  -0.54475
 Alpha  occ. eigenvalues --   -0.53814  -0.53561  -0.52384  -0.52087  -0.49867
 Alpha  occ. eigenvalues --   -0.49812  -0.48284  -0.48261  -0.45915  -0.44326
 Alpha  occ. eigenvalues --   -0.38066  -0.37064  -0.36617  -0.35644
 Alpha virt. eigenvalues --    0.04128   0.05664   0.10594   0.12018   0.15658
 Alpha virt. eigenvalues --    0.17211   0.20666   0.22255   0.26610   0.27324
 Alpha virt. eigenvalues --    0.28294   0.29015   0.30560   0.31707   0.32212

 Mulliken charges:
               1
     1  C   -0.169689
     2  C   -0.218265
     3  C   -0.170259
     4  C    0.157829
     5  C   -0.170491
     6  C   -0.218018
     7  H    0.228525
     8  H    0.226291
     9  H    0.277221
    10  H    0.271133
    11  H    0.225336
    12  N    0.489240
    13  O   -0.471926
    14  O   -0.453784
    15  C   -0.173729
    16  C   -0.219240
    17  C   -0.172724
    18  C    0.158179
    19  C   -0.172863
    20  C   -0.223718
    21  H    0.231101
    22  H    0.220263
    23  H    0.272816
    24  H    0.274082
    25  H    0.239047
    26  N    0.488126
    27  O   -0.461748
    28  O   -0.462733
 Sum of Mulliken charges =  -0.00000

 Dipole moment (field-independent basis, Debye):
    X=             -7.6917    Y=              4.4328    Z=             -0.3153  Tot=              8.8833
 Quadrupole moment (field-independent basis, Debye-Ang):
   XX=           -111.8115   YY=           -100.7121   ZZ=           -107.2281
   XY=              1.9666   XZ=             26.7067   YZ=              3.1594

 Normal termination of Gaussian 16 at Thu May  6 22:44:56 2021.
