 Gaussian 16, Revision A.03,
 Gaussian 16:  EM64L-G16RevA.03 25-Dec-2016

 -------------
 #p 6-31g* mp2
 -------------

 ------------------------------------------------------
 Input file generated by CHIRIPA (05-May-2021 14:51:10)
 ------------------------------------------------------
 Symbolic Z-matrix:
 Charge =  0 Multiplicity = 1

                         Standard orientation:
 ---------------------------------------------------------------------
 Center     Atomic      Atomic             Coordinates (Angstroms)
 Number     Number       Type             X           Y           Z
 ---------------------------------------------------------------------
      1          6           0       -3.106971   -0.515385    0.389736
      2          6           0       -2.911012   -1.746848   -0.495183
      3          6           0       -2.426762   -2.967053    0.288651
      4          1           0       -2.159083   -0.277927    0.891800
      5          1           0       -3.829546   -0.753449    1.182583
      6          1           0       -2.190065   -1.506104   -1.286950
      7          1           0       -3.859427   -1.981287   -0.995347
      8          1           0       -3.147373   -3.235078    1.068064
      9          1           0       -1.468526   -2.757195    0.774804
     10          1           0       -2.293313   -3.835958   -0.363311
     11          6           0       -3.590873    0.712572   -0.379477
     12          6           0       -3.786832    1.944035    0.505443
     13          6           0       -4.271082    3.164240   -0.278392
     14          1           0       -2.868298    0.950636   -1.172323
     15          1           0       -4.538761    0.475114   -0.881541
     16          1           0       -2.838417    2.178474    1.005606
     17          1           0       -4.507779    1.703291    1.297209
     18          1           0       -5.229318    2.954382   -0.764545
     19          1           0       -3.550471    3.432265   -1.057804
     20          1           0       -4.404531    4.033145    0.373570
     21          6           0        2.919509   -0.634878    0.328691
     22          6           0        2.707387   -1.872119   -0.544363
     23          6           0        1.846349   -2.936015    0.137202
     24          1           0        3.388812   -0.937616    1.274761
     25          1           0        1.941789   -0.205709    0.588059
     26          1           0        3.685265   -2.298026   -0.803154
     27          1           0        2.238709   -1.566374   -1.488545
     28          1           0        0.857757   -2.533551    0.380738
     29          1           0        2.312532   -3.269359    1.070023
     30          1           0        1.707484   -3.811688   -0.504495
     31          6           0        3.778335    0.437691   -0.338950
     32          6           0        3.990457    1.674932    0.534104
     33          6           0        4.851496    2.738829   -0.147461
     34          1           0        4.756056    0.008522   -0.598320
     35          1           0        3.309032    0.740428   -1.285020
     36          1           0        4.459135    1.369188    1.478285
     37          1           0        3.012579    2.100839    0.792894
     38          1           0        4.385312    3.072172   -1.080283
     39          1           0        5.840087    2.336364   -0.390998
     40          1           0        4.990360    3.614501    0.494235
 ---------------------------------------------------------------------

 SCF Done:  E(RHF) =  -470.733230328     A.U. after   11 cycles
 E2 =    -0.1582469710D+01 EUMP2 =    -0.47231570003815D+03

 The electronic state is 1-A.
 Alpha  occ. eigenvalues --  -11.21630 -11.21626 -11.21623 -11.21615 -11.21439
 Alpha  occ. eigenvalues --  -11.21433 -11.21380 -11.21374 -11.21093 -11.21092
 Alpha  occ. eigenvalues --  -11.21064 -11.21040  -1.08463  -1.08450  -1.03568
 Alpha  occ. eigenvalues --   -1.03530  -0.96033  -0.95962  -0.87064  -0.86963
 Alpha  occ. eigenvalues --   -0.79657  -0.79566  -0.78283  -0.78256  -0.65142
 Alpha  occ. eigenvalues --   -0.65042  -0.61099  -0.60817  -0.59382  -0.59344
 Alpha  occ. eigenvalues --   -0.57661  -0.57562  -0.55516  -0.55083  -0.52718
 Alpha  occ. eigenvalues --   -0.52655  -0.52514  -0.52332  -0.50159  -0.49719
 Alpha  occ. eigenvalues --   -0.48012  -0.47842  -0.46770  -0.46502  -0.45862
 Alpha  occ. eigenvalues --   -0.45783  -0.45760  -0.45652  -0.43820  -0.43789
 Alpha virt. eigenvalues --    0.21102   0.23186   0.23566   0.25009   0.25997
 Alpha virt. eigenvalues --    0.26892   0.27156   0.27292   0.27961   0.28962
 Alpha virt. eigenvalues --    0.30220   0.31488   0.31712   0.31832   0.32145

 Mulliken charges:
               1
     1  C   -0.298161
     2  C   -0.300093
     3  C   -0.480172
     4  H    0.148649
     5  H    0.149882
     6  H    0.151658
     7  H    0.152163
     8  H    0.155201
     9  H    0.160113
    10  H    0.160629
    11  C   -0.298271
    12  C   -0.299645
    13  C   -0.475708
    14  H    0.149243
    15  H    0.149854
    16  H    0.151767
    17  H    0.152096
    18  H    0.155274
    19  H    0.155080
    20  H    0.160356
    21  C   -0.298181
    22  C   -0.299403
    23  C   -0.480983
    24  H    0.149900
    25  H    0.148553
    26  H    0.152067
    27  H    0.151663
    28  H    0.160285
    29  H    0.155255
    30  H    0.160746
    31  C   -0.298298
    32  C   -0.299642
    33  C   -0.475722
    34  H    0.149740
    35  H    0.149541
    36  H    0.152069
    37  H    0.151704
    38  H    0.155160
    39  H    0.155281
    40  H    0.160353
 Sum of Mulliken charges =  -0.00000

 Dipole moment (field-independent basis, Debye):
    X=              0.0004    Y=             -0.0147    Z=              0.0031  Tot=              0.0150
 Quadrupole moment (field-independent basis, Debye-Ang):
   XX=            -83.5393   YY=            -86.1638   ZZ=            -84.9258
   XY=             -0.2765   XZ=              0.2449   YZ=              0.4975

 Normal termination of Gaussian 16 at Wed May  5 23:02:11 2021.
