 Gaussian 16, Revision A.03,
 Gaussian 16:  EM64L-G16RevA.03 25-Dec-2016

 -------------
 #p 6-31g* mp2
 -------------

 ------------------------------------------------------
 Input file generated by CHIRIPA (05-May-2021 14:53:17)
 ------------------------------------------------------
 Symbolic Z-matrix:
 Charge =  0 Multiplicity = 1

                         Standard orientation:
 ---------------------------------------------------------------------
 Center     Atomic      Atomic             Coordinates (Angstroms)
 Number     Number       Type             X           Y           Z
 ---------------------------------------------------------------------
      1          6           0        3.597854   -0.627054    0.024578
      2          6           0        2.807148   -1.110350    1.240799
      3          6           0        1.390262   -1.560717    0.883873
      4          1           0        3.056655    0.202545   -0.450621
      5          1           0        3.645238   -1.435484   -0.718113
      6          1           0        2.762452   -0.301712    1.981559
      7          1           0        3.350387   -1.938769    1.713270
      8          1           0        1.417898   -2.384089    0.162834
      9          1           0        0.826623   -0.737731    0.432647
     10          1           0        0.842867   -1.902198    1.767960
     11          6           0        5.016265   -0.173489    0.365335
     12          6           0        5.806971    0.309807   -0.850886
     13          6           0        7.223857    0.760175   -0.493960
     14          1           0        4.968882    0.634942    1.108026
     15          1           0        5.557464   -1.003088    0.840534
     16          1           0        5.263732    1.138226   -1.323357
     17          1           0        5.851667   -0.498830   -1.591646
     18          1           0        7.787496   -0.062812   -0.042734
     19          1           0        7.196221    1.583546    0.227079
     20          1           0        7.771252    1.101655   -1.378047
     21          6           0       -1.163676    1.545220   -0.113575
     22          6           0       -2.228856    1.989787    0.676534
     23          6           0       -3.453020    1.314666    0.663007
     24          6           0       -3.577696    0.193557   -0.156054
     25          6           0       -2.535057   -0.273946   -0.954575
     26          6           0       -1.319900    0.416762   -0.925177
     27          1           0       -0.216214    2.075724   -0.096904
     28          1           0       -2.110394    2.865866    1.307800
     29          1           0       -4.294082    1.637154    1.264698
     30          1           0       -2.683332   -1.150386   -1.573675
     31          1           0       -0.494390    0.069234   -1.539833
     32          7           0       -4.868895   -0.529413   -0.178775
     33          8           0       -4.953249   -1.514476   -0.908962
     34          8           0       -5.772135   -0.097325    0.534032
 ---------------------------------------------------------------------

 SCF Done:  E(RHF) =  -669.534629313     A.U. after   15 cycles
 E2 =    -0.2092257764D+01 EUMP2 =    -0.67162688707694D+03

 The electronic state is 1-A.
 Alpha  occ. eigenvalues --  -20.60774 -20.60768 -15.85827 -11.31212 -11.27773
 Alpha  occ. eigenvalues --  -11.27760 -11.27530 -11.26804 -11.26779 -11.22215
 Alpha  occ. eigenvalues --  -11.22157 -11.22116 -11.21970 -11.21592 -11.21536
 Alpha  occ. eigenvalues --   -1.59848  -1.39401  -1.19388  -1.09060  -1.08786
 Alpha  occ. eigenvalues --   -1.04795  -1.04104  -0.96557  -0.95613  -0.87578
 Alpha  occ. eigenvalues --   -0.86193  -0.82441  -0.80173  -0.78885  -0.77482
 Alpha  occ. eigenvalues --   -0.72046  -0.71170  -0.70499  -0.65708  -0.65042
 Alpha  occ. eigenvalues --   -0.64811  -0.62161  -0.61493  -0.59914  -0.58172
 Alpha  occ. eigenvalues --   -0.55890  -0.55300  -0.53351  -0.53181  -0.52937
 Alpha  occ. eigenvalues --   -0.52742  -0.50479  -0.48811  -0.48799  -0.48474
 Alpha  occ. eigenvalues --   -0.47212  -0.46422  -0.46350  -0.44802  -0.44368
 Alpha  occ. eigenvalues --   -0.37328  -0.36346
 Alpha virt. eigenvalues --    0.05034   0.11144   0.16504   0.20184   0.22562
 Alpha virt. eigenvalues --    0.23917   0.25675   0.26481   0.27143   0.28095
 Alpha virt. eigenvalues --    0.28807   0.30681   0.31082   0.31556   0.31826

 Mulliken charges:
               1
     1  C   -0.296926
     2  C   -0.299982
     3  C   -0.480815
     4  H    0.140059
     5  H    0.151016
     6  H    0.150853
     7  H    0.155014
     8  H    0.154331
     9  H    0.153751
    10  H    0.164898
    11  C   -0.298357
    12  C   -0.299751
    13  C   -0.475975
    14  H    0.149289
    15  H    0.152299
    16  H    0.149830
    17  H    0.152944
    18  H    0.156613
    19  H    0.155297
    20  H    0.161467
    21  C   -0.170502
    22  C   -0.218298
    23  C   -0.171012
    24  C    0.158589
    25  C   -0.171956
    26  C   -0.216850
    27  H    0.225509
    28  H    0.223545
    29  H    0.275711
    30  H    0.276037
    31  H    0.225824
    32  N    0.488055
    33  O   -0.460137
    34  O   -0.460371
 Sum of Mulliken charges =  -0.00000

 Dipole moment (field-independent basis, Debye):
    X=              4.5903    Y=              2.5089    Z=              0.1112  Tot=              5.2323
 Quadrupole moment (field-independent basis, Debye-Ang):
   XX=           -127.6990   YY=            -91.2372   ZZ=            -93.0248
   XY=            -10.5100   XZ=             -2.5225   YZ=              2.2238

 Normal termination of Gaussian 16 at Thu May  6 18:55:56 2021.
