 Gaussian 16, Revision A.03,
 Gaussian 16:  EM64L-G16RevA.03 25-Dec-2016

 -------------
 #p 6-31g* mp2
 -------------

 ------------------------------------------------------
 Input file generated by CHIRIPA (05-May-2021 14:55:22)
 ------------------------------------------------------
 Symbolic Z-matrix:
 Charge =  0 Multiplicity = 1

                         Standard orientation:
 ---------------------------------------------------------------------
 Center     Atomic      Atomic             Coordinates (Angstroms)
 Number     Number       Type             X           Y           Z
 ---------------------------------------------------------------------
      1          6           0       -1.479592   -2.099835    1.161471
      2          6           0       -0.940949   -1.534766    0.000832
      3          6           0       -1.593704   -0.480145   -0.644329
      4          6           0       -2.788620   -0.013199   -0.098960
      5          6           0       -3.350547   -0.555260    1.055898
      6          6           0       -2.680555   -1.609144    1.684377
      7          1           0       -0.965822   -2.918804    1.656168
      8          1           0       -0.008417   -1.913814   -0.407519
      9          1           0       -1.198997   -0.024217   -1.544193
     10          1           0       -4.281733   -0.156021    1.439199
     11          1           0       -3.101209   -2.046048    2.585604
     12          7           0       -3.488786    1.102891   -0.773134
     13          8           0       -4.540165    1.496216   -0.272600
     14          8           0       -2.972940    1.563224   -1.789319
     15          6           0        3.310424    0.766238    0.538483
     16          6           0        3.531676    2.208434    0.081202
     17          6           0        3.305249    3.224893    1.200727
     18          1           0        2.287867    0.664263    0.926971
     19          1           0        3.986482    0.546835    1.376458
     20          1           0        2.856375    2.424615   -0.756562
     21          1           0        4.553763    2.306941   -0.306419
     22          1           0        3.988568    3.037391    2.035304
     23          1           0        2.281536    3.155734    1.582604
     24          1           0        3.468762    4.249338    0.851964
     25          6           0        3.533029   -0.261548   -0.569592
     26          6           0        3.311777   -1.703744   -0.112311
     27          6           0        3.538204   -2.720203   -1.231835
     28          1           0        2.856971   -0.042145   -1.407566
     29          1           0        4.555586   -0.159572   -0.958080
     30          1           0        2.289690   -1.802251    0.275311
     31          1           0        3.987077   -1.919925    0.725454
     32          1           0        4.561917   -2.651044   -1.613713
     33          1           0        2.854885   -2.532701   -2.066413
     34          1           0        3.374691   -3.744648   -0.883072
 ---------------------------------------------------------------------

 SCF Done:  E(RHF) =  -669.535572360     A.U. after   15 cycles
 E2 =    -0.2091492764D+01 EUMP2 =    -0.67162706512415D+03

 The electronic state is 1-A.
 Alpha  occ. eigenvalues --  -20.60795 -20.60790 -15.85849 -11.31223 -11.27799
 Alpha  occ. eigenvalues --  -11.27794 -11.27536 -11.26804 -11.26785 -11.22491
 Alpha  occ. eigenvalues --  -11.22035 -11.21924 -11.21886 -11.21812 -11.21236
 Alpha  occ. eigenvalues --   -1.59870  -1.39423  -1.19398  -1.09009  -1.08788
 Alpha  occ. eigenvalues --   -1.04803  -1.04085  -0.96514  -0.95622  -0.87530
 Alpha  occ. eigenvalues --   -0.86201  -0.82455  -0.80176  -0.78776  -0.77502
 Alpha  occ. eigenvalues --   -0.72067  -0.71194  -0.70502  -0.65731  -0.65049
 Alpha  occ. eigenvalues --   -0.64769  -0.62201  -0.61427  -0.59909  -0.58113
 Alpha  occ. eigenvalues --   -0.55804  -0.55295  -0.53219  -0.53125  -0.52959
 Alpha  occ. eigenvalues --   -0.52865  -0.50461  -0.48834  -0.48821  -0.48460
 Alpha  occ. eigenvalues --   -0.47222  -0.46313  -0.46220  -0.44827  -0.44325
 Alpha  occ. eigenvalues --   -0.37372  -0.36399
 Alpha virt. eigenvalues --    0.05032   0.11152   0.16472   0.19259   0.22910
 Alpha virt. eigenvalues --    0.23670   0.25751   0.26508   0.27373   0.28394
 Alpha virt. eigenvalues --    0.28707   0.30297   0.31092   0.31450   0.31983

 Mulliken charges:
               1
     1  C   -0.172051
     2  C   -0.223215
     3  C   -0.172337
     4  C    0.158664
     5  C   -0.170844
     6  C   -0.218507
     7  H    0.226109
     8  H    0.231085
     9  H    0.275512
    10  H    0.275796
    11  H    0.223656
    12  N    0.488061
    13  O   -0.460270
    14  O   -0.460469
    15  C   -0.299662
    16  C   -0.300377
    17  C   -0.476184
    18  H    0.150156
    19  H    0.150093
    20  H    0.154238
    21  H    0.152518
    22  H    0.154545
    23  H    0.156857
    24  H    0.162715
    25  C   -0.298124
    26  C   -0.303993
    27  C   -0.477209
    28  H    0.147428
    29  H    0.153312
    30  H    0.142688
    31  H    0.156080
    32  H    0.160732
    33  H    0.153195
    34  H    0.159802
 Sum of Mulliken charges =  -0.00000

 Dipole moment (field-independent basis, Debye):
    X=              2.5784    Y=             -3.8619    Z=              2.3928  Tot=              5.2238
 Quadrupole moment (field-independent basis, Debye-Ang):
   XX=           -104.6970   YY=            -95.9408   ZZ=            -93.6206
   XY=             11.2626   XZ=             -9.5966   YZ=             -0.4534

 Normal termination of Gaussian 16 at Thu May  6 12:33:00 2021.
