 Gaussian 16, Revision A.03,
 Gaussian 16:  EM64L-G16RevA.03 25-Dec-2016

 -------------
 #p 6-31g* mp2
 -------------

 ------------------------------------------------------
 Input file generated by CHIRIPA (05-May-2021 14:51:14)
 ------------------------------------------------------
 Symbolic Z-matrix:
 Charge =  0 Multiplicity = 1

                         Standard orientation:
 ---------------------------------------------------------------------
 Center     Atomic      Atomic             Coordinates (Angstroms)
 Number     Number       Type             X           Y           Z
 ---------------------------------------------------------------------
      1          6           0       -2.317563   -0.451721   -0.124528
      2          6           0       -2.576914   -1.343978   -1.338859
      3          6           0       -2.100474   -2.781554   -1.128684
      4          1           0       -1.242383   -0.453887    0.101146
      5          1           0       -2.821789   -0.881645    0.752009
      6          1           0       -2.073496   -0.911759   -2.213144
      7          1           0       -3.651577   -1.339536   -1.561785
      8          1           0       -2.611428   -3.235594   -0.273480
      9          1           0       -1.024381   -2.805386   -0.928539
     10          1           0       -2.295647   -3.401929   -2.008969
     11          6           0       -2.788374    0.988455   -0.319356
     12          6           0       -2.529022    1.880711    0.894975
     13          6           0       -3.005463    3.318287    0.684800
     14          1           0       -2.284148    1.418378   -1.195893
     15          1           0       -3.863554    0.990620   -0.545030
     16          1           0       -1.454360    1.876270    1.117901
     17          1           0       -3.032440    1.448492    1.769259
     18          1           0       -4.081556    3.342119    0.484655
     19          1           0       -2.494508    3.772327   -0.170404
     20          1           0       -2.810290    3.938663    1.565085
     21          6           0        2.139666   -0.581441    0.782831
     22          6           0        1.743010   -2.032077    0.506595
     23          6           0        0.916539   -2.644598    1.637770
     24          1           0        2.709299   -0.536069    1.721131
     25          1           0        1.231087    0.016322    0.939544
     26          1           0        2.652013   -2.626649    0.349081
     27          1           0        1.174419   -2.074027   -0.431255
     28          1           0       -0.006438   -2.076295    1.791862
     29          1           0        1.479552   -2.632057    2.576631
     30          1           0        0.643860   -3.681844    1.419534
     31          6           0        2.966271    0.044708   -0.338948
     32          6           0        3.362927    1.495343   -0.062710
     33          6           0        4.189398    2.107865   -1.193886
     34          1           0        3.874850   -0.553055   -0.495661
     35          1           0        2.396638   -0.000665   -1.277246
     36          1           0        3.931518    1.537294    0.875138
     37          1           0        2.453923    2.089917    0.094804
     38          1           0        3.626385    2.095324   -2.132747
     39          1           0        5.112374    1.539561   -1.347979
     40          1           0        4.462076    3.145111   -0.975650
 ---------------------------------------------------------------------

 SCF Done:  E(RHF) =  -470.732698000     A.U. after   11 cycles
 E2 =    -0.1584796679D+01 EUMP2 =    -0.47231749467958D+03

 The electronic state is 1-A.
 Alpha  occ. eigenvalues --  -11.21662 -11.21649 -11.21637 -11.21635 -11.21459
 Alpha  occ. eigenvalues --  -11.21458 -11.21400 -11.21399 -11.21112 -11.21108
 Alpha  occ. eigenvalues --  -11.21032 -11.21016  -1.08525  -1.08441  -1.03620
 Alpha  occ. eigenvalues --   -1.03512  -0.96045  -0.95974  -0.87041  -0.87008
 Alpha  occ. eigenvalues --   -0.79639  -0.79623  -0.78355  -0.78254  -0.65404
 Alpha  occ. eigenvalues --   -0.64867  -0.61232  -0.60730  -0.59405  -0.59349
 Alpha  occ. eigenvalues --   -0.57732  -0.57517  -0.55429  -0.55169  -0.52716
 Alpha  occ. eigenvalues --   -0.52694  -0.52484  -0.52357  -0.49988  -0.49940
 Alpha  occ. eigenvalues --   -0.48049  -0.47852  -0.46790  -0.46541  -0.46153
 Alpha  occ. eigenvalues --   -0.45782  -0.45738  -0.45389  -0.43826  -0.43815
 Alpha virt. eigenvalues --    0.19497   0.22610   0.23734   0.24377   0.25711
 Alpha virt. eigenvalues --    0.26248   0.26717   0.27748   0.28777   0.30182
 Alpha virt. eigenvalues --    0.30354   0.30970   0.31524   0.31807   0.32180

 Mulliken charges:
               1
     1  C   -0.306933
     2  C   -0.299052
     3  C   -0.483602
     4  H    0.157485
     5  H    0.149857
     6  H    0.151151
     7  H    0.152215
     8  H    0.155524
     9  H    0.164068
    10  H    0.159952
    11  C   -0.297797
    12  C   -0.300798
    13  C   -0.475721
    14  H    0.149243
    15  H    0.150139
    16  H    0.151845
    17  H    0.152316
    18  H    0.155462
    19  H    0.155183
    20  H    0.160552
    21  C   -0.302364
    22  C   -0.305529
    23  C   -0.479285
    24  H    0.150482
    25  H    0.151898
    26  H    0.152899
    27  H    0.154816
    28  H    0.159790
    29  H    0.155042
    30  H    0.160859
    31  C   -0.298212
    32  C   -0.299661
    33  C   -0.475730
    34  H    0.149993
    35  H    0.149236
    36  H    0.152253
    37  H    0.151503
    38  H    0.155099
    39  H    0.155370
    40  H    0.160454
 Sum of Mulliken charges =  -0.00000

 Dipole moment (field-independent basis, Debye):
    X=              0.0007    Y=             -0.0045    Z=              0.0157  Tot=              0.0163
 Quadrupole moment (field-independent basis, Debye-Ang):
   XX=            -83.5670   YY=            -86.0961   ZZ=            -84.9847
   XY=             -0.1039   XZ=              0.4515   YZ=              0.1635

 Normal termination of Gaussian 16 at Wed May  5 23:15:48 2021.
