 Gaussian 16, Revision A.03,
 Gaussian 16:  EM64L-G16RevA.03 25-Dec-2016

 -------------
 #p 6-31g* mp2
 -------------

 ------------------------------------------------------
 Input file generated by CHIRIPA (05-May-2021 14:55:23)
 ------------------------------------------------------
 Symbolic Z-matrix:
 Charge =  0 Multiplicity = 1

                         Standard orientation:
 ---------------------------------------------------------------------
 Center     Atomic      Atomic             Coordinates (Angstroms)
 Number     Number       Type             X           Y           Z
 ---------------------------------------------------------------------
      1          6           0        0.591612   -2.681899    0.831009
      2          6           0        0.737297   -1.577373    1.676776
      3          6           0        1.498107   -0.473978    1.278988
      4          6           0        2.102087   -0.508877    0.023090
      5          6           0        1.975668   -1.594555   -0.842133
      6          6           0        1.210172   -2.686956   -0.423534
      7          1           0       -0.001223   -3.534772    1.148104
      8          1           0        0.258053   -1.570684    2.651622
      9          1           0        1.627418    0.394158    1.913841
     10          1           0        2.465395   -1.572121   -1.808095
     11          1           0        1.098764   -3.543377   -1.082454
     12          7           0        2.910003    0.653418   -0.409046
     13          8           0        3.431985    0.598101   -1.520401
     14          8           0        3.005968    1.597733    0.371785
     15          6           0       -3.215283    0.585561   -0.060568
     16          6           0       -3.289117   -0.843101   -0.600435
     17          6           0       -4.685965   -1.451709   -0.473125
     18          1           0       -3.523431    0.588654    0.993937
     19          1           0       -3.939605    1.211725   -0.599708
     20          1           0       -2.563895   -1.466075   -0.061387
     21          1           0       -2.980574   -0.842823   -1.653724
     22          1           0       -5.418271   -0.854399   -1.025891
     23          1           0       -4.999225   -1.481192    0.575493
     24          1           0       -4.716082   -2.473155   -0.865044
     25          6           0       -1.825185    1.207560   -0.180870
     26          6           0       -1.751351    2.636223    0.358998
     27          6           0       -0.354503    3.244830    0.231687
     28          1           0       -1.100864    0.581396    0.358271
     29          1           0       -1.517037    1.204467   -1.235375
     30          1           0       -2.059894    2.635945    1.412286
     31          1           0       -2.476573    3.259195   -0.180051
     32          1           0       -0.041244    3.274314   -0.816931
     33          1           0        0.377803    2.647520    0.784453
     34          1           0       -0.324386    4.266275    0.623608
 ---------------------------------------------------------------------

 SCF Done:  E(RHF) =  -669.535329823     A.U. after   15 cycles
 E2 =    -0.2094799793D+01 EUMP2 =    -0.67163012961621D+03

 The electronic state is 1-A.
 Alpha  occ. eigenvalues --  -20.60913 -20.60896 -15.85931 -11.31314 -11.27891
 Alpha  occ. eigenvalues --  -11.27872 -11.27643 -11.26922 -11.26897 -11.21815
 Alpha  occ. eigenvalues --  -11.21458 -11.21362 -11.21339 -11.21195 -11.20456
 Alpha  occ. eigenvalues --   -1.59961  -1.39519  -1.19499  -1.08885  -1.08410
 Alpha  occ. eigenvalues --   -1.04909  -1.03470  -0.95890  -0.95719  -0.86898
 Alpha  occ. eigenvalues --   -0.86300  -0.82552  -0.79546  -0.78215  -0.77591
 Alpha  occ. eigenvalues --   -0.72161  -0.71272  -0.70605  -0.65154  -0.65076
 Alpha  occ. eigenvalues --   -0.64900  -0.62259  -0.60876  -0.59311  -0.57503
 Alpha  occ. eigenvalues --   -0.55404  -0.55195  -0.53307  -0.52995  -0.52568
 Alpha  occ. eigenvalues --   -0.52269  -0.49856  -0.48917  -0.48913  -0.47858
 Alpha  occ. eigenvalues --   -0.46620  -0.45746  -0.45681  -0.44759  -0.43711
 Alpha  occ. eigenvalues --   -0.37450  -0.36425
 Alpha virt. eigenvalues --    0.04880   0.11058   0.16328   0.20940   0.22950
 Alpha virt. eigenvalues --    0.24089   0.26355   0.27070   0.27326   0.27739
 Alpha virt. eigenvalues --    0.28457   0.30569   0.31392   0.31708   0.31995

 Mulliken charges:
               1
     1  C   -0.169785
     2  C   -0.218290
     3  C   -0.174510
     4  C    0.163570
     5  C   -0.170556
     6  C   -0.217447
     7  H    0.226688
     8  H    0.224444
     9  H    0.276294
    10  H    0.276088
    11  H    0.224364
    12  N    0.488523
    13  O   -0.459250
    14  O   -0.458788
    15  C   -0.297072
    16  C   -0.300010
    17  C   -0.475486
    18  H    0.146338
    19  H    0.150505
    20  H    0.147200
    21  H    0.152482
    22  H    0.157195
    23  H    0.153624
    24  H    0.157588
    25  C   -0.305365
    26  C   -0.300357
    27  C   -0.480040
    28  H    0.153206
    29  H    0.149949
    30  H    0.146850
    31  H    0.151051
    32  H    0.158432
    33  H    0.162384
    34  H    0.160182
 Sum of Mulliken charges =  -0.00000

 Dipole moment (field-independent basis, Debye):
    X=             -2.5972    Y=             -4.1134    Z=              1.4760  Tot=              5.0837
 Quadrupole moment (field-independent basis, Debye-Ang):
   XX=           -108.5253   YY=            -90.1117   ZZ=            -90.2011
   XY=             -8.2805   XZ=              2.4824   YZ=              0.9679

 Normal termination of Gaussian 16 at Thu May  6 15:57:19 2021.
