 Gaussian 16, Revision A.03,
 Gaussian 16:  EM64L-G16RevA.03 25-Dec-2016

 -------------
 #p 6-31g* mp2
 -------------

 ------------------------------------------------------
 Input file generated by CHIRIPA (05-May-2021 14:51:08)
 ------------------------------------------------------
 Symbolic Z-matrix:
 Charge =  0 Multiplicity = 1

                         Standard orientation:
 ---------------------------------------------------------------------
 Center     Atomic      Atomic             Coordinates (Angstroms)
 Number     Number       Type             X           Y           Z
 ---------------------------------------------------------------------
      1          6           0       -2.896809   -0.578587    0.198139
      2          6           0       -1.773351   -0.002606    1.060735
      3          6           0       -0.521823   -0.880930    1.065092
      4          1           0       -3.152961   -1.582538    0.563400
      5          1           0       -2.532119   -0.703943   -0.830784
      6          1           0       -2.140481    0.122920    2.087417
      7          1           0       -1.519976    1.000167    0.693498
      8          1           0       -0.128820   -0.996592    0.049822
      9          1           0       -0.752851   -1.878823    1.451662
     10          1           0        0.268578   -0.450464    1.687848
     11          6           0       -4.154656    0.288213    0.183718
     12          6           0       -5.278114   -0.287769   -0.678879
     13          6           0       -6.529642    0.590555   -0.683235
     14          1           0       -4.519346    0.413568    1.212640
     15          1           0       -3.898504    1.292163   -0.181543
     16          1           0       -5.531489   -1.290541   -0.311641
     17          1           0       -4.910984   -0.413294   -1.705561
     18          1           0       -6.298614    1.588448   -1.069805
     19          1           0       -6.922645    0.706217    0.332034
     20          1           0       -7.320043    0.160090   -1.305992
     21          6           0        3.768103    0.833388   -0.416909
     22          6           0        3.050813    1.988609    0.282338
     23          6           0        3.546647    3.358970   -0.180321
     24          1           0        4.848045    0.915519   -0.232720
     25          1           0        3.628154    0.927584   -1.502696
     26          1           0        3.190914    1.891490    1.366569
     27          1           0        1.972434    1.903611    0.096623
     28          1           0        3.391941    3.481191   -1.257229
     29          1           0        4.617344    3.469000    0.019933
     30          1           0        3.020501    4.170331    0.332245
     31          6           0        3.283361   -0.543014    0.035052
     32          6           0        4.000651   -1.698235   -0.664195
     33          6           0        3.504819   -3.068595   -0.201535
     34          1           0        3.423312   -0.637210    1.120840
     35          1           0        2.203420   -0.625145   -0.149137
     36          1           0        5.079031   -1.613236   -0.478479
     37          1           0        3.860552   -1.601114   -1.748426
     38          1           0        2.434122   -3.178626   -0.401789
     39          1           0        3.659524   -3.190816    0.875372
     40          1           0        4.030964   -3.879957   -0.714102
 ---------------------------------------------------------------------

 SCF Done:  E(RHF) =  -470.732748047     A.U. after   11 cycles
 E2 =    -0.1583220648D+01 EUMP2 =    -0.47231596869528D+03

 The electronic state is 1-A.
 Alpha  occ. eigenvalues --  -11.21623 -11.21619 -11.21582 -11.21525 -11.21429
 Alpha  occ. eigenvalues --  -11.21369 -11.21328 -11.21209 -11.21085 -11.21069
 Alpha  occ. eigenvalues --  -11.21060 -11.21001  -1.08456  -1.08363  -1.03553
 Alpha  occ. eigenvalues --   -1.03478  -0.96018  -0.95910  -0.87045  -0.86923
 Alpha  occ. eigenvalues --   -0.79659  -0.79517  -0.78289  -0.78142  -0.65136
 Alpha  occ. eigenvalues --   -0.64965  -0.60972  -0.60867  -0.59372  -0.59293
 Alpha  occ. eigenvalues --   -0.57619  -0.57527  -0.55396  -0.55133  -0.52770
 Alpha  occ. eigenvalues --   -0.52603  -0.52430  -0.52309  -0.50060  -0.49789
 Alpha  occ. eigenvalues --   -0.47968  -0.47834  -0.46759  -0.46531  -0.45874
 Alpha  occ. eigenvalues --   -0.45758  -0.45690  -0.45419  -0.43771  -0.43700
 Alpha virt. eigenvalues --    0.21399   0.23087   0.23916   0.24161   0.25950
 Alpha virt. eigenvalues --    0.26553   0.26867   0.27429   0.27966   0.29914
 Alpha virt. eigenvalues --    0.30261   0.31324   0.31641   0.31869   0.32221

 Mulliken charges:
               1
     1  C   -0.298578
     2  C   -0.300174
     3  C   -0.479088
     4  H    0.149832
     5  H    0.149306
     6  H    0.152210
     7  H    0.151785
     8  H    0.155327
     9  H    0.155365
    10  H    0.164507
    11  C   -0.298269
    12  C   -0.299658
    13  C   -0.475719
    14  H    0.149657
    15  H    0.149619
    16  H    0.152003
    17  H    0.151854
    18  H    0.155187
    19  H    0.155237
    20  H    0.160304
    21  C   -0.297627
    22  C   -0.300610
    23  C   -0.475610
    24  H    0.149239
    25  H    0.148758
    26  H    0.151546
    27  H    0.152509
    28  H    0.155007
    29  H    0.155283
    30  H    0.160053
    31  C   -0.306296
    32  C   -0.299259
    33  C   -0.475969
    34  H    0.148226
    35  H    0.160966
    36  H    0.151381
    37  H    0.151054
    38  H    0.155774
    39  H    0.155110
    40  H    0.159759
 Sum of Mulliken charges =  -0.00000

 Dipole moment (field-independent basis, Debye):
    X=             -0.0415    Y=             -0.0094    Z=              0.0228  Tot=              0.0483
 Quadrupole moment (field-independent basis, Debye-Ang):
   XX=            -85.4057   YY=            -86.0022   ZZ=            -83.6243
   XY=              0.4476   XZ=              0.2177   YZ=             -0.1557

 Normal termination of Gaussian 16 at Thu May  6 10:01:11 2021.
