 Gaussian 16, Revision A.03,
 Gaussian 16:  EM64L-G16RevA.03 25-Dec-2016

 -------------
 #p 6-31g* mp2
 -------------

 ------------------------------------------------------
 Input file generated by CHIRIPA (05-May-2021 14:53:13)
 ------------------------------------------------------
 Symbolic Z-matrix:
 Charge =  0 Multiplicity = 1

                         Standard orientation:
 ---------------------------------------------------------------------
 Center     Atomic      Atomic             Coordinates (Angstroms)
 Number     Number       Type             X           Y           Z
 ---------------------------------------------------------------------
      1          6           0        3.689228   -0.435988    0.139758
      2          6           0        2.772287   -0.793948   -1.030314
      3          6           0        1.514458   -1.542380   -0.588149
      4          1           0        3.974872   -1.355829    0.668194
      5          1           0        3.130492    0.177584    0.859993
      6          1           0        3.332993   -1.405506   -1.748799
      7          1           0        2.488947    0.126834   -1.556141
      8          1           0        0.930899   -0.935299    0.111502
      9          1           0        1.779741   -2.476346   -0.082251
     10          1           0        0.873275   -1.788415   -1.440330
     11          6           0        4.950925    0.312552   -0.286313
     12          6           0        5.867866    0.670512    0.883759
     13          6           0        7.125695    1.418944    0.441594
     14          1           0        5.509661   -0.301020   -1.006548
     15          1           0        4.665281    1.232393   -0.814748
     16          1           0        6.151206   -0.250270    1.409586
     17          1           0        5.307160    1.282070    1.602244
     18          1           0        6.860412    2.352910   -0.064304
     19          1           0        7.709254    0.811863   -0.258057
     20          1           0        7.766878    1.664979    1.293775
     21          6           0       -2.343264   -2.242313    0.291328
     22          6           0       -3.132931   -1.721651    1.321793
     23          6           0       -3.709621   -0.453640    1.202948
     24          6           0       -3.474810    0.269657    0.034618
     25          6           0       -2.692833   -0.221724   -1.009578
     26          6           0       -2.126118   -1.492010   -0.869023
     27          1           0       -1.899151   -3.228218    0.392083
     28          1           0       -3.303277   -2.302103    2.224070
     29          1           0       -4.325179   -0.026413    1.985242
     30          1           0       -2.541016    0.380530   -1.897080
     31          1           0       -1.513295   -1.893832   -1.670916
     32          7           0       -4.080046    1.613248   -0.102690
     33          8           0       -3.857985    2.230523   -1.142063
     34          8           0       -4.765031    2.023638    0.831661
 ---------------------------------------------------------------------

 SCF Done:  E(RHF) =  -669.534779803     A.U. after   15 cycles
 E2 =    -0.2091689720D+01 EUMP2 =    -0.67162646952328D+03

 The electronic state is 1-A.
 Alpha  occ. eigenvalues --  -20.60745 -20.60740 -15.85798 -11.31155 -11.27708
 Alpha  occ. eigenvalues --  -11.27696 -11.27437 -11.26735 -11.26700 -11.22114
 Alpha  occ. eigenvalues --  -11.21828 -11.21797 -11.21777 -11.21654 -11.21243
 Alpha  occ. eigenvalues --   -1.59821  -1.39375  -1.19322  -1.08800  -1.08713
 Alpha  occ. eigenvalues --   -1.04727  -1.03928  -0.96400  -0.95551  -0.87439
 Alpha  occ. eigenvalues --   -0.86110  -0.82387  -0.80003  -0.78586  -0.77438
 Alpha  occ. eigenvalues --   -0.72016  -0.71145  -0.70416  -0.65420  -0.64970
 Alpha  occ. eigenvalues --   -0.64764  -0.62115  -0.61316  -0.59774  -0.57998
 Alpha  occ. eigenvalues --   -0.55685  -0.55213  -0.53395  -0.53046  -0.52765
 Alpha  occ. eigenvalues --   -0.52587  -0.50308  -0.48774  -0.48772  -0.48310
 Alpha  occ. eigenvalues --   -0.47008  -0.46136  -0.46039  -0.44783  -0.44186
 Alpha  occ. eigenvalues --   -0.37272  -0.36291
 Alpha virt. eigenvalues --    0.05089   0.11297   0.16569   0.20660   0.22610
 Alpha virt. eigenvalues --    0.23961   0.26048   0.26308   0.27108   0.28007
 Alpha virt. eigenvalues --    0.28548   0.29782   0.31038   0.31686   0.32115

 Mulliken charges:
               1
     1  C   -0.299161
     2  C   -0.299723
     3  C   -0.477351
     4  H    0.149068
     5  H    0.151362
     6  H    0.152118
     7  H    0.154178
     8  H    0.162714
     9  H    0.152897
    10  H    0.149104
    11  C   -0.298744
    12  C   -0.299991
    13  C   -0.475967
    14  H    0.149561
    15  H    0.151264
    16  H    0.151562
    17  H    0.152937
    18  H    0.156201
    19  H    0.155143
    20  H    0.161010
    21  C   -0.171548
    22  C   -0.218766
    23  C   -0.171547
    24  C    0.158501
    25  C   -0.173689
    26  C   -0.212965
    27  H    0.226212
    28  H    0.223265
    29  H    0.275312
    30  H    0.275243
    31  H    0.224910
    32  N    0.488055
    33  O   -0.460592
    34  O   -0.460573
 Sum of Mulliken charges =  -0.00000

 Dipole moment (field-independent basis, Debye):
    X=              2.2338    Y=             -4.7013    Z=              0.5240  Tot=              5.2313
 Quadrupole moment (field-independent basis, Debye-Ang):
   XX=           -109.8907   YY=            -97.5483   ZZ=            -90.8751
   XY=             16.6301   XZ=             -3.6605   YZ=             -0.4483

 Normal termination of Gaussian 16 at Thu May  6 18:42:44 2021.
