 Gaussian 16, Revision A.03,
 Gaussian 16:  EM64L-G16RevA.03 25-Dec-2016

 -------------
 #p 6-31g* mp2
 -------------

 ------------------------------------------------------
 Input file generated by CHIRIPA (05-May-2021 14:55:24)
 ------------------------------------------------------
 Symbolic Z-matrix:
 Charge =  0 Multiplicity = 1

                         Standard orientation:
 ---------------------------------------------------------------------
 Center     Atomic      Atomic             Coordinates (Angstroms)
 Number     Number       Type             X           Y           Z
 ---------------------------------------------------------------------
      1          6           0        5.545150    0.291746    0.684897
      2          6           0        5.262274   -0.996984    0.220487
      3          6           0        3.973887   -1.330495   -0.207740
      4          6           0        2.987962   -0.346247   -0.157746
      5          6           0        3.238582    0.946506    0.299713
      6          6           0        4.534183    1.257675    0.722960
      7          1           0        6.548802    0.542148    1.015619
      8          1           0        6.045431   -1.749160    0.189810
      9          1           0        3.727349   -2.320458   -0.571897
     10          1           0        2.437107    1.675000    0.318530
     11          1           0        4.750981    2.259330    1.083142
     12          7           0        1.620186   -0.687494   -0.608455
     13          8           0        0.769133    0.197622   -0.554479
     14          8           0        1.425075   -1.833619   -1.007161
     15          6           0       -4.232113   -0.292827    0.465072
     16          6           0       -5.490018   -1.021044   -0.009649
     17          6           0       -5.714481   -2.347827    0.716337
     18          1           0       -3.360657   -0.945274    0.317354
     19          1           0       -4.307542   -0.112059    1.546289
     20          1           0       -5.412854   -1.199156   -1.089898
     21          1           0       -6.358556   -0.366715    0.139039
     22          1           0       -5.817465   -2.184672    1.794009
     23          1           0       -4.866390   -3.021843    0.558089
     24          1           0       -6.619012   -2.851599    0.361515
     25          6           0       -3.994161    1.035241   -0.251406
     26          6           0       -2.736257    1.763459    0.223316
     27          6           0       -2.511793    3.090242   -0.502671
     28          1           0       -3.918732    0.854473   -1.332622
     29          1           0       -4.865618    1.687689   -0.103687
     30          1           0       -1.867719    1.109129    0.074628
     31          1           0       -2.813420    1.941571    1.303566
     32          1           0       -3.359884    3.764258   -0.344422
     33          1           0       -2.408810    2.927087   -1.580342
     34          1           0       -1.607263    3.594014   -0.147847
 ---------------------------------------------------------------------

 SCF Done:  E(RHF) =  -669.536299126     A.U. after   15 cycles
 E2 =    -0.2090828847D+01 EUMP2 =    -0.67162712797333D+03

 The electronic state is 1-A.
 Alpha  occ. eigenvalues --  -20.60987 -20.60982 -15.86024 -11.31318 -11.27878
 Alpha  occ. eigenvalues --  -11.27874 -11.27613 -11.26881 -11.26871 -11.20733
 Alpha  occ. eigenvalues --  -11.20332 -11.20312 -11.20264 -11.20197 -11.20049
 Alpha  occ. eigenvalues --   -1.60050  -1.39606  -1.19484  -1.08894  -1.07354
 Alpha  occ. eigenvalues --   -1.04877  -1.02499  -0.95740  -0.94993  -0.86278
 Alpha  occ. eigenvalues --   -0.86016  -0.82576  -0.78568  -0.77631  -0.77145
 Alpha  occ. eigenvalues --   -0.72250  -0.71361  -0.70593  -0.65142  -0.64880
 Alpha  occ. eigenvalues --   -0.63967  -0.62224  -0.59877  -0.58370  -0.56597
 Alpha  occ. eigenvalues --   -0.55383  -0.54280  -0.53210  -0.52968  -0.51720
 Alpha  occ. eigenvalues --   -0.51422  -0.49063  -0.49000  -0.48891  -0.46891
 Alpha  occ. eigenvalues --   -0.45570  -0.45043  -0.44709  -0.44512  -0.42759
 Alpha  occ. eigenvalues --   -0.37462  -0.36477
 Alpha virt. eigenvalues --    0.04893   0.11179   0.16388   0.21285   0.23937
 Alpha virt. eigenvalues --    0.25226   0.27222   0.27684   0.28085   0.28761
 Alpha virt. eigenvalues --    0.28953   0.30864   0.32164   0.32404   0.32829

 Mulliken charges:
               1
     1  C   -0.170519
     2  C   -0.218619
     3  C   -0.170447
     4  C    0.157435
     5  C   -0.170610
     6  C   -0.218554
     7  H    0.226096
     8  H    0.223879
     9  H    0.275854
    10  H    0.275965
    11  H    0.223988
    12  N    0.493773
    13  O   -0.465401
    14  O   -0.459207
    15  C   -0.299791
    16  C   -0.298878
    17  C   -0.475500
    18  H    0.158464
    19  H    0.145480
    20  H    0.152207
    21  H    0.148761
    22  H    0.152921
    23  H    0.157046
    24  H    0.157329
    25  C   -0.296743
    26  C   -0.312505
    27  C   -0.472419
    28  H    0.150411
    29  H    0.143716
    30  H    0.182692
    31  H    0.143822
    32  H    0.149026
    33  H    0.156117
    34  H    0.154209
 Sum of Mulliken charges =  -0.00000

 Dipole moment (field-independent basis, Debye):
    X=              5.1680    Y=              1.0622    Z=              1.5249  Tot=              5.4919
 Quadrupole moment (field-independent basis, Debye-Ang):
   XX=            -67.0702   YY=            -92.7209   ZZ=            -95.6960
   XY=              0.1799   XZ=              3.7888   YZ=              1.2029

 Normal termination of Gaussian 16 at Wed May  5 16:07:11 2021.
