 Gaussian 16, Revision A.03,
 Gaussian 16:  EM64L-G16RevA.03 25-Dec-2016

 -------------
 #p 6-31g* mp2
 -------------

 ------------------------------------------------------
 Input file generated by CHIRIPA (05-May-2021 14:57:26)
 ------------------------------------------------------
 Symbolic Z-matrix:
 Charge =  0 Multiplicity = 1

                         Standard orientation:
 ---------------------------------------------------------------------
 Center     Atomic      Atomic             Coordinates (Angstroms)
 Number     Number       Type             X           Y           Z
 ---------------------------------------------------------------------
      1          6           0       -1.761245    1.786060    0.893815
      2          6           0       -2.032814    1.612483   -0.467303
      3          6           0       -2.989655    0.683861   -0.887616
      4          6           0       -3.659169   -0.057665    0.084588
      5          6           0       -3.410929    0.092353    1.448098
      6          6           0       -2.449955    1.026780    1.845494
      7          1           0       -1.016342    2.509691    1.211422
      8          1           0       -1.499494    2.200767   -1.208611
      9          1           0       -3.219600    0.529259   -1.934823
     10          1           0       -3.958811   -0.508660    2.163659
     11          1           0       -2.241116    1.159462    2.903240
     12          7           0       -4.674321   -1.043829   -0.348248
     13          8           0       -5.250452   -1.684802    0.528031
     14          8           0       -4.874646   -1.157137   -1.555587
     15          6           0        2.382393    2.098436   -0.685513
     16          6           0        3.660728    2.076920   -0.118135
     17          6           0        4.285084    0.861947    0.179468
     18          6           0        3.599119   -0.317873   -0.104726
     19          6           0        2.324798   -0.329272   -0.669763
     20          6           0        1.719676    0.897390   -0.959034
     21          1           0        1.904849    3.046796   -0.913463
     22          1           0        4.177779    3.008114    0.095364
     23          1           0        5.274125    0.816315    0.618938
     24          1           0        1.834408   -1.273918   -0.871209
     25          1           0        0.726842    0.911062   -1.399644
     26          7           0        4.249914   -1.610298    0.205924
     27          8           0        3.624446   -2.635887   -0.054060
     28          8           0        5.373155   -1.573239    0.703513
 ---------------------------------------------------------------------

 SCF Done:  E(RHF) =  -868.336444804     A.U. after   16 cycles
 E2 =    -0.2600839875D+01 EUMP2 =    -0.87093728467947D+03

 The electronic state is 1-A.
 Alpha  occ. eigenvalues --  -20.61256 -20.61245 -20.61160 -20.61153 -15.86317
 Alpha  occ. eigenvalues --  -15.86215 -11.31848 -11.31723 -11.28527 -11.28421
 Alpha  occ. eigenvalues --  -11.28290 -11.28273 -11.28273 -11.28157 -11.27626
 Alpha  occ. eigenvalues --  -11.27428 -11.27380 -11.27357  -1.60326  -1.60232
 Alpha  occ. eigenvalues --   -1.39875  -1.39780  -1.20069  -1.19914  -1.09437
 Alpha  occ. eigenvalues --   -1.09304  -1.05516  -1.05319  -0.96227  -0.96112
 Alpha  occ. eigenvalues --   -0.86949  -0.86695  -0.83069  -0.82924  -0.78100
 Alpha  occ. eigenvalues --   -0.77917  -0.72531  -0.72431  -0.71653  -0.71557
 Alpha  occ. eigenvalues --   -0.71179  -0.71054  -0.65774  -0.65693  -0.65563
 Alpha  occ. eigenvalues --   -0.65183  -0.62914  -0.62582  -0.56023  -0.55882
 Alpha  occ. eigenvalues --   -0.53942  -0.53666  -0.53614  -0.53266  -0.49306
 Alpha  occ. eigenvalues --   -0.49274  -0.49201  -0.49177  -0.45244  -0.45153
 Alpha  occ. eigenvalues --   -0.38199  -0.37841  -0.37148  -0.36828
 Alpha virt. eigenvalues --    0.04470   0.04576   0.10202   0.10907   0.15810
 Alpha virt. eigenvalues --    0.16005   0.18940   0.21906   0.25275   0.26753
 Alpha virt. eigenvalues --    0.27733   0.28924   0.29910   0.30950   0.31754

 Mulliken charges:
               1
     1  C   -0.166723
     2  C   -0.225039
     3  C   -0.172007
     4  C    0.158977
     5  C   -0.168331
     6  C   -0.218455
     7  H    0.225199
     8  H    0.215295
     9  H    0.276879
    10  H    0.279102
    11  H    0.227071
    12  N    0.488141
    13  O   -0.457464
    14  O   -0.459439
    15  C   -0.176821
    16  C   -0.218041
    17  C   -0.171109
    18  C    0.159213
    19  C   -0.171558
    20  C   -0.218716
    21  H    0.219596
    22  H    0.224177
    23  H    0.277187
    24  H    0.279262
    25  H    0.223009
    26  N    0.487775
    27  O   -0.457824
    28  O   -0.459356
 Sum of Mulliken charges =  -0.00000

 Dipole moment (field-independent basis, Debye):
    X=              1.1841    Y=              7.8162    Z=              0.6094  Tot=              7.9288
 Quadrupole moment (field-independent basis, Debye-Ang):
   XX=           -144.0121   YY=           -108.0572   ZZ=            -99.7772
   XY=              6.7109   XZ=             -8.6296   YZ=             -0.0464

 Normal termination of Gaussian 16 at Thu May  6 08:20:18 2021.
