 Gaussian 16, Revision A.03,
 Gaussian 16:  EM64L-G16RevA.03 25-Dec-2016

 -------------
 #p 6-31g* mp2
 -------------

 ------------------------------------------------------
 Input file generated by CHIRIPA (05-May-2021 14:51:09)
 ------------------------------------------------------
 Symbolic Z-matrix:
 Charge =  0 Multiplicity = 1

                         Standard orientation:
 ---------------------------------------------------------------------
 Center     Atomic      Atomic             Coordinates (Angstroms)
 Number     Number       Type             X           Y           Z
 ---------------------------------------------------------------------
      1          6           0        3.551903   -0.568211    0.012872
      2          6           0        2.988799   -1.739516   -0.792698
      3          6           0        3.493965   -3.094889   -0.297154
      4          1           0        4.649191   -0.592133   -0.035425
      5          1           0        3.282708   -0.696555    1.070443
      6          1           0        3.257796   -1.608284   -1.848651
      7          1           0        1.892720   -1.712691   -0.742637
      8          1           0        3.212723   -3.251722    0.749224
      9          1           0        4.585555   -3.146722   -0.363074
     10          1           0        3.078994   -3.918113   -0.887036
     11          6           0        3.056077    0.793474   -0.470550
     12          6           0        3.619180    1.964780    0.335020
     13          6           0        3.114015    3.320153   -0.160525
     14          1           0        3.325271    0.921819   -1.528122
     15          1           0        1.958789    0.817397   -0.422254
     16          1           0        4.715260    1.937954    0.284958
     17          1           0        3.350184    1.833547    1.390972
     18          1           0        2.022425    3.371985   -0.094605
     19          1           0        3.395257    3.476986   -1.206903
     20          1           0        3.528986    4.143377    0.429357
     21          6           0       -3.803868    0.176597   -0.271062
     22          6           0       -5.259924   -0.129547    0.081302
     23          6           0       -6.248036    0.455682   -0.928122
     24          1           0       -3.668600    1.265263   -0.329851
     25          1           0       -3.584962   -0.220084   -1.272120
     26          1           0       -5.475625    0.266380    1.081967
     27          1           0       -5.391695   -1.217605    0.139447
     28          1           0       -6.061266    0.052010   -1.928505
     29          1           0       -6.145671    1.544428   -0.980630
     30          1           0       -7.282960    0.224917   -0.656941
     31          6           0       -2.804112   -0.401861    0.728740
     32          6           0       -1.348055   -0.095717    0.376377
     33          6           0       -0.359944   -0.680946    1.385801
     34          1           0       -3.023018   -0.005180    1.729798
     35          1           0       -2.939379   -1.490527    0.787530
     36          1           0       -1.216284    0.992342    0.318232
     37          1           0       -1.132355   -0.491644   -0.624288
     38          1           0       -0.462309   -1.769691    1.438310
     39          1           0       -0.546714   -0.277274    2.386184
     40          1           0        0.674980   -0.450181    1.114621
 ---------------------------------------------------------------------

 SCF Done:  E(RHF) =  -470.732682778     A.U. after   11 cycles
 E2 =    -0.1584002273D+01 EUMP2 =    -0.47231668505052D+03

 The electronic state is 1-A.
 Alpha  occ. eigenvalues --  -11.21684 -11.21626 -11.21600 -11.21565 -11.21450
 Alpha  occ. eigenvalues --  -11.21398 -11.21387 -11.21338 -11.21103 -11.21088
 Alpha  occ. eigenvalues --  -11.21071 -11.21046  -1.08497  -1.08418  -1.03586
 Alpha  occ. eigenvalues --   -1.03513  -0.96056  -0.95950  -0.87055  -0.86981
 Alpha  occ. eigenvalues --   -0.79644  -0.79582  -0.78307  -0.78227  -0.65198
 Alpha  occ. eigenvalues --   -0.65096  -0.61065  -0.60845  -0.59399  -0.59312
 Alpha  occ. eigenvalues --   -0.57689  -0.57540  -0.55334  -0.55240  -0.52738
 Alpha  occ. eigenvalues --   -0.52635  -0.52455  -0.52362  -0.49990  -0.49889
 Alpha  occ. eigenvalues --   -0.47961  -0.47897  -0.46675  -0.46617  -0.45844
 Alpha  occ. eigenvalues --   -0.45760  -0.45748  -0.45676  -0.43824  -0.43758
 Alpha virt. eigenvalues --    0.20278   0.23063   0.23887   0.24414   0.26375
 Alpha virt. eigenvalues --    0.26533   0.26757   0.27607   0.27785   0.29649
 Alpha virt. eigenvalues --    0.30443   0.31454   0.31544   0.31881   0.31984

 Mulliken charges:
               1
     1  C   -0.301490
     2  C   -0.303086
     3  C   -0.475639
     4  H    0.150982
     5  H    0.150192
     6  H    0.151771
     7  H    0.156108
     8  H    0.155678
     9  H    0.155036
    10  H    0.159918
    11  C   -0.304037
    12  C   -0.299580
    13  C   -0.475661
    14  H    0.150192
    15  H    0.154020
    16  H    0.152140
    17  H    0.152026
    18  H    0.155081
    19  H    0.155239
    20  H    0.160233
    21  C   -0.298354
    22  C   -0.299707
    23  C   -0.475742
    24  H    0.149743
    25  H    0.149713
    26  H    0.151973
    27  H    0.152010
    28  H    0.155264
    29  H    0.155247
    30  H    0.160345
    31  C   -0.298560
    32  C   -0.300838
    33  C   -0.485638
    34  H    0.149818
    35  H    0.149970
    36  H    0.151662
    37  H    0.152832
    38  H    0.155388
    39  H    0.155322
    40  H    0.170429
 Sum of Mulliken charges =  -0.00000

 Dipole moment (field-independent basis, Debye):
    X=             -0.0141    Y=             -0.0003    Z=             -0.0023  Tot=              0.0143
 Quadrupole moment (field-independent basis, Debye-Ang):
   XX=            -84.9083   YY=            -85.2839   ZZ=            -84.5640
   XY=              0.6095   XZ=             -1.1202   YZ=              0.9252

 Normal termination of Gaussian 16 at Thu May  6 03:44:12 2021.
