 Gaussian 16, Revision A.03,
 Gaussian 16:  EM64L-G16RevA.03 25-Dec-2016

 -------------
 #p 6-31g* mp2
 -------------

 ------------------------------------------------------
 Input file generated by CHIRIPA (05-May-2021 14:57:23)
 ------------------------------------------------------
 Symbolic Z-matrix:
 Charge =  0 Multiplicity = 1

                         Standard orientation:
 ---------------------------------------------------------------------
 Center     Atomic      Atomic             Coordinates (Angstroms)
 Number     Number       Type             X           Y           Z
 ---------------------------------------------------------------------
      1          6           0       -4.482227   -0.920718   -0.243390
      2          6           0       -4.317419    0.157082    0.632798
      3          6           0       -3.160606    0.940680    0.584769
      4          6           0       -2.184429    0.616711   -0.356195
      5          6           0       -2.319367   -0.450691   -1.242611
      6          6           0       -3.484434   -1.220637   -1.176653
      7          1           0       -5.384073   -1.524133   -0.199116
      8          1           0       -5.090658    0.392329    1.358611
      9          1           0       -3.007195    1.780757    1.251217
     10          1           0       -1.531071   -0.660684   -1.955290
     11          1           0       -3.609719   -2.057076   -1.858355
     12          7           0       -0.955394    1.439044   -0.416531
     13          8           0       -0.110149    1.132932   -1.254680
     14          8           0       -0.860592    2.374130    0.375468
     15          6           0        0.450875   -1.432299    1.654976
     16          6           0        1.076284   -0.257240    2.084652
     17          6           0        2.149930    0.278789    1.367362
     18          6           0        2.574165   -0.389230    0.219728
     19          6           0        1.971670   -1.561632   -0.233883
     20          6           0        0.899773   -2.079603    0.499117
     21          1           0       -0.382480   -1.841685    2.218286
     22          1           0        0.729792    0.247602    2.981938
     23          1           0        2.652291    1.187015    1.677490
     24          1           0        2.339498   -2.042376   -1.132219
     25          1           0        0.415979   -2.992324    0.163066
     26          7           0        3.709860    0.168682   -0.547951
     27          8           0        4.064678   -0.438847   -1.555746
     28          8           0        4.223698    1.202937   -0.127325
 ---------------------------------------------------------------------

 SCF Done:  E(RHF) =  -868.337558879     A.U. after   16 cycles
 E2 =    -0.2604513246D+01 EUMP2 =    -0.87094207212519D+03

 The electronic state is 1-A.
 Alpha  occ. eigenvalues --  -20.61185 -20.61114 -20.59829 -20.59806 -15.86178
 Alpha  occ. eigenvalues --  -15.84877 -11.31659 -11.30302 -11.28253 -11.28222
 Alpha  occ. eigenvalues --  -11.28003 -11.27289 -11.27277 -11.27003 -11.26888
 Alpha  occ. eigenvalues --  -11.26855 -11.26128 -11.26000  -1.60199  -1.58876
 Alpha  occ. eigenvalues --   -1.39759  -1.38436  -1.19848  -1.18551  -1.09217
 Alpha  occ. eigenvalues --   -1.07961  -1.05272  -1.03999  -0.96038  -0.94769
 Alpha  occ. eigenvalues --   -0.86654  -0.85404  -0.82877  -0.81614  -0.77905
 Alpha  occ. eigenvalues --   -0.76612  -0.72434  -0.71559  -0.71125  -0.70946
 Alpha  occ. eigenvalues --   -0.70137  -0.69741  -0.65499  -0.65268  -0.64242
 Alpha  occ. eigenvalues --   -0.64054  -0.62611  -0.61355  -0.55758  -0.54583
 Alpha  occ. eigenvalues --   -0.53610  -0.53356  -0.52280  -0.52126  -0.49188
 Alpha  occ. eigenvalues --   -0.49156  -0.47884  -0.47854  -0.45150  -0.43836
 Alpha  occ. eigenvalues --   -0.38009  -0.36964  -0.36321  -0.35511
 Alpha virt. eigenvalues --    0.04577   0.06007   0.10617   0.12187   0.16063
 Alpha virt. eigenvalues --    0.17388   0.20902   0.22002   0.26749   0.27744
 Alpha virt. eigenvalues --    0.28029   0.28916   0.30464   0.31473   0.32045

 Mulliken charges:
               1
     1  C   -0.172050
     2  C   -0.219739
     3  C   -0.174532
     4  C    0.161759
     5  C   -0.170532
     6  C   -0.221285
     7  H    0.226378
     8  H    0.223990
     9  H    0.275017
    10  H    0.276449
    11  H    0.223700
    12  N    0.491251
    13  O   -0.456526
    14  O   -0.463310
    15  C   -0.178006
    16  C   -0.222677
    17  C   -0.160082
    18  C    0.174196
    19  C   -0.166501
    20  C   -0.222024
    21  H    0.220384
    22  H    0.222485
    23  H    0.278357
    24  H    0.272002
    25  H    0.215437
    26  N    0.489357
    27  O   -0.464405
    28  O   -0.459093
 Sum of Mulliken charges =  -0.00000

 Dipole moment (field-independent basis, Debye):
    X=             -8.1839    Y=             -4.5658    Z=              2.7947  Tot=              9.7792
 Quadrupole moment (field-independent basis, Debye-Ang):
   XX=           -107.1097   YY=           -103.7264   ZZ=            -99.7729
   XY=             -0.1639   XZ=              6.0762   YZ=              5.1968

 Normal termination of Gaussian 16 at Thu May  6 11:20:47 2021.
