 Gaussian 16, Revision A.03,
 Gaussian 16:  EM64L-G16RevA.03 25-Dec-2016

 -------------
 #p 6-31g* mp2
 -------------

 ------------------------------------------------------
 Input file generated by CHIRIPA (05-May-2021 14:55:22)
 ------------------------------------------------------
 Symbolic Z-matrix:
 Charge =  0 Multiplicity = 1

                         Standard orientation:
 ---------------------------------------------------------------------
 Center     Atomic      Atomic             Coordinates (Angstroms)
 Number     Number       Type             X           Y           Z
 ---------------------------------------------------------------------
      1          6           0        1.229265   -0.794241    1.876528
      2          6           0        0.862790   -0.741921    0.527648
      3          6           0        1.778461   -0.320335   -0.441041
      4          6           0        3.057874    0.043316   -0.023728
      5          6           0        3.453052    0.001961    1.312465
      6          6           0        2.520950   -0.422788    2.263949
      7          1           0        0.511568   -1.122968    2.622347
      8          1           0       -0.139654   -1.029801    0.223875
      9          1           0        1.521262   -0.270325   -1.492120
     10          1           0        4.459670    0.295207    1.584761
     11          1           0        2.808339   -0.462424    3.310793
     12          7           0        4.035952    0.491305   -1.040129
     13          8           0        5.156926    0.806385   -0.646709
     14          8           0        3.663076    0.518875   -2.210958
     15          6           0       -4.138045    0.666378   -0.252964
     16          6           0       -3.489861    1.915096    0.345821
     17          6           0       -4.362803    3.161916    0.200190
     18          1           0       -4.350242    0.845040   -1.315978
     19          1           0       -5.107655    0.495280    0.234867
     20          1           0       -2.521136    2.082997   -0.142027
     21          1           0       -3.279008    1.733371    1.407486
     22          1           0       -5.325005    3.019347    0.702623
     23          1           0       -4.562828    3.370960   -0.855693
     24          1           0       -3.880293    4.042838    0.634955
     25          6           0       -3.277443   -0.588251   -0.115130
     26          6           0       -3.925627   -1.836970   -0.713915
     27          6           0       -3.052687   -3.083790   -0.568284
     28          1           0       -2.307834   -0.417153   -0.602960
     29          1           0       -3.065246   -0.766914    0.947883
     30          1           0       -4.136481   -1.655245   -1.775580
     31          1           0       -4.894353   -2.004871   -0.226068
     32          1           0       -2.852661   -3.292835    0.487600
     33          1           0       -2.090483   -2.941221   -1.070717
     34          1           0       -3.535196   -3.964712   -1.003049
 ---------------------------------------------------------------------

 SCF Done:  E(RHF) =  -669.535536448     A.U. after   15 cycles
 E2 =    -0.2091551347D+01 EUMP2 =    -0.67162708779452D+03

 The electronic state is 1-A.
 Alpha  occ. eigenvalues --  -20.60714 -20.60709 -15.85766 -11.31114 -11.27680
 Alpha  occ. eigenvalues --  -11.27666 -11.27404 -11.26696 -11.26613 -11.22490
 Alpha  occ. eigenvalues --  -11.22430 -11.22225 -11.22113 -11.22014 -11.21535
 Alpha  occ. eigenvalues --   -1.59790  -1.39344  -1.19278  -1.09271  -1.08674
 Alpha  occ. eigenvalues --   -1.04678  -1.04282  -0.96749  -0.95516  -0.87760
 Alpha  occ. eigenvalues --   -0.86077  -0.82353  -0.80360  -0.79116  -0.77393
 Alpha  occ. eigenvalues --   -0.71985  -0.71113  -0.70390  -0.65914  -0.64928
 Alpha  occ. eigenvalues --   -0.64673  -0.62049  -0.61654  -0.60116  -0.58358
 Alpha  occ. eigenvalues --   -0.56048  -0.55179  -0.53400  -0.53205  -0.53002
 Alpha  occ. eigenvalues --   -0.52765  -0.50688  -0.48774  -0.48742  -0.48630
 Alpha  occ. eigenvalues --   -0.47392  -0.46595  -0.46532  -0.44754  -0.44562
 Alpha  occ. eigenvalues --   -0.37256  -0.36277
 Alpha virt. eigenvalues --    0.05127   0.11347   0.16600   0.19702   0.22576
 Alpha virt. eigenvalues --    0.23559   0.24990   0.26007   0.27177   0.28376
 Alpha virt. eigenvalues --    0.29125   0.30159   0.31064   0.31260   0.31799

 Mulliken charges:
               1
     1  C   -0.172877
     2  C   -0.225734
     3  C   -0.173789
     4  C    0.158899
     5  C   -0.171431
     6  C   -0.218356
     7  H    0.225500
     8  H    0.236108
     9  H    0.274545
    10  H    0.275252
    11  H    0.222949
    12  N    0.488110
    13  O   -0.460687
    14  O   -0.460785
    15  C   -0.298009
    16  C   -0.300548
    17  C   -0.476276
    18  H    0.153025
    19  H    0.152083
    20  H    0.153266
    21  H    0.150273
    22  H    0.155808
    23  H    0.157195
    24  H    0.162570
    25  C   -0.302839
    26  C   -0.299837
    27  C   -0.478308
    28  H    0.145001
    29  H    0.145762
    30  H    0.156004
    31  H    0.155514
    32  H    0.153025
    33  H    0.152288
    34  H    0.166297
 Sum of Mulliken charges =  -0.00000

 Dipole moment (field-independent basis, Debye):
    X=             -3.7051    Y=             -1.5509    Z=              3.5449  Tot=              5.3572
 Quadrupole moment (field-independent basis, Debye-Ang):
   XX=           -113.0845   YY=            -96.2015   ZZ=            -91.8205
   XY=             -3.8597   XZ=             13.7736   YZ=              0.6316

 Normal termination of Gaussian 16 at Wed May  5 20:38:45 2021.
