 Gaussian 16, Revision A.03,
 Gaussian 16:  EM64L-G16RevA.03 25-Dec-2016

 -------------
 #p 6-31g* mp2
 -------------

 ------------------------------------------------------
 Input file generated by CHIRIPA (05-May-2021 14:53:16)
 ------------------------------------------------------
 Symbolic Z-matrix:
 Charge =  0 Multiplicity = 1

                         Standard orientation:
 ---------------------------------------------------------------------
 Center     Atomic      Atomic             Coordinates (Angstroms)
 Number     Number       Type             X           Y           Z
 ---------------------------------------------------------------------
      1          6           0        3.084689   -0.354451   -0.242166
      2          6           0        2.364596   -1.518990   -0.922827
      3          6           0        3.154876   -2.825921   -0.850840
      4          1           0        4.068657   -0.215900   -0.710735
      5          1           0        3.272729   -0.612885    0.809141
      6          1           0        2.176738   -1.257881   -1.972182
      7          1           0        1.382150   -1.654662   -0.452710
      8          1           0        3.330250   -3.113183    0.190949
      9          1           0        4.129353   -2.714147   -1.337156
     10          1           0        2.621818   -3.645065   -1.343500
     11          6           0        2.307138    0.958977   -0.305800
     12          6           0        3.027231    2.123516    0.374861
     13          6           0        2.236951    3.430448    0.302874
     14          1           0        2.119098    1.217411   -1.357107
     15          1           0        1.323170    0.820426    0.162769
     16          1           0        4.009677    2.259188   -0.095256
     17          1           0        3.215089    1.862407    1.424216
     18          1           0        1.262474    3.318673    0.789190
     19          1           0        2.061577    3.717709   -0.738915
     20          1           0        2.770009    4.249591    0.795534
     21          6           0       -3.320836    1.656377   -0.930026
     22          6           0       -2.374808    1.930695    0.063100
     23          6           0       -1.695751    0.890000    0.703712
     24          6           0       -1.988754   -0.419105    0.324654
     25          6           0       -2.925894   -0.724598   -0.661111
     26          6           0       -3.592880    0.331941   -1.288331
     27          1           0       -3.843656    2.470968   -1.422467
     28          1           0       -2.161504    2.958303    0.343406
     29          1           0       -0.958592    1.073972    1.475831
     30          1           0       -3.117125   -1.759164   -0.919026
     31          1           0       -4.327077    0.115925   -2.059263
     32          7           0       -1.276256   -1.529229    0.995751
     33          8           0       -1.552460   -2.673942    0.643643
     34          8           0       -0.455088   -1.233611    1.861160
 ---------------------------------------------------------------------

 SCF Done:  E(RHF) =  -669.535786234     A.U. after   15 cycles
 E2 =    -0.2093698552D+01 EUMP2 =    -0.67162948478615D+03

 The electronic state is 1-A.
 Alpha  occ. eigenvalues --  -20.60965 -20.60959 -15.85979 -11.31278 -11.27843
 Alpha  occ. eigenvalues --  -11.27837 -11.27567 -11.26840 -11.26829 -11.21502
 Alpha  occ. eigenvalues --  -11.21309 -11.21075 -11.20888 -11.20788 -11.20281
 Alpha  occ. eigenvalues --   -1.60027  -1.39581  -1.19448  -1.08855  -1.08031
 Alpha  occ. eigenvalues --   -1.04841  -1.03155  -0.95706  -0.95623  -0.86653
 Alpha  occ. eigenvalues --   -0.86242  -0.82538  -0.79263  -0.77847  -0.77570
 Alpha  occ. eigenvalues --   -0.72207  -0.71362  -0.70562  -0.65105  -0.64872
 Alpha  occ. eigenvalues --   -0.64612  -0.62194  -0.60534  -0.59038  -0.57222
 Alpha  occ. eigenvalues --   -0.55346  -0.54928  -0.53172  -0.52935  -0.52336
 Alpha  occ. eigenvalues --   -0.52060  -0.49588  -0.48972  -0.48965  -0.47569
 Alpha  occ. eigenvalues --   -0.46276  -0.45507  -0.45278  -0.44769  -0.43388
 Alpha  occ. eigenvalues --   -0.37412  -0.36406
 Alpha virt. eigenvalues --    0.04883   0.11117   0.16368   0.20194   0.23184
 Alpha virt. eigenvalues --    0.24355   0.25959   0.27173   0.27704   0.28263
 Alpha virt. eigenvalues --    0.29166   0.31038   0.31622   0.31856   0.32581

 Mulliken charges:
               1
     1  C   -0.296647
     2  C   -0.302251
     3  C   -0.474982
     4  H    0.146162
     5  H    0.156450
     6  H    0.145677
     7  H    0.160197
     8  H    0.160565
     9  H    0.150175
    10  H    0.161168
    11  C   -0.302516
    12  C   -0.300079
    13  C   -0.473309
    14  H    0.145995
    15  H    0.151208
    16  H    0.152541
    17  H    0.155130
    18  H    0.143745
    19  H    0.154421
    20  H    0.161021
    21  C   -0.170508
    22  C   -0.218904
    23  C   -0.170326
    24  C    0.158528
    25  C   -0.170549
    26  C   -0.218367
    27  H    0.226144
    28  H    0.224735
    29  H    0.275565
    30  H    0.275823
    31  H    0.223822
    32  N    0.487883
    33  O   -0.458135
    34  O   -0.460382
 Sum of Mulliken charges =  -0.00000

 Dipole moment (field-independent basis, Debye):
    X=             -2.6047    Y=              3.7706    Z=             -2.2875  Tot=              5.1219
 Quadrupole moment (field-independent basis, Debye-Ang):
   XX=            -83.9010   YY=            -97.2848   ZZ=            -94.6637
   XY=             -4.5446   XZ=              5.6634   YZ=              3.9557

 Normal termination of Gaussian 16 at Thu May  6 10:37:58 2021.
