 Gaussian 16, Revision A.03,
 Gaussian 16:  EM64L-G16RevA.03 25-Dec-2016

 -------------
 #p 6-31g* mp2
 -------------

 ------------------------------------------------------
 Input file generated by CHIRIPA (05-May-2021 14:57:26)
 ------------------------------------------------------
 Symbolic Z-matrix:
 Charge =  0 Multiplicity = 1

                         Standard orientation:
 ---------------------------------------------------------------------
 Center     Atomic      Atomic             Coordinates (Angstroms)
 Number     Number       Type             X           Y           Z
 ---------------------------------------------------------------------
      1          6           0        3.632988   -2.102073    0.641983
      2          6           0        2.866075   -1.391641    1.571312
      3          6           0        2.503851   -0.063804    1.325973
      4          6           0        2.927595    0.525158    0.135656
      5          6           0        3.692435   -0.156294   -0.809824
      6          6           0        4.042997   -1.483224   -0.543529
      7          1           0        3.909843   -3.133216    0.840707
      8          1           0        2.546247   -1.869694    2.492843
      9          1           0        1.910792    0.509456    2.028164
     10          1           0        3.996403    0.347164   -1.719523
     11          1           0        4.638661   -2.032516   -1.267068
     12          7           0        2.550297    1.930398   -0.135166
     13          8           0        2.936156    2.426555   -1.191376
     14          8           0        1.875857    2.509062    0.713902
     15          6           0       -1.096629   -1.815377   -0.862914
     16          6           0       -0.900938   -0.431073   -0.819019
     17          6           0       -1.942760    0.421679   -0.442228
     18          6           0       -3.172801   -0.146433   -0.114298
     19          6           0       -3.398896   -1.521573   -0.148364
     20          6           0       -2.342786   -2.355257   -0.528037
     21          1           0       -0.281768   -2.470409   -1.156733
     22          1           0        0.065777   -0.009000   -1.078560
     23          1           0       -1.818725    1.496958   -0.399716
     24          1           0       -4.373808   -1.912869    0.115929
     25          1           0       -2.497641   -3.429949   -0.561233
     26          7           0       -4.283293    0.746245    0.286120
     27          8           0       -5.357468    0.220876    0.570326
     28          8           0       -4.058495    1.954390    0.308178
 ---------------------------------------------------------------------

 SCF Done:  E(RHF) =  -868.337655530     A.U. after   16 cycles
 E2 =    -0.2600875062D+01 EUMP2 =    -0.87093853059214D+03

 The electronic state is 1-A.
 Alpha  occ. eigenvalues --  -20.61649 -20.61642 -20.60544 -20.60520 -15.86698
 Alpha  occ. eigenvalues --  -15.85589 -11.32109 -11.31004 -11.28689 -11.28638
 Alpha  occ. eigenvalues --  -11.28402 -11.27681 -11.27636 -11.27633 -11.27506
 Alpha  occ. eigenvalues --  -11.27399 -11.26679 -11.26582  -1.60740  -1.59611
 Alpha  occ. eigenvalues --   -1.40280  -1.39161  -1.20299  -1.19201  -1.09679
 Alpha  occ. eigenvalues --   -1.08598  -1.05667  -1.04603  -0.96492  -0.95413
 Alpha  occ. eigenvalues --   -0.87060  -0.86006  -0.83296  -0.82239  -0.78346
 Alpha  occ. eigenvalues --   -0.77268  -0.72888  -0.72112  -0.71805  -0.71350
 Alpha  occ. eigenvalues --   -0.70938  -0.70313  -0.65914  -0.65633  -0.64850
 Alpha  occ. eigenvalues --   -0.64621  -0.62985  -0.61938  -0.56149  -0.55140
 Alpha  occ. eigenvalues --   -0.54082  -0.53727  -0.52939  -0.52656  -0.49663
 Alpha  occ. eigenvalues --   -0.49653  -0.48576  -0.48552  -0.45660  -0.44554
 Alpha  occ. eigenvalues --   -0.38300  -0.37429  -0.37089  -0.36176
 Alpha virt. eigenvalues --    0.04129   0.05256   0.10290   0.11489   0.15611
 Alpha virt. eigenvalues --    0.16728   0.20639   0.21380   0.26584   0.26891
 Alpha virt. eigenvalues --    0.27535   0.28425   0.30186   0.30850   0.31782

 Mulliken charges:
               1
     1  C   -0.173324
     2  C   -0.218712
     3  C   -0.170145
     4  C    0.149114
     5  C   -0.175355
     6  C   -0.220109
     7  H    0.228029
     8  H    0.227535
     9  H    0.280111
    10  H    0.278040
    11  H    0.225995
    12  N    0.486846
    13  O   -0.458015
    14  O   -0.457028
    15  C   -0.172724
    16  C   -0.220448
    17  C   -0.171753
    18  C    0.157797
    19  C   -0.171512
    20  C   -0.219722
    21  H    0.222458
    22  H    0.224138
    23  H    0.284766
    24  H    0.274732
    25  H    0.220744
    26  N    0.487776
    27  O   -0.462411
    28  O   -0.456822
 Sum of Mulliken charges =  -0.00000

 Dipole moment (field-independent basis, Debye):
    X=              5.4056    Y=             -7.9645    Z=             -0.3444  Tot=              9.6318
 Quadrupole moment (field-independent basis, Debye-Ang):
   XX=           -119.7158   YY=           -106.6863   ZZ=           -101.1816
   XY=             -2.3209   XZ=              4.3731   YZ=             -0.0838

 Normal termination of Gaussian 16 at Thu May  6 02:01:13 2021.
