 Gaussian 16, Revision A.03,
 Gaussian 16:  EM64L-G16RevA.03 25-Dec-2016

 -------------
 #p 6-31g* mp2
 -------------

 ------------------------------------------------------
 Input file generated by CHIRIPA (05-May-2021 14:51:11)
 ------------------------------------------------------
 Symbolic Z-matrix:
 Charge =  0 Multiplicity = 1

                         Standard orientation:
 ---------------------------------------------------------------------
 Center     Atomic      Atomic             Coordinates (Angstroms)
 Number     Number       Type             X           Y           Z
 ---------------------------------------------------------------------
      1          6           0        2.245046    1.069719   -0.374138
      2          6           0        1.856121    2.495771    0.017138
      3          6           0        0.653064    3.017288   -0.769289
      4          1           0        2.466974    1.038991   -1.449660
      5          1           0        1.384763    0.405287   -0.213391
      6          1           0        2.717314    3.157074   -0.142992
      7          1           0        1.635278    2.523149    1.091892
      8          1           0       -0.222076    2.381287   -0.601266
      9          1           0        0.866107    3.018814   -1.843166
     10          1           0        0.392221    4.038296   -0.473715
     11          6           0        3.446094    0.534366    0.403428
     12          6           0        3.835019   -0.891686    0.012152
     13          6           0        5.038075   -1.413204    0.798579
     14          1           0        4.306376    1.198798    0.242681
     15          1           0        3.224166    0.565094    1.478950
     16          1           0        4.055862   -0.919064   -1.062602
     17          1           0        2.973826   -1.552989    0.172282
     18          1           0        4.825033   -1.414730    1.872456
     19          1           0        5.913216   -0.777202    0.630556
     20          1           0        5.298919   -2.434211    0.503004
     21          6           0       -2.537446   -1.456180   -0.260808
     22          6           0       -1.008494   -1.449994   -0.244957
     23          6           0       -0.406848   -2.765510   -0.740167
     24          1           0       -2.900905   -2.284784    0.362295
     25          1           0       -2.885776   -1.657838   -1.283254
     26          1           0       -0.663156   -1.247035    0.776887
     27          1           0       -0.648635   -0.621190   -0.868017
     28          1           0       -0.722949   -2.970899   -1.768028
     29          1           0       -0.737552   -3.600300   -0.113779
     30          1           0        0.687126   -2.739201   -0.720500
     31          6           0       -3.153694   -0.147905    0.231518
     32          6           0       -4.682646   -0.154091    0.215667
     33          6           0       -5.284291    1.161425    0.710878
     34          1           0       -2.805364    0.053753    1.253964
     35          1           0       -2.790235    0.680699   -0.391585
     36          1           0       -5.042505   -0.982895    0.838727
     37          1           0       -5.027984   -0.357049   -0.806177
     38          1           0       -4.953588    1.996216    0.084489
     39          1           0       -4.968191    1.366815    1.738738
     40          1           0       -6.378266    1.135115    0.691210
 ---------------------------------------------------------------------

 SCF Done:  E(RHF) =  -470.732959564     A.U. after   11 cycles
 E2 =    -0.1584142658D+01 EUMP2 =    -0.47231710222215D+03

 The electronic state is 1-A.
 Alpha  occ. eigenvalues --  -11.21656 -11.21635 -11.21599 -11.21556 -11.21457
 Alpha  occ. eigenvalues --  -11.21397 -11.21350 -11.21245 -11.21113 -11.21088
 Alpha  occ. eigenvalues --  -11.21066 -11.21053  -1.08493  -1.08381  -1.03579
 Alpha  occ. eigenvalues --   -1.03505  -0.96025  -0.95946  -0.87045  -0.86961
 Alpha  occ. eigenvalues --   -0.79709  -0.79533  -0.78413  -0.78092  -0.65141
 Alpha  occ. eigenvalues --   -0.65007  -0.61000  -0.60880  -0.59401  -0.59320
 Alpha  occ. eigenvalues --   -0.57688  -0.57524  -0.55322  -0.55217  -0.52739
 Alpha  occ. eigenvalues --   -0.52637  -0.52479  -0.52348  -0.49980  -0.49888
 Alpha  occ. eigenvalues --   -0.48143  -0.47781  -0.46774  -0.46589  -0.46108
 Alpha  occ. eigenvalues --   -0.45784  -0.45704  -0.45168  -0.43819  -0.43747
 Alpha virt. eigenvalues --    0.20681   0.22116   0.23507   0.24021   0.25583
 Alpha virt. eigenvalues --    0.26100   0.26860   0.27228   0.28687   0.29370
 Alpha virt. eigenvalues --    0.30524   0.31281   0.31695   0.31894   0.32181

 Mulliken charges:
               1
     1  C   -0.309457
     2  C   -0.298649
     3  C   -0.479179
     4  H    0.148284
     5  H    0.163197
     6  H    0.151614
     7  H    0.151644
     8  H    0.157619
     9  H    0.154688
    10  H    0.160321
    11  C   -0.297323
    12  C   -0.304230
    13  C   -0.475472
    14  H    0.149346
    15  H    0.149142
    16  H    0.151952
    17  H    0.155397
    18  H    0.155117
    19  H    0.155334
    20  H    0.160200
    21  C   -0.297166
    22  C   -0.305537
    23  C   -0.480472
    24  H    0.149803
    25  H    0.149877
    26  H    0.150967
    27  H    0.157357
    28  H    0.155759
    29  H    0.155417
    30  H    0.164426
    31  C   -0.300664
    32  C   -0.299645
    33  C   -0.475828
    34  H    0.149348
    35  H    0.151424
    36  H    0.152122
    37  H    0.152160
    38  H    0.155558
    39  H    0.155169
    40  H    0.160381
 Sum of Mulliken charges =  -0.00000

 Dipole moment (field-independent basis, Debye):
    X=             -0.0399    Y=             -0.0254    Z=             -0.0061  Tot=              0.0477
 Quadrupole moment (field-independent basis, Debye-Ang):
   XX=            -85.5113   YY=            -85.6375   ZZ=            -83.6829
   XY=              1.1609   XZ=             -0.6605   YZ=             -0.6254

 Normal termination of Gaussian 16 at Wed May  5 23:06:48 2021.
