 Gaussian 16, Revision A.03,
 Gaussian 16:  EM64L-G16RevA.03 25-Dec-2016

 -------------
 #p 6-31g* mp2
 -------------

 ------------------------------------------------------
 Input file generated by CHIRIPA (05-May-2021 14:51:12)
 ------------------------------------------------------
 Symbolic Z-matrix:
 Charge =  0 Multiplicity = 1

                         Standard orientation:
 ---------------------------------------------------------------------
 Center     Atomic      Atomic             Coordinates (Angstroms)
 Number     Number       Type             X           Y           Z
 ---------------------------------------------------------------------
      1          6           0       -4.377051    0.078935   -0.374140
      2          6           0       -5.622826    0.240595    0.497580
      3          6           0       -6.895515    0.450863   -0.323300
      4          1           0       -4.263158    0.968690   -1.008419
      5          1           0       -4.521300   -0.772708   -1.053324
      6          1           0       -5.475711    1.090826    1.175873
      7          1           0       -5.733658   -0.649564    1.129995
      8          1           0       -7.069721   -0.400744   -0.988897
      9          1           0       -6.810308    1.349535   -0.942758
     10          1           0       -7.773882    0.564096    0.319747
     11          6           0       -3.096728   -0.132077    0.432071
     12          6           0       -1.850953   -0.293737   -0.439649
     13          6           0       -0.578264   -0.504004    0.381230
     14          1           0       -2.952479    0.719566    1.111255
     15          1           0       -3.210621   -1.021832    1.066349
     16          1           0       -1.740120    0.596422   -1.072064
     17          1           0       -1.998068   -1.143968   -1.117942
     18          1           0       -0.663471   -1.402677    1.000689
     19          1           0       -0.404058    0.347602    1.046827
     20          1           0        0.300103   -0.617238   -0.261817
     21          6           0        3.439620    0.730144   -0.021998
     22          6           0        4.496630    1.834994   -0.017374
     23          6           0        3.886404    3.236858   -0.003415
     24          1           0        2.789332    0.857268   -0.898302
     25          1           0        2.797626    0.842802    0.862620
     26          1           0        5.137299    1.719458   -0.901008
     27          1           0        5.144596    1.705111    0.858918
     28          1           0        3.262572    3.376626    0.885347
     29          1           0        3.255234    3.391054   -0.884579
     30          1           0        4.659739    4.011327   -0.000309
     31          6           0        4.034158   -0.677002   -0.035933
     32          6           0        2.977149   -1.781852   -0.040557
     33          6           0        3.587375   -3.183716   -0.054515
     34          1           0        4.676152   -0.789660   -0.920550
     35          1           0        4.684447   -0.804126    0.840372
     36          1           0        2.329183   -1.651969   -0.916848
     37          1           0        2.336479   -1.666316    0.843078
     38          1           0        4.218545   -3.337913    0.826648
     39          1           0        4.211208   -3.323485   -0.943277
     40          1           0        2.814040   -3.958185   -0.057622
 ---------------------------------------------------------------------

 SCF Done:  E(RHF) =  -470.732240293     A.U. after   11 cycles
 E2 =    -0.1583447343D+01 EUMP2 =    -0.47231568763614D+03

 The electronic state is 1-A.
 Alpha  occ. eigenvalues --  -11.21591 -11.21575 -11.21546 -11.21522 -11.21383
 Alpha  occ. eigenvalues --  -11.21360 -11.21324 -11.21298 -11.21068 -11.21051
 Alpha  occ. eigenvalues --  -11.21047 -11.20879  -1.08429  -1.08371  -1.03537
 Alpha  occ. eigenvalues --   -1.03451  -0.95965  -0.95920  -0.87020  -0.86911
 Alpha  occ. eigenvalues --   -0.79701  -0.79458  -0.78265  -0.78148  -0.65049
 Alpha  occ. eigenvalues --   -0.65012  -0.60920  -0.60866  -0.59535  -0.59127
 Alpha  occ. eigenvalues --   -0.57588  -0.57524  -0.55261  -0.55194  -0.52865
 Alpha  occ. eigenvalues --   -0.52517  -0.52389  -0.52294  -0.49925  -0.49848
 Alpha  occ. eigenvalues --   -0.47986  -0.47767  -0.46635  -0.46542  -0.45803
 Alpha  occ. eigenvalues --   -0.45765  -0.45667  -0.45624  -0.43795  -0.43553
 Alpha virt. eigenvalues --    0.22150   0.23070   0.23912   0.24436   0.25603
 Alpha virt. eigenvalues --    0.26284   0.26676   0.27685   0.27916   0.29469
 Alpha virt. eigenvalues --    0.30457   0.30953   0.31724   0.31981   0.32015

 Mulliken charges:
               1
     1  C   -0.298144
     2  C   -0.299557
     3  C   -0.475660
     4  H    0.149503
     5  H    0.149334
     6  H    0.151850
     7  H    0.151835
     8  H    0.155110
     9  H    0.155127
    10  H    0.160143
    11  C   -0.298430
    12  C   -0.300086
    13  C   -0.481738
    14  H    0.149294
    15  H    0.149353
    16  H    0.151331
    17  H    0.151198
    18  H    0.153216
    19  H    0.153840
    20  H    0.171161
    21  C   -0.299864
    22  C   -0.299664
    23  C   -0.475589
    24  H    0.149305
    25  H    0.151716
    26  H    0.151811
    27  H    0.151944
    28  H    0.155075
    29  H    0.155075
    30  H    0.160196
    31  C   -0.297930
    32  C   -0.304238
    33  C   -0.475009
    34  H    0.149068
    35  H    0.149496
    36  H    0.151785
    37  H    0.158223
    38  H    0.155020
    39  H    0.154788
    40  H    0.160111
 Sum of Mulliken charges =  -0.00000

 Dipole moment (field-independent basis, Debye):
    X=              0.0476    Y=             -0.0099    Z=              0.0088  Tot=              0.0494
 Quadrupole moment (field-independent basis, Debye-Ang):
   XX=            -86.0592   YY=            -84.9727   ZZ=            -83.9471
   XY=              0.6199   XZ=             -0.3826   YZ=              0.0654

 Normal termination of Gaussian 16 at Wed May  5 19:55:32 2021.
