 Gaussian 16, Revision A.03,
 Gaussian 16:  EM64L-G16RevA.03 25-Dec-2016

 -------------
 #p 6-31g* mp2
 -------------

 ------------------------------------------------------
 Input file generated by CHIRIPA (05-May-2021 14:57:21)
 ------------------------------------------------------
 Symbolic Z-matrix:
 Charge =  0 Multiplicity = 1

                         Standard orientation:
 ---------------------------------------------------------------------
 Center     Atomic      Atomic             Coordinates (Angstroms)
 Number     Number       Type             X           Y           Z
 ---------------------------------------------------------------------
      1          6           0        3.462813    2.292211   -0.463973
      2          6           0        4.349140    1.251419   -0.760109
      3          6           0        4.034375   -0.067603   -0.420031
      4          6           0        2.819235   -0.310974    0.218323
      5          6           0        1.915301    0.704441    0.526748
      6          6           0        2.250858    2.015887    0.177380
      7          1           0        3.715406    3.313916   -0.731762
      8          1           0        5.291066    1.463062   -1.258132
      9          1           0        4.702130   -0.892366   -0.637486
     10          1           0        0.983788    0.462340    1.023828
     11          1           0        1.560595    2.822186    0.408601
     12          7           0        2.475001   -1.703353    0.583265
     13          8           0        1.398175   -1.891486    1.145127
     14          8           0        3.288535   -2.580202    0.300536
     15          6           0       -2.866991   -2.385570   -0.686798
     16          6           0       -4.017229   -1.786028   -0.163325
     17          6           0       -4.033576   -0.419906    0.133310
     18          6           0       -2.876837    0.320000   -0.107071
     19          6           0       -1.715336   -0.248389   -0.627782
     20          6           0       -1.721735   -1.616194   -0.916949
     21          1           0       -2.863127   -3.447460   -0.914331
     22          1           0       -4.908100   -2.381071    0.016438
     23          1           0       -4.910384    0.069784    0.539304
     24          1           0       -0.842564    0.370745   -0.796186
     25          1           0       -0.827012   -2.079129   -1.323407
     26          7           0       -2.882103    1.767142    0.203011
     27          8           0       -1.850102    2.397079   -0.017876
     28          8           0       -3.918132    2.244074    0.661070
 ---------------------------------------------------------------------

 SCF Done:  E(RHF) =  -868.340333618     A.U. after   16 cycles
 E2 =    -0.2600656187D+01 EUMP2 =    -0.87094098980470D+03

 The electronic state is 1-A.
 Alpha  occ. eigenvalues --  -20.61199 -20.61192 -20.61036 -20.60971 -15.86220
 Alpha  occ. eigenvalues --  -15.86038 -11.31358 -11.31037 -11.27871 -11.27777
 Alpha  occ. eigenvalues --  -11.27529 -11.27517 -11.27472 -11.27134 -11.26850
 Alpha  occ. eigenvalues --  -11.26658 -11.26494 -11.26392  -1.60279  -1.60072
 Alpha  occ. eigenvalues --   -1.39834  -1.39642  -1.19474  -1.19143  -1.08902
 Alpha  occ. eigenvalues --   -1.08597  -1.04810  -1.04480  -0.95786  -0.95504
 Alpha  occ. eigenvalues --   -0.86222  -0.85896  -0.82605  -0.82346  -0.77749
 Alpha  occ. eigenvalues --   -0.77406  -0.72435  -0.72274  -0.71613  -0.71381
 Alpha  occ. eigenvalues --   -0.70593  -0.70212  -0.65099  -0.64820  -0.64756
 Alpha  occ. eigenvalues --   -0.64448  -0.62226  -0.61746  -0.55298  -0.54975
 Alpha  occ. eigenvalues --   -0.53214  -0.52927  -0.52765  -0.52491  -0.49215
 Alpha  occ. eigenvalues --   -0.49177  -0.49045  -0.48973  -0.45283  -0.45127
 Alpha  occ. eigenvalues --   -0.37438  -0.37073  -0.36413  -0.36016
 Alpha virt. eigenvalues --    0.04649   0.05098   0.11102   0.11598   0.16230
 Alpha virt. eigenvalues --    0.16715   0.21301   0.22036   0.26956   0.27771
 Alpha virt. eigenvalues --    0.28307   0.29015   0.30965   0.31554   0.32265

 Mulliken charges:
               1
     1  C   -0.171162
     2  C   -0.217782
     3  C   -0.172757
     4  C    0.155758
     5  C   -0.183623
     6  C   -0.220266
     7  H    0.228575
     8  H    0.223904
     9  H    0.274464
    10  H    0.279612
    11  H    0.242628
    12  N    0.486111
    13  O   -0.463237
    14  O   -0.460089
    15  C   -0.170112
    16  C   -0.217840
    17  C   -0.171748
    18  C    0.157514
    19  C   -0.176784
    20  C   -0.207293
    21  H    0.228373
    22  H    0.223273
    23  H    0.273912
    24  H    0.270637
    25  H    0.229160
    26  N    0.489756
    27  O   -0.473410
    28  O   -0.457571
 Sum of Mulliken charges =  -0.00000

 Dipole moment (field-independent basis, Debye):
    X=              1.2553    Y=             -0.2257    Z=             -2.3718  Tot=              2.6930
 Quadrupole moment (field-independent basis, Debye-Ang):
   XX=            -89.8284   YY=           -111.0697   ZZ=           -105.3951
   XY=             28.2141   XZ=             -3.8806   YZ=              2.4584

 Normal termination of Gaussian 16 at Thu May  6 09:39:17 2021.
