 Gaussian 16, Revision A.03,
 Gaussian 16:  EM64L-G16RevA.03 25-Dec-2016

 -------------
 #p 6-31g* mp2
 -------------

 ------------------------------------------------------
 Input file generated by CHIRIPA (05-May-2021 14:55:25)
 ------------------------------------------------------
 Symbolic Z-matrix:
 Charge =  0 Multiplicity = 1

                         Standard orientation:
 ---------------------------------------------------------------------
 Center     Atomic      Atomic             Coordinates (Angstroms)
 Number     Number       Type             X           Y           Z
 ---------------------------------------------------------------------
      1          6           0       -1.209804    2.504882    0.210895
      2          6           0       -2.362141    2.293159    0.974972
      3          6           0       -3.158870    1.164555    0.760437
      4          6           0       -2.771885    0.264122   -0.230901
      5          6           0       -1.629545    0.447222   -1.008606
      6          6           0       -0.847822    1.582864   -0.776714
      7          1           0       -0.596714    3.384343    0.384292
      8          1           0       -2.645696    3.007527    1.742643
      9          1           0       -4.056056    0.976076    1.337457
     10          1           0       -1.372548   -0.282630   -1.766687
     11          1           0        0.046565    1.744716   -1.371626
     12          7           0       -3.607403   -0.934406   -0.467207
     13          8           0       -3.244801   -1.712717   -1.346632
     14          8           0       -4.609064   -1.072807    0.231476
     15          6           0        2.724408   -0.960300    0.078567
     16          6           0        1.884409   -1.299433    1.310385
     17          6           0        0.592505   -2.038260    0.959797
     18          1           0        2.125012   -0.347781   -0.608813
     19          1           0        2.965667   -1.887886   -0.458809
     20          1           0        1.645972   -0.371617    1.846036
     21          1           0        2.485938   -1.911055    1.995000
     22          1           0        0.814130   -2.978913    0.445351
     23          1           0       -0.030607   -1.430728    0.295540
     24          1           0        0.007443   -2.270860    1.855040
     25          6           0        4.019095   -0.221533    0.412838
     26          6           0        4.859095    0.117600   -0.818981
     27          6           0        6.150999    0.856427   -0.468392
     28          1           0        3.777836    0.706053    0.950214
     29          1           0        4.618491   -0.834052    1.100218
     30          1           0        4.257565    0.729221   -1.503595
     31          1           0        5.097531   -0.810216   -1.354631
     32          1           0        6.774111    0.248896    0.195864
     33          1           0        5.929373    1.797080    0.046054
     34          1           0        6.736061    1.089027   -1.363635
 ---------------------------------------------------------------------

 SCF Done:  E(RHF) =  -669.534933794     A.U. after   15 cycles
 E2 =    -0.2093075729D+01 EUMP2 =    -0.67162800952296D+03

 The electronic state is 1-A.
 Alpha  occ. eigenvalues --  -20.60798 -20.60787 -15.85849 -11.31254 -11.27838
 Alpha  occ. eigenvalues --  -11.27833 -11.27594 -11.26872 -11.26850 -11.22035
 Alpha  occ. eigenvalues --  -11.21809 -11.21773 -11.21723 -11.21462 -11.20971
 Alpha  occ. eigenvalues --   -1.59867  -1.39420  -1.19451  -1.08827  -1.08771
 Alpha  occ. eigenvalues --   -1.04869  -1.03791  -0.96235  -0.95655  -0.87251
 Alpha  occ. eigenvalues --   -0.86250  -0.82488  -0.79867  -0.78597  -0.77524
 Alpha  occ. eigenvalues --   -0.72068  -0.71192  -0.70556  -0.65423  -0.65098
 Alpha  occ. eigenvalues --   -0.64855  -0.62215  -0.61202  -0.59611  -0.57853
 Alpha  occ. eigenvalues --   -0.55589  -0.55350  -0.53231  -0.52961  -0.52894
 Alpha  occ. eigenvalues --   -0.52578  -0.50159  -0.48831  -0.48820  -0.48170
 Alpha  occ. eigenvalues --   -0.46915  -0.46136  -0.46061  -0.44806  -0.44068
 Alpha  occ. eigenvalues --   -0.37408  -0.36395
 Alpha virt. eigenvalues --    0.04983   0.11095   0.16389   0.20394   0.22719
 Alpha virt. eigenvalues --    0.24067   0.25318   0.26783   0.27394   0.28332
 Alpha virt. eigenvalues --    0.28729   0.30721   0.31266   0.31602   0.31908

 Mulliken charges:
               1
     1  C   -0.171170
     2  C   -0.218196
     3  C   -0.170720
     4  C    0.163372
     5  C   -0.177225
     6  C   -0.216874
     7  H    0.225983
     8  H    0.223855
     9  H    0.276066
    10  H    0.277117
    11  H    0.224535
    12  N    0.488510
    13  O   -0.460086
    14  O   -0.460329
    15  C   -0.297290
    16  C   -0.298968
    17  C   -0.480176
    18  H    0.140227
    19  H    0.152392
    20  H    0.149583
    21  H    0.152928
    22  H    0.157697
    23  H    0.157726
    24  H    0.162023
    25  C   -0.298152
    26  C   -0.298909
    27  C   -0.475652
    28  H    0.146638
    29  H    0.152140
    30  H    0.147035
    31  H    0.154172
    32  H    0.156932
    33  H    0.153756
    34  H    0.161059
 Sum of Mulliken charges =  -0.00000

 Dipole moment (field-independent basis, Debye):
    X=              2.8911    Y=              4.1840    Z=              0.8652  Tot=              5.1588
 Quadrupole moment (field-independent basis, Debye-Ang):
   XX=           -110.0538   YY=            -92.0222   ZZ=            -92.9529
   XY=            -13.2008   XZ=             -5.6603   YZ=              0.3967

 Normal termination of Gaussian 16 at Thu May  6 01:36:25 2021.
