 Gaussian 16, Revision A.03,
 Gaussian 16:  EM64L-G16RevA.03 25-Dec-2016

 -------------
 #p 6-31g* mp2
 -------------

 ------------------------------------------------------
 Input file generated by CHIRIPA (05-May-2021 14:55:19)
 ------------------------------------------------------
 Symbolic Z-matrix:
 Charge =  0 Multiplicity = 1

                         Standard orientation:
 ---------------------------------------------------------------------
 Center     Atomic      Atomic             Coordinates (Angstroms)
 Number     Number       Type             X           Y           Z
 ---------------------------------------------------------------------
      1          6           0        4.768236   -1.238349    0.803649
      2          6           0        3.531710   -1.892200    0.801840
      3          6           0        2.404038   -1.276981    0.250109
      4          6           0        2.549526   -0.001712   -0.293777
      5          6           0        3.767885    0.675574   -0.306996
      6          6           0        4.882176    0.041196    0.250201
      7          1           0        5.639041   -1.723707    1.234371
      8          1           0        3.440266   -2.885951    1.230959
      9          1           0        1.434741   -1.760373    0.235454
     10          1           0        3.827887    1.665777   -0.742100
     11          1           0        5.841218    0.551375    0.250217
     12          7           0        1.362793    0.659734   -0.880764
     13          8           0        1.517271    1.783599   -1.353735
     14          8           0        0.300625    0.041787   -0.856758
     15          6           0       -3.274901    0.834316    0.036080
     16          6           0       -2.770719    1.691601    1.197478
     17          6           0       -2.296340    3.074283    0.749203
     18          1           0       -2.472404    0.725354   -0.706262
     19          1           0       -4.097830    1.359687   -0.468071
     20          1           0       -1.949903    1.164149    1.700143
     21          1           0       -3.574448    1.798374    1.937232
     22          1           0       -3.111238    3.623338    0.266419
     23          1           0       -1.477462    2.985510    0.027982
     24          1           0       -1.940177    3.670318    1.595222
     25          6           0       -3.752591   -0.550856    0.468329
     26          6           0       -4.256774   -1.408142   -0.693069
     27          6           0       -4.731152   -2.790822   -0.244793
     28          1           0       -2.929662   -1.076228    0.972480
     29          1           0       -4.555088   -0.441895    1.210671
     30          1           0       -3.453044   -1.514915   -1.432822
     31          1           0       -5.077590   -0.880690   -1.195734
     32          1           0       -5.550030   -2.702050    0.476427
     33          1           0       -3.916255   -3.339879    0.237990
     34          1           0       -5.087315   -3.386859   -1.090813
 ---------------------------------------------------------------------

 SCF Done:  E(RHF) =  -669.536832195     A.U. after   15 cycles
 E2 =    -0.2091673882D+01 EUMP2 =    -0.67162850607740D+03

 The electronic state is 1-A.
 Alpha  occ. eigenvalues --  -20.61131 -20.61125 -15.86143 -11.31396 -11.27950
 Alpha  occ. eigenvalues --  -11.27944 -11.27674 -11.26940 -11.26930 -11.20651
 Alpha  occ. eigenvalues --  -11.20399 -11.20317 -11.20277 -11.19803 -11.19700
 Alpha  occ. eigenvalues --   -1.60175  -1.39733  -1.19556  -1.08973  -1.07209
 Alpha  occ. eigenvalues --   -1.04941  -1.02411  -0.95826  -0.94857  -0.86345
 Alpha  occ. eigenvalues --   -0.85878  -0.82663  -0.78500  -0.77724  -0.76989
 Alpha  occ. eigenvalues --   -0.72367  -0.71480  -0.70664  -0.65216  -0.64945
 Alpha  occ. eigenvalues --   -0.63808  -0.62289  -0.59800  -0.58262  -0.56474
 Alpha  occ. eigenvalues --   -0.55448  -0.54125  -0.53276  -0.53032  -0.51616
 Alpha  occ. eigenvalues --   -0.51287  -0.49179  -0.49119  -0.48745  -0.46816
 Alpha  occ. eigenvalues --   -0.45524  -0.45157  -0.44563  -0.44315  -0.42629
 Alpha  occ. eigenvalues --   -0.37530  -0.36539
 Alpha virt. eigenvalues --    0.04783   0.11118   0.16285   0.21220   0.23982
 Alpha virt. eigenvalues --    0.25416   0.27137   0.27586   0.28369   0.28795
 Alpha virt. eigenvalues --    0.29072   0.30885   0.32425   0.32439   0.32699

 Mulliken charges:
               1
     1  C   -0.170318
     2  C   -0.218537
     3  C   -0.170676
     4  C    0.157907
     5  C   -0.170267
     6  C   -0.218613
     7  H    0.226432
     8  H    0.224254
     9  H    0.275607
    10  H    0.276178
    11  H    0.224226
    12  N    0.491004
    13  O   -0.458721
    14  O   -0.462613
    15  C   -0.308476
    16  C   -0.295354
    17  C   -0.481168
    18  H    0.179794
    19  H    0.142545
    20  H    0.148580
    21  H    0.144094
    22  H    0.150724
    23  H    0.172201
    24  H    0.152349
    25  C   -0.295536
    26  C   -0.300190
    27  C   -0.474510
    28  H    0.146542
    29  H    0.143639
    30  H    0.157218
    31  H    0.149886
    32  H    0.152935
    33  H    0.151431
    34  H    0.157431
 Sum of Mulliken charges =  -0.00000

 Dipole moment (field-independent basis, Debye):
    X=              4.6104    Y=             -2.3200    Z=              1.8672  Tot=              5.4886
 Quadrupole moment (field-independent basis, Debye-Ang):
   XX=            -72.7078   YY=            -93.3268   ZZ=            -96.7966
   XY=             -4.3015   XZ=              3.9727   YZ=             -0.5836

 Normal termination of Gaussian 16 at Thu May  6 07:41:04 2021.
