 Gaussian 16, Revision A.03,
 Gaussian 16:  EM64L-G16RevA.03 25-Dec-2016

 -------------
 #p 6-31g* mp2
 -------------

 ------------------------------------------------------
 Input file generated by CHIRIPA (05-May-2021 14:51:12)
 ------------------------------------------------------
 Symbolic Z-matrix:
 Charge =  0 Multiplicity = 1

                         Standard orientation:
 ---------------------------------------------------------------------
 Center     Atomic      Atomic             Coordinates (Angstroms)
 Number     Number       Type             X           Y           Z
 ---------------------------------------------------------------------
      1          6           0        3.106461   -0.041843   -0.093515
      2          6           0        4.143034   -0.699881    0.817796
      3          6           0        4.369732   -2.175225    0.486491
      4          1           0        2.156539   -0.587647   -0.011717
      5          1           0        3.433241   -0.137990   -1.138200
      6          1           0        3.815077   -0.601305    1.860553
      7          1           0        5.090545   -0.152331    0.733964
      8          1           0        4.720512   -2.289085   -0.544329
      9          1           0        3.437797   -2.740610    0.588661
     10          1           0        5.114414   -2.625858    1.149995
     11          6           0        2.868876    1.433156    0.225326
     12          6           0        1.832304    2.091194   -0.685985
     13          6           0        1.605606    3.566538   -0.354680
     14          1           0        2.542096    1.529303    1.270011
     15          1           0        3.818798    1.978960    0.143528
     16          1           0        0.884793    1.543644   -0.602153
     17          1           0        2.160261    1.992618   -1.728742
     18          1           0        2.537540    4.131923   -0.456850
     19          1           0        1.254825    3.680398    0.676140
     20          1           0        0.860923    4.017171   -1.018184
     21          6           0       -3.739804   -0.629724    0.049757
     22          6           0       -4.177126    0.793169    0.399201
     23          6           0       -5.684497    0.909025    0.627683
     24          1           0       -4.275092   -0.960269   -0.850883
     25          1           0       -4.042045   -1.308071    0.859627
     26          1           0       -3.872925    1.468849   -0.410451
     27          1           0       -3.640592    1.120436    1.299002
     28          1           0       -6.000771    0.258070    1.449162
     29          1           0       -6.234426    0.608462   -0.270004
     30          1           0       -5.975232    1.934486    0.876202
     31          6           0       -2.235534   -0.761589   -0.181568
     32          6           0       -1.798212   -2.184482   -0.531012
     33          6           0       -0.290840   -2.300338   -0.759494
     34          1           0       -1.933293   -0.083243   -0.991439
     35          1           0       -1.700245   -0.431045    0.719072
     36          1           0       -2.334747   -2.511749   -1.430814
     37          1           0       -2.102412   -2.860161    0.278639
     38          1           0        0.259089   -1.999775    0.138192
     39          1           0        0.025434   -1.649383   -1.580974
     40          1           0       -0.000106   -3.325800   -1.008013
 ---------------------------------------------------------------------

 SCF Done:  E(RHF) =  -470.733106902     A.U. after   11 cycles
 E2 =    -0.1583363070D+01 EUMP2 =    -0.47231646997174D+03

 The electronic state is 1-A.
 Alpha  occ. eigenvalues --  -11.21665 -11.21638 -11.21534 -11.21523 -11.21472
 Alpha  occ. eigenvalues --  -11.21407 -11.21307 -11.21205 -11.21134 -11.21098
 Alpha  occ. eigenvalues --  -11.21026 -11.21000  -1.08491  -1.08344  -1.03585
 Alpha  occ. eigenvalues --   -1.03458  -0.96043  -0.95901  -0.87066  -0.86914
 Alpha  occ. eigenvalues --   -0.79672  -0.79512  -0.78346  -0.78104  -0.65129
 Alpha  occ. eigenvalues --   -0.64981  -0.61004  -0.60840  -0.59405  -0.59274
 Alpha  occ. eigenvalues --   -0.57704  -0.57473  -0.55343  -0.55184  -0.52728
 Alpha  occ. eigenvalues --   -0.52625  -0.52542  -0.52257  -0.50007  -0.49829
 Alpha  occ. eigenvalues --   -0.48060  -0.47821  -0.46732  -0.46512  -0.46059
 Alpha  occ. eigenvalues --   -0.45764  -0.45659  -0.45266  -0.43840  -0.43703
 Alpha virt. eigenvalues --    0.21057   0.22995   0.23793   0.24192   0.25911
 Alpha virt. eigenvalues --    0.26418   0.27135   0.27442   0.27930   0.29955
 Alpha virt. eigenvalues --    0.30336   0.31585   0.31791   0.31951   0.32091

 Mulliken charges:
               1
     1  C   -0.307467
     2  C   -0.299138
     3  C   -0.476252
     4  H    0.160760
     5  H    0.148649
     6  H    0.150906
     7  H    0.151537
     8  H    0.155145
     9  H    0.155876
    10  H    0.159729
    11  C   -0.297453
    12  C   -0.301968
    13  C   -0.475401
    14  H    0.148617
    15  H    0.149196
    16  H    0.154255
    17  H    0.151341
    18  H    0.155007
    19  H    0.155042
    20  H    0.159844
    21  C   -0.298311
    22  C   -0.299718
    23  C   -0.475759
    24  H    0.149935
    25  H    0.149703
    26  H    0.152143
    27  H    0.151905
    28  H    0.155214
    29  H    0.155268
    30  H    0.160447
    31  C   -0.299717
    32  C   -0.299800
    33  C   -0.479784
    34  H    0.150794
    35  H    0.149170
    36  H    0.152357
    37  H    0.152041
    38  H    0.157031
    39  H    0.157849
    40  H    0.161008
 Sum of Mulliken charges =  -0.00000

 Dipole moment (field-independent basis, Debye):
    X=             -0.0637    Y=             -0.0394    Z=             -0.0230  Tot=              0.0783
 Quadrupole moment (field-independent basis, Debye-Ang):
   XX=            -85.5944   YY=            -85.9268   ZZ=            -83.4007
   XY=              0.6939   XZ=             -0.1432   YZ=             -0.5073

 Normal termination of Gaussian 16 at Wed May  5 18:18:01 2021.
