 Gaussian 16, Revision A.03,
 Gaussian 16:  EM64L-G16RevA.03 25-Dec-2016

 -------------
 #p 6-31g* mp2
 -------------

 ------------------------------------------------------
 Input file generated by CHIRIPA (05-May-2021 14:53:14)
 ------------------------------------------------------
 Symbolic Z-matrix:
 Charge =  0 Multiplicity = 1

                         Standard orientation:
 ---------------------------------------------------------------------
 Center     Atomic      Atomic             Coordinates (Angstroms)
 Number     Number       Type             X           Y           Z
 ---------------------------------------------------------------------
      1          6           0       -2.703940   -1.034797   -0.734582
      2          6           0       -1.374974   -1.534476   -0.166995
      3          6           0       -0.535476   -2.285288   -1.201074
      4          1           0       -3.274862   -1.889998   -1.121395
      5          1           0       -2.504430   -0.378270   -1.592815
      6          1           0       -1.576883   -2.188761    0.690769
      7          1           0       -0.807232   -0.678008    0.218685
      8          1           0       -0.304963   -1.638072   -2.053468
      9          1           0       -1.078987   -3.157408   -1.578702
     10          1           0        0.410151   -2.633609   -0.774083
     11          6           0       -3.554405   -0.282233    0.287222
     12          6           0       -4.883371    0.217446   -0.280365
     13          6           0       -5.722868    0.968258    0.753714
     14          1           0       -3.753914   -0.938760    1.145455
     15          1           0       -2.983483    0.572968    0.674035
     16          1           0       -5.451112   -0.639022   -0.666045
     17          1           0       -4.681462    0.871731   -1.138129
     18          1           0       -5.179358    1.840378    1.131342
     19          1           0       -5.953381    0.321042    1.606108
     20          1           0       -6.668496    1.316579    0.326724
     21          6           0        3.761109   -1.588679    0.632666
     22          6           0        4.194712   -0.691160   -0.348644
     23          6           0        3.473207    0.477272   -0.610834
     24          6           0        2.317397    0.717789    0.130480
     25          6           0        1.859704   -0.157001    1.114629
     26          6           0        2.597041   -1.319210    1.359889
     27          1           0        4.327741   -2.493928    0.829765
     28          1           0        5.098375   -0.897847   -0.914965
     29          1           0        3.786225    1.189246   -1.364844
     30          1           0        0.955008    0.076285    1.662828
     31          1           0        2.257923   -2.014438    2.122583
     32          7           0        1.545191    1.951462   -0.138126
     33          8           0        0.530196    2.140350    0.528765
     34          8           0        1.969553    2.706166   -1.010466
 ---------------------------------------------------------------------

 SCF Done:  E(RHF) =  -669.535381483     A.U. after   15 cycles
 E2 =    -0.2093545993D+01 EUMP2 =    -0.67162892747648D+03

 The electronic state is 1-A.
 Alpha  occ. eigenvalues --  -20.60928 -20.60921 -15.85958 -11.31260 -11.27838
 Alpha  occ. eigenvalues --  -11.27828 -11.27587 -11.26839 -11.26825 -11.21471
 Alpha  occ. eigenvalues --  -11.21177 -11.21077 -11.21012 -11.20924 -11.20651
 Alpha  occ. eigenvalues --   -1.59987  -1.39544  -1.19447  -1.08850  -1.08109
 Alpha  occ. eigenvalues --   -1.04847  -1.03262  -0.95725  -0.95667  -0.86724
 Alpha  occ. eigenvalues --   -0.86247  -0.82524  -0.79365  -0.77947  -0.77548
 Alpha  occ. eigenvalues --   -0.72180  -0.71305  -0.70567  -0.65104  -0.64910
 Alpha  occ. eigenvalues --   -0.64668  -0.62217  -0.60649  -0.59111  -0.57343
 Alpha  occ. eigenvalues --   -0.55353  -0.54986  -0.53168  -0.52945  -0.52379
 Alpha  occ. eigenvalues --   -0.52100  -0.49637  -0.48946  -0.48933  -0.47660
 Alpha  occ. eigenvalues --   -0.46385  -0.45487  -0.45385  -0.44848  -0.43492
 Alpha  occ. eigenvalues --   -0.37410  -0.36383
 Alpha virt. eigenvalues --    0.04932   0.11121   0.16408   0.21141   0.23226
 Alpha virt. eigenvalues --    0.24537   0.26218   0.27072   0.27657   0.28235
 Alpha virt. eigenvalues --    0.28970   0.30718   0.31614   0.31909   0.32006

 Mulliken charges:
               1
     1  C   -0.296078
     2  C   -0.307784
     3  C   -0.477072
     4  H    0.147188
     5  H    0.153643
     6  H    0.145445
     7  H    0.157617
     8  H    0.156848
     9  H    0.153977
    10  H    0.156913
    11  C   -0.301899
    12  C   -0.299531
    13  C   -0.476194
    14  H    0.144978
    15  H    0.160705
    16  H    0.149312
    17  H    0.154588
    18  H    0.158787
    19  H    0.152809
    20  H    0.159208
    21  C   -0.170814
    22  C   -0.218259
    23  C   -0.170480
    24  C    0.159740
    25  C   -0.168375
    26  C   -0.219878
    27  H    0.226176
    28  H    0.223797
    29  H    0.275743
    30  H    0.276954
    31  H    0.224522
    32  N    0.488649
    33  O   -0.462172
    34  O   -0.459062
 Sum of Mulliken charges =  -0.00000

 Dipole moment (field-independent basis, Debye):
    X=              2.8368    Y=             -4.1878    Z=              0.9397  Tot=              5.1447
 Quadrupole moment (field-independent basis, Debye-Ang):
   XX=            -80.7329   YY=           -101.1593   ZZ=            -92.7550
   XY=             -6.9023   XZ=              0.3058   YZ=             -1.6548

 Normal termination of Gaussian 16 at Wed May  5 17:06:04 2021.
