 Gaussian 16, Revision A.03,
 Gaussian 16:  EM64L-G16RevA.03 25-Dec-2016

 -------------
 #p 6-31g* mp2
 -------------

 ------------------------------------------------------
 Input file generated by CHIRIPA (05-May-2021 14:55:23)
 ------------------------------------------------------
 Symbolic Z-matrix:
 Charge =  0 Multiplicity = 1

                         Standard orientation:
 ---------------------------------------------------------------------
 Center     Atomic      Atomic             Coordinates (Angstroms)
 Number     Number       Type             X           Y           Z
 ---------------------------------------------------------------------
      1          6           0       -5.876796    0.191737   -0.156484
      2          6           0       -4.962513    1.107948   -0.686735
      3          6           0       -3.589455    0.849038   -0.639558
      4          6           0       -3.163633   -0.341325   -0.052192
      5          6           0       -4.049777   -1.273923    0.484743
      6          6           0       -5.418318   -0.994184    0.426535
      7          1           0       -6.941666    0.400955   -0.197417
      8          1           0       -5.315709    2.029763   -1.140115
      9          1           0       -2.859785    1.540907   -1.042443
     10          1           0       -3.667511   -2.184257    0.930370
     11          1           0       -6.126070   -1.707552    0.839133
     12          7           0       -1.712428   -0.626447    0.003592
     13          8           0       -1.362760   -1.682401    0.526402
     14          8           0       -0.952122    0.211427   -0.476552
     15          6           0        5.061709    0.181171   -0.137263
     16          6           0        5.314515   -1.326101   -0.090286
     17          6           0        6.731509   -1.701673   -0.524876
     18          1           0        5.242326    0.545187   -1.157956
     19          1           0        5.791107    0.688577    0.509197
     20          1           0        4.583976   -1.830626   -0.735562
     21          1           0        5.133090   -1.686603    0.930371
     22          1           0        7.472761   -1.224807    0.124544
     23          1           0        6.920527   -1.369649   -1.550855
     24          1           0        6.890517   -2.783747   -0.483740
     25          6           0        3.649481    0.572325    0.294410
     26          6           0        3.396675    2.079595    0.247432
     27          6           0        1.979681    2.455167    0.682023
     28          1           0        2.920083    0.064918   -0.352051
     29          1           0        3.468864    0.208307    1.315103
     30          1           0        3.578101    2.440099   -0.773224
     31          1           0        4.127214    2.584121    0.892709
     32          1           0        1.790662    2.123143    1.708002
     33          1           0        1.238430    1.978302    0.032602
     34          1           0        1.820673    3.537242    0.640887
 ---------------------------------------------------------------------

 SCF Done:  E(RHF) =  -669.536162007     A.U. after   15 cycles
 E2 =    -0.2090793117D+01 EUMP2 =    -0.67162695512411D+03

 The electronic state is 1-A.
 Alpha  occ. eigenvalues --  -20.60940 -20.60934 -15.85978 -11.31289 -11.27852
 Alpha  occ. eigenvalues --  -11.27848 -11.27590 -11.26859 -11.26849 -11.20691
 Alpha  occ. eigenvalues --  -11.20433 -11.20391 -11.20342 -11.20086 -11.19631
 Alpha  occ. eigenvalues --   -1.59999  -1.39557  -1.19457  -1.08863  -1.07338
 Alpha  occ. eigenvalues --   -1.04853  -1.02460  -0.95708  -0.94899  -0.86254
 Alpha  occ. eigenvalues --   -0.85916  -0.82543  -0.78541  -0.77595  -0.77111
 Alpha  occ. eigenvalues --   -0.72207  -0.71313  -0.70567  -0.65115  -0.64856
 Alpha  occ. eigenvalues --   -0.63973  -0.62200  -0.59858  -0.58299  -0.56505
 Alpha  occ. eigenvalues --   -0.55358  -0.54175  -0.53185  -0.52945  -0.51637
 Alpha  occ. eigenvalues --   -0.51306  -0.49017  -0.48956  -0.48761  -0.46840
 Alpha  occ. eigenvalues --   -0.45582  -0.44968  -0.44664  -0.44522  -0.42717
 Alpha  occ. eigenvalues --   -0.37436  -0.36454
 Alpha virt. eigenvalues --    0.04925   0.11201   0.16412   0.21317   0.23917
 Alpha virt. eigenvalues --    0.25389   0.27247   0.27703   0.28117   0.28651
 Alpha virt. eigenvalues --    0.29139   0.30873   0.32199   0.32605   0.32780

 Mulliken charges:
               1
     1  C   -0.170594
     2  C   -0.218553
     3  C   -0.170521
     4  C    0.157681
     5  C   -0.170602
     6  C   -0.218597
     7  H    0.225973
     8  H    0.223852
     9  H    0.275753
    10  H    0.275846
    11  H    0.223785
    12  N    0.492787
    13  O   -0.458891
    14  O   -0.464620
    15  C   -0.297786
    16  C   -0.299135
    17  C   -0.475133
    18  H    0.147007
    19  H    0.145772
    20  H    0.154524
    21  H    0.151758
    22  H    0.153139
    23  H    0.153569
    24  H    0.158290
    25  C   -0.299682
    26  C   -0.298278
    27  C   -0.484612
    28  H    0.162129
    29  H    0.149167
    30  H    0.147828
    31  H    0.145892
    32  H    0.151778
    33  H    0.180569
    34  H    0.149905
 Sum of Mulliken charges =  -0.00000

 Dipole moment (field-independent basis, Debye):
    X=             -5.4670    Y=              0.8677    Z=             -0.2473  Tot=              5.5410
 Quadrupole moment (field-independent basis, Debye-Ang):
   XX=            -65.0475   YY=            -92.6838   ZZ=            -93.6576
   XY=             -0.4889   XZ=              0.8810   YZ=             -2.6124

 Normal termination of Gaussian 16 at Wed May  5 22:20:08 2021.
