 Gaussian 16, Revision A.03,
 Gaussian 16:  EM64L-G16RevA.03 25-Dec-2016

 -------------
 #p 6-31g* mp2
 -------------

 ------------------------------------------------------
 Input file generated by CHIRIPA (05-May-2021 14:51:08)
 ------------------------------------------------------
 Symbolic Z-matrix:
 Charge =  0 Multiplicity = 1

                         Standard orientation:
 ---------------------------------------------------------------------
 Center     Atomic      Atomic             Coordinates (Angstroms)
 Number     Number       Type             X           Y           Z
 ---------------------------------------------------------------------
      1          6           0       -2.153421   -1.394053    0.330629
      2          6           0       -1.098963   -1.394359    1.437925
      3          6           0       -0.562736   -2.793307    1.743210
      4          1           0       -2.983952   -2.050734    0.623774
      5          1           0       -1.718483   -1.827909   -0.580410
      6          1           0       -1.535340   -0.959362    2.346202
      7          1           0       -0.270935   -0.737451    1.142194
      8          1           0       -0.102233   -3.232272    0.852229
      9          1           0       -1.373822   -3.455444    2.063078
     10          1           0        0.189721   -2.770300    2.537653
     11          6           0       -2.699058   -0.002726    0.014057
     12          6           0       -3.753516   -0.002419   -1.093239
     13          6           0       -4.289743    1.396528   -1.398524
     14          1           0       -3.133996    0.431130    0.925097
     15          1           0       -1.868528    0.653955   -0.279088
     16          1           0       -4.581544   -0.659328   -0.797508
     17          1           0       -3.317139   -0.437417   -2.001516
     18          1           0       -3.478657    2.058665   -1.718392
     19          1           0       -4.750246    1.835494   -0.507543
     20          1           0       -5.042200    1.373521   -2.192967
     21          6           0        2.556489    0.278556   -0.797009
     22          6           0        3.335256   -1.006207   -0.512596
     23          6           0        3.588024   -1.835367   -1.772119
     24          1           0        1.597407    0.021918   -1.267373
     25          1           0        3.112022    0.881451   -1.528648
     26          1           0        2.779095   -1.605858    0.219331
     27          1           0        4.292513   -0.746491   -0.042681
     28          1           0        4.163181   -1.258872   -2.503862
     29          1           0        2.641162   -2.123121   -2.240362
     30          1           0        4.146129   -2.749250   -1.545849
     31          6           0        2.295991    1.118223    0.452322
     32          6           0        1.517223    2.402986    0.167911
     33          6           0        1.264455    3.232146    1.427432
     34          1           0        1.740458    0.515328    1.183961
     35          1           0        3.255073    1.374861    0.922687
     36          1           0        0.559965    2.143271   -0.302006
     37          1           0        2.073385    3.002637   -0.564018
     38          1           0        2.211317    3.519900    1.895676
     39          1           0        0.689298    2.655650    2.159176
     40          1           0        0.706351    4.146029    1.201163
 ---------------------------------------------------------------------

 SCF Done:  E(RHF) =  -470.733310907     A.U. after   11 cycles
 E2 =    -0.1584145055D+01 EUMP2 =    -0.47231745596174D+03

 The electronic state is 1-A.
 Alpha  occ. eigenvalues --  -11.21663 -11.21647 -11.21635 -11.21626 -11.21473
 Alpha  occ. eigenvalues --  -11.21439 -11.21414 -11.21372 -11.21146 -11.21101
 Alpha  occ. eigenvalues --  -11.21100 -11.21070  -1.08520  -1.08443  -1.03590
 Alpha  occ. eigenvalues --   -1.03553  -0.96040  -0.96000  -0.87055  -0.87015
 Alpha  occ. eigenvalues --   -0.79687  -0.79590  -0.78333  -0.78260  -0.65412
 Alpha  occ. eigenvalues --   -0.64851  -0.60992  -0.60942  -0.59408  -0.59367
 Alpha  occ. eigenvalues --   -0.57660  -0.57604  -0.55358  -0.55265  -0.52728
 Alpha  occ. eigenvalues --   -0.52693  -0.52471  -0.52419  -0.50019  -0.49922
 Alpha  occ. eigenvalues --   -0.48006  -0.47938  -0.46852  -0.46541  -0.46086
 Alpha  occ. eigenvalues --   -0.45803  -0.45703  -0.45436  -0.43844  -0.43809
 Alpha virt. eigenvalues --    0.18790   0.22394   0.23537   0.24787   0.25548
 Alpha virt. eigenvalues --    0.26412   0.27181   0.27711   0.28552   0.29806
 Alpha virt. eigenvalues --    0.31028   0.31483   0.31743   0.31774   0.32352

 Mulliken charges:
               1
     1  C   -0.297481
     2  C   -0.309119
     3  C   -0.476033
     4  H    0.150151
     5  H    0.149151
     6  H    0.152086
     7  H    0.160247
     8  H    0.155476
     9  H    0.155771
    10  H    0.160381
    11  C   -0.302418
    12  C   -0.299577
    13  C   -0.475773
    14  H    0.149964
    15  H    0.152497
    16  H    0.152239
    17  H    0.151956
    18  H    0.155222
    19  H    0.155352
    20  H    0.160462
    21  C   -0.298812
    22  C   -0.301296
    23  C   -0.475595
    24  H    0.148811
    25  H    0.149972
    26  H    0.153608
    27  H    0.152227
    28  H    0.155283
    29  H    0.154664
    30  H    0.160549
    31  C   -0.303833
    32  C   -0.303187
    33  C   -0.475718
    34  H    0.154437
    35  H    0.150508
    36  H    0.154090
    37  H    0.152215
    38  H    0.155144
    39  H    0.156032
    40  H    0.160347
 Sum of Mulliken charges =  -0.00000

 Dipole moment (field-independent basis, Debye):
    X=             -0.0056    Y=             -0.0014    Z=              0.0165  Tot=              0.0175
 Quadrupole moment (field-independent basis, Debye-Ang):
   XX=            -83.6505   YY=            -85.8936   ZZ=            -85.0417
   XY=              1.1897   XZ=             -0.5968   YZ=             -0.4379

 Normal termination of Gaussian 16 at Wed May  5 22:56:56 2021.
