 Gaussian 16, Revision A.03,
 Gaussian 16:  EM64L-G16RevA.03 25-Dec-2016

 -------------
 #p 6-31g* mp2
 -------------

 ------------------------------------------------------
 Input file generated by CHIRIPA (05-May-2021 14:55:25)
 ------------------------------------------------------
 Symbolic Z-matrix:
 Charge =  0 Multiplicity = 1

                         Standard orientation:
 ---------------------------------------------------------------------
 Center     Atomic      Atomic             Coordinates (Angstroms)
 Number     Number       Type             X           Y           Z
 ---------------------------------------------------------------------
      1          6           0        5.028980    1.076342   -0.589960
      2          6           0        5.235248   -0.194751   -0.043795
      3          6           0        4.149722   -1.021931    0.259446
      4          6           0        2.865667   -0.543968    0.002458
      5          6           0        2.627694    0.717505   -0.540996
      6          6           0        3.728154    1.527618   -0.836383
      7          1           0        5.878043    1.712286   -0.822474
      8          1           0        6.244378   -0.547840    0.148641
      9          1           0        4.280765   -2.010335    0.682888
     10          1           0        1.610060    1.041857   -0.721648
     11          1           0        3.564961    2.514308   -1.260477
     12          7           0        1.708564   -1.410632    0.319328
     13          8           0        0.587173   -0.966225    0.083485
     14          8           0        1.944927   -2.517921    0.797534
     15          6           0       -3.680588    1.240508    0.029153
     16          6           0       -2.387792    1.502528    0.802463
     17          6           0       -1.937321    2.961534    0.723896
     18          1           0       -3.535594    1.524878   -1.022064
     19          1           0       -4.473388    1.891695    0.422620
     20          1           0       -1.598018    0.850050    0.408578
     21          1           0       -2.535819    1.217322    1.851921
     22          1           0       -2.705264    3.624509    1.135394
     23          1           0       -1.762133    3.255152   -0.316150
     24          1           0       -1.011350    3.126497    1.283562
     25          6           0       -4.143722   -0.213611    0.098247
     26          6           0       -5.436518   -0.475631   -0.675063
     27          6           0       -5.886989   -1.934637   -0.596497
     28          1           0       -3.350921   -0.864799   -0.295220
     29          1           0       -4.288715   -0.497981    1.149463
     30          1           0       -5.288491   -0.190425   -1.724521
     31          1           0       -6.226292    0.176847   -0.281177
     32          1           0       -6.062176   -2.228254    0.443550
     33          1           0       -5.119047   -2.597612   -1.007994
     34          1           0       -6.812959   -2.099600   -1.156163
 ---------------------------------------------------------------------

 SCF Done:  E(RHF) =  -669.536157532     A.U. after   15 cycles
 E2 =    -0.2091063733D+01 EUMP2 =    -0.67162722126468D+03

 The electronic state is 1-A.
 Alpha  occ. eigenvalues --  -20.60937 -20.60927 -15.85977 -11.31285 -11.27848
 Alpha  occ. eigenvalues --  -11.27844 -11.27584 -11.26854 -11.26844 -11.20897
 Alpha  occ. eigenvalues --  -11.20692 -11.20643 -11.20605 -11.20467 -11.20395
 Alpha  occ. eigenvalues --   -1.59998  -1.39555  -1.19453  -1.08859  -1.07641
 Alpha  occ. eigenvalues --   -1.04849  -1.02825  -0.95704  -0.95315  -0.86331
 Alpha  occ. eigenvalues --   -0.86249  -0.82541  -0.78863  -0.77613  -0.77398
 Alpha  occ. eigenvalues --   -0.72204  -0.71312  -0.70563  -0.65113  -0.64852
 Alpha  occ. eigenvalues --   -0.64266  -0.62197  -0.60223  -0.58678  -0.56909
 Alpha  occ. eigenvalues --   -0.55354  -0.54616  -0.53181  -0.52940  -0.52037
 Alpha  occ. eigenvalues --   -0.51731  -0.49264  -0.48955  -0.48947  -0.47185
 Alpha  occ. eigenvalues --   -0.45874  -0.45055  -0.44971  -0.44760  -0.43064
 Alpha  occ. eigenvalues --   -0.37433  -0.36450
 Alpha virt. eigenvalues --    0.04928   0.11203   0.16420   0.20997   0.23404
 Alpha virt. eigenvalues --    0.24544   0.26942   0.27446   0.27842   0.28597
 Alpha virt. eigenvalues --    0.28958   0.30764   0.31798   0.32191   0.32344

 Mulliken charges:
               1
     1  C   -0.170582
     2  C   -0.218580
     3  C   -0.170883
     4  C    0.157830
     5  C   -0.170892
     6  C   -0.218748
     7  H    0.226002
     8  H    0.223782
     9  H    0.275789
    10  H    0.276488
    11  H    0.224154
    12  N    0.494580
    13  O   -0.467153
    14  O   -0.458974
    15  C   -0.297063
    16  C   -0.311282
    17  C   -0.475788
    18  H    0.145814
    19  H    0.145254
    20  H    0.177171
    21  H    0.151323
    22  H    0.153715
    23  H    0.149069
    24  H    0.155343
    25  C   -0.300318
    26  C   -0.299101
    27  C   -0.475460
    28  H    0.160858
    29  H    0.149302
    30  H    0.149741
    31  H    0.148944
    32  H    0.154899
    33  H    0.157593
    34  H    0.157176
 Sum of Mulliken charges =  -0.00000

 Dipole moment (field-independent basis, Debye):
    X=              4.3007    Y=              2.8651    Z=             -1.1052  Tot=              5.2845
 Quadrupole moment (field-independent basis, Debye-Ang):
   XX=            -70.4541   YY=            -97.4280   ZZ=            -94.4175
   XY=              3.9727   XZ=             -2.6663   YZ=             -0.7605

 Normal termination of Gaussian 16 at Thu May  6 16:02:51 2021.
