 Gaussian 16, Revision A.03,
 Gaussian 16:  EM64L-G16RevA.03 25-Dec-2016

 -------------
 #p 6-31g* mp2
 -------------

 ------------------------------------------------------
 Input file generated by CHIRIPA (05-May-2021 14:57:22)
 ------------------------------------------------------
 Symbolic Z-matrix:
 Charge =  0 Multiplicity = 1

                         Standard orientation:
 ---------------------------------------------------------------------
 Center     Atomic      Atomic             Coordinates (Angstroms)
 Number     Number       Type             X           Y           Z
 ---------------------------------------------------------------------
      1          6           0        0.880161   -1.251249    0.993599
      2          6           0        1.575699   -1.856519   -0.058255
      3          6           0        2.794607   -1.331939   -0.498285
      4          6           0        3.291013   -0.195864    0.139057
      5          6           0        2.621637    0.429873    1.189618
      6          6           0        1.404425   -0.111993    1.613086
      7          1           0       -0.066058   -1.665469    1.328992
      8          1           0        1.170946   -2.741373   -0.541218
      9          1           0        3.353898   -1.780496   -1.310324
     10          1           0        3.050386    1.310959    1.651440
     11          1           0        0.866445    0.360166    2.430207
     12          7           0        4.580519    0.368635   -0.318017
     13          8           0        4.996517    1.370347    0.260046
     14          8           0        5.150818   -0.201311   -1.245679
     15          6           0       -2.150261    2.629848   -0.370223
     16          6           0       -3.469916    2.426391    0.046479
     17          6           0       -3.994756    1.133727    0.136525
     18          6           0       -3.168225    0.062586   -0.199322
     19          6           0       -1.849451    0.232861   -0.617810
     20          6           0       -1.345659    1.534365   -0.700454
     21          1           0       -1.750729    3.637455   -0.437297
     22          1           0       -4.097081    3.275278    0.303574
     23          1           0       -5.012885    0.947599    0.456194
     24          1           0       -1.248513   -0.633152   -0.867439
     25          1           0       -0.320432    1.689373   -1.024377
     26          7           0       -3.712708   -1.310579   -0.107913
     27          8           0       -2.964056   -2.237538   -0.409414
     28          8           0       -4.877816   -1.433904    0.263505
 ---------------------------------------------------------------------

 SCF Done:  E(RHF) =  -868.338532722     A.U. after   16 cycles
 E2 =    -0.2601995147D+01 EUMP2 =    -0.87094052786943D+03

 The electronic state is 1-A.
 Alpha  occ. eigenvalues --  -20.61624 -20.61574 -20.61184 -20.61175 -15.86633
 Alpha  occ. eigenvalues --  -15.86238 -11.31814 -11.31642 -11.28340 -11.28305
 Alpha  occ. eigenvalues --  -11.28225 -11.28188 -11.28022 -11.27815 -11.27316
 Alpha  occ. eigenvalues --  -11.27260 -11.27180 -11.27116  -1.60669  -1.60261
 Alpha  occ. eigenvalues --   -1.40231  -1.39812  -1.19976  -1.19814  -1.09389
 Alpha  occ. eigenvalues --   -1.09186  -1.05324  -1.05203  -0.96271  -0.95994
 Alpha  occ. eigenvalues --   -0.86745  -0.86564  -0.83082  -0.82823  -0.78172
 Alpha  occ. eigenvalues --   -0.77882  -0.72854  -0.72445  -0.71999  -0.71594
 Alpha  occ. eigenvalues --   -0.71157  -0.70740  -0.65604  -0.65441  -0.65305
 Alpha  occ. eigenvalues --   -0.65123  -0.62694  -0.62513  -0.55860  -0.55579
 Alpha  occ. eigenvalues --   -0.53884  -0.53454  -0.53281  -0.53237  -0.49626
 Alpha  occ. eigenvalues --   -0.49580  -0.49209  -0.49203  -0.45667  -0.45208
 Alpha  occ. eigenvalues --   -0.38072  -0.37931  -0.36977  -0.36479
 Alpha virt. eigenvalues --    0.04145   0.04780   0.10538   0.10784   0.15844
 Alpha virt. eigenvalues --    0.16205   0.20735   0.21418   0.26485   0.27120
 Alpha virt. eigenvalues --    0.27760   0.28276   0.30653   0.30848   0.31633

 Mulliken charges:
               1
     1  C   -0.181221
     2  C   -0.227409
     3  C   -0.171858
     4  C    0.156528
     5  C   -0.175729
     6  C   -0.218123
     7  H    0.239855
     8  H    0.233654
     9  H    0.277771
    10  H    0.275507
    11  H    0.225941
    12  N    0.487977
    13  O   -0.460683
    14  O   -0.458711
    15  C   -0.172278
    16  C   -0.218847
    17  C   -0.171321
    18  C    0.156033
    19  C   -0.175768
    20  C   -0.219722
    21  H    0.228591
    22  H    0.225454
    23  H    0.276410
    24  H    0.273900
    25  H    0.229578
    26  N    0.488297
    27  O   -0.467889
    28  O   -0.455936
 Sum of Mulliken charges =  -0.00000

 Dipole moment (field-independent basis, Debye):
    X=             -2.6445    Y=              2.8703    Z=              1.3196  Tot=              4.1199
 Quadrupole moment (field-independent basis, Debye-Ang):
   XX=           -143.7082   YY=           -100.5875   ZZ=           -102.4293
   XY=            -23.5545   XZ=              3.4348   YZ=              1.8003

 Normal termination of Gaussian 16 at Thu May  6 09:43:56 2021.
