 Gaussian 16, Revision A.03,
 Gaussian 16:  EM64L-G16RevA.03 25-Dec-2016

 -------------
 #p 6-31g* mp2
 -------------

 ------------------------------------------------------
 Input file generated by CHIRIPA (05-May-2021 14:53:15)
 ------------------------------------------------------
 Symbolic Z-matrix:
 Charge =  0 Multiplicity = 1

                         Standard orientation:
 ---------------------------------------------------------------------
 Center     Atomic      Atomic             Coordinates (Angstroms)
 Number     Number       Type             X           Y           Z
 ---------------------------------------------------------------------
      1          6           0       -3.406394   -0.629553   -0.178793
      2          6           0       -4.796129   -1.115464    0.234137
      3          6           0       -4.862937   -2.632460    0.413173
      4          1           0       -3.115482   -1.123943   -1.115753
      5          1           0       -2.675725   -0.942697    0.579796
      6          1           0       -5.524171   -0.800301   -0.524312
      7          1           0       -5.083848   -0.619715    1.170121
      8          1           0       -4.158607   -2.960741    1.184375
      9          1           0       -4.601432   -3.142353   -0.519685
     10          1           0       -5.865272   -2.958119    0.708352
     11          6           0       -3.323697    0.884858   -0.361683
     12          6           0       -1.933962    1.370769   -0.774613
     13          6           0       -1.867155    2.887765   -0.953650
     14          1           0       -4.054367    1.198002   -1.120273
     15          1           0       -3.614610    1.379248    0.575276
     16          1           0       -1.646244    0.875020   -1.710598
     17          1           0       -1.205921    1.055606   -0.016164
     18          1           0       -2.128659    3.397658   -0.020791
     19          1           0       -2.571484    3.216046   -1.724852
     20          1           0       -0.864820    3.213423   -1.248829
     21          6           0        3.750472   -1.542068   -1.528919
     22          6           0        3.114787   -0.355037   -1.907580
     23          6           0        2.490148    0.451939   -0.951985
     24          6           0        2.520517    0.039711    0.379345
     25          6           0        3.145638   -1.137394    0.787921
     26          6           0        3.763845   -1.928776   -0.184747
     27          1           0        4.233209   -2.162890   -2.277880
     28          1           0        3.102826   -0.052223   -2.950751
     29          1           0        1.990762    1.375805   -1.217507
     30          1           0        3.140951   -1.413000    1.835507
     31          1           0        4.256766   -2.850125    0.112222
     32          7           0        1.862643    0.885766    1.400027
     33          8           0        1.903422    0.500428    2.566428
     34          8           0        1.318681    1.918223    1.014312
 ---------------------------------------------------------------------

 SCF Done:  E(RHF) =  -669.536224125     A.U. after   15 cycles
 E2 =    -0.2091673149D+01 EUMP2 =    -0.67162789727478D+03

 The electronic state is 1-A.
 Alpha  occ. eigenvalues --  -20.60959 -20.60944 -15.85967 -11.31262 -11.27828
 Alpha  occ. eigenvalues --  -11.27821 -11.27563 -11.26830 -11.26819 -11.21256
 Alpha  occ. eigenvalues --  -11.20969 -11.20876 -11.20815 -11.20795 -11.20300
 Alpha  occ. eigenvalues --   -1.60008  -1.39565  -1.19431  -1.08842  -1.07925
 Alpha  occ. eigenvalues --   -1.04824  -1.03000  -0.95691  -0.95456  -0.86480
 Alpha  occ. eigenvalues --   -0.86226  -0.82523  -0.79089  -0.77761  -0.77559
 Alpha  occ. eigenvalues --   -0.72195  -0.71321  -0.70542  -0.65091  -0.64830
 Alpha  occ. eigenvalues --   -0.64544  -0.62174  -0.60381  -0.58846  -0.57071
 Alpha  occ. eigenvalues --   -0.55333  -0.54742  -0.53155  -0.52917  -0.52155
 Alpha  occ. eigenvalues --   -0.51894  -0.49404  -0.48960  -0.48948  -0.47419
 Alpha  occ. eigenvalues --   -0.46165  -0.45417  -0.45268  -0.44659  -0.43265
 Alpha  occ. eigenvalues --   -0.37409  -0.36420
 Alpha virt. eigenvalues --    0.04928   0.11211   0.16399   0.21041   0.23321
 Alpha virt. eigenvalues --    0.24270   0.26719   0.27109   0.27639   0.28051
 Alpha virt. eigenvalues --    0.29045   0.30568   0.31611   0.31894   0.32262

 Mulliken charges:
               1
     1  C   -0.298070
     2  C   -0.299289
     3  C   -0.475475
     4  H    0.145919
     5  H    0.150782
     6  H    0.150717
     7  H    0.153360
     8  H    0.155391
     9  H    0.153093
    10  H    0.159378
    11  C   -0.298057
    12  C   -0.304344
    13  C   -0.471254
    14  H    0.146334
    15  H    0.152630
    16  H    0.141323
    17  H    0.163920
    18  H    0.160913
    19  H    0.148149
    20  H    0.159422
    21  C   -0.170409
    22  C   -0.218828
    23  C   -0.170422
    24  C    0.158046
    25  C   -0.170774
    26  C   -0.218608
    27  H    0.225907
    28  H    0.223851
    29  H    0.276998
    30  H    0.275593
    31  H    0.223699
    32  N    0.487584
    33  O   -0.458970
    34  O   -0.458510
 Sum of Mulliken charges =  -0.00000

 Dipole moment (field-independent basis, Debye):
    X=              2.4911    Y=             -2.9298    Z=             -3.4497  Tot=              5.1662
 Quadrupole moment (field-independent basis, Debye-Ang):
   XX=            -83.7940   YY=            -94.4704   ZZ=            -94.4860
   XY=             -8.9740   XZ=             -7.3547   YZ=             -3.3796

 Normal termination of Gaussian 16 at Wed May  5 20:18:16 2021.
