 Gaussian 16, Revision A.03,
 Gaussian 16:  EM64L-G16RevA.03 25-Dec-2016

 -------------
 #p 6-31g* mp2
 -------------

 ------------------------------------------------------
 Input file generated by CHIRIPA (05-May-2021 14:55:23)
 ------------------------------------------------------
 Symbolic Z-matrix:
 Charge =  0 Multiplicity = 1

                         Standard orientation:
 ---------------------------------------------------------------------
 Center     Atomic      Atomic             Coordinates (Angstroms)
 Number     Number       Type             X           Y           Z
 ---------------------------------------------------------------------
      1          6           0       -6.170648   -0.058538    0.387190
      2          6           0       -5.390157    1.101904    0.360159
      3          6           0       -4.012327    1.025798    0.135797
      4          6           0       -3.445353   -0.232795   -0.058561
      5          6           0       -4.196213   -1.407125   -0.037374
      6          6           0       -5.572239   -1.307147    0.188687
      7          1           0       -7.240279    0.009855    0.562140
      8          1           0       -5.852185    2.072938    0.514003
      9          1           0       -3.384483    1.908156    0.109802
     10          1           0       -3.707148   -2.360898   -0.194061
     11          1           0       -6.175903   -2.210041    0.209149
     12          7           0       -1.987660   -0.326000   -0.296982
     13          8           0       -1.512211   -1.446812   -0.465403
     14          8           0       -1.348172    0.723522   -0.310922
     15          6           0        5.190342   -0.276304   -0.204059
     16          6           0        6.465386   -0.370372    0.634631
     17          6           0        7.401127   -1.484582    0.164822
     18          1           0        4.663198   -1.239494   -0.167614
     19          1           0        5.462791   -0.108674   -1.255281
     20          1           0        6.190576   -0.536394    1.684170
     21          1           0        6.989458    0.593214    0.596341
     22          1           0        7.703982   -1.320684   -0.874417
     23          1           0        6.900559   -2.456710    0.219593
     24          1           0        8.306222   -1.534003    0.778190
     25          6           0        4.244790    0.832932    0.253381
     26          6           0        2.969746    0.927001   -0.585309
     27          6           0        2.034005    2.041211   -0.115500
     28          1           0        3.972341    0.665303    1.304602
     29          1           0        4.771934    1.796123    0.216936
     30          1           0        2.445674   -0.036584   -0.547018
     31          1           0        3.244558    1.093023   -1.634847
     32          1           0        2.534573    3.013338   -0.170270
     33          1           0        1.731151    1.877313    0.923739
     34          1           0        1.128910    2.090631   -0.728867
 ---------------------------------------------------------------------

 SCF Done:  E(RHF) =  -669.535978294     A.U. after   15 cycles
 E2 =    -0.2090792361D+01 EUMP2 =    -0.67162677065531D+03

 The electronic state is 1-A.
 Alpha  occ. eigenvalues --  -20.60937 -20.60929 -15.85972 -11.31294 -11.27858
 Alpha  occ. eigenvalues --  -11.27854 -11.27596 -11.26866 -11.26856 -11.20848
 Alpha  occ. eigenvalues --  -11.20439 -11.20433 -11.20237 -11.20075 -11.19307
 Alpha  occ. eigenvalues --   -1.59999  -1.39555  -1.19463  -1.08867  -1.07358
 Alpha  occ. eigenvalues --   -1.04859  -1.02376  -0.95711  -0.94827  -0.86260
 Alpha  occ. eigenvalues --   -0.85856  -0.82542  -0.78492  -0.77594  -0.77122
 Alpha  occ. eigenvalues --   -0.72199  -0.71314  -0.70572  -0.65119  -0.64863
 Alpha  occ. eigenvalues --   -0.63998  -0.62206  -0.59779  -0.58247  -0.56402
 Alpha  occ. eigenvalues --   -0.55363  -0.54139  -0.53191  -0.52951  -0.51499
 Alpha  occ. eigenvalues --   -0.51271  -0.48970  -0.48947  -0.48750  -0.46780
 Alpha  occ. eigenvalues --   -0.45549  -0.44966  -0.44670  -0.44563  -0.42615
 Alpha  occ. eigenvalues --   -0.37443  -0.36461
 Alpha virt. eigenvalues --    0.04934   0.11194   0.16432   0.21325   0.23865
 Alpha virt. eigenvalues --    0.25509   0.27248   0.27673   0.28174   0.28543
 Alpha virt. eigenvalues --    0.29187   0.30897   0.32403   0.32485   0.32745

 Mulliken charges:
               1
     1  C   -0.170610
     2  C   -0.218554
     3  C   -0.170858
     4  C    0.157565
     5  C   -0.170557
     6  C   -0.218604
     7  H    0.225982
     8  H    0.223866
     9  H    0.275929
    10  H    0.275801
    11  H    0.223786
    12  N    0.492098
    13  O   -0.459829
    14  O   -0.462902
    15  C   -0.297711
    16  C   -0.298746
    17  C   -0.475134
    18  H    0.150880
    19  H    0.147676
    20  H    0.150772
    21  H    0.150074
    22  H    0.154153
    23  H    0.154921
    24  H    0.157659
    25  C   -0.297390
    26  C   -0.300898
    27  C   -0.475152
    28  H    0.147673
    29  H    0.145335
    30  H    0.162985
    31  H    0.146220
    32  H    0.142169
    33  H    0.152418
    34  H    0.178982
 Sum of Mulliken charges =  -0.00000

 Dipole moment (field-independent basis, Debye):
    X=             -5.5330    Y=              0.2545    Z=              0.8025  Tot=              5.5967
 Quadrupole moment (field-independent basis, Debye-Ang):
   XX=            -61.8911   YY=            -90.4328   ZZ=            -95.4917
   XY=              1.0533   XZ=             -2.8814   YZ=             -0.4213

 Normal termination of Gaussian 16 at Thu May  6 15:56:02 2021.
