 Gaussian 16, Revision A.03,
 Gaussian 16:  EM64L-G16RevA.03 25-Dec-2016

 -------------
 #p 6-31g* mp2
 -------------

 ------------------------------------------------------
 Input file generated by CHIRIPA (05-May-2021 14:57:23)
 ------------------------------------------------------
 Symbolic Z-matrix:
 Charge =  0 Multiplicity = 1

                         Standard orientation:
 ---------------------------------------------------------------------
 Center     Atomic      Atomic             Coordinates (Angstroms)
 Number     Number       Type             X           Y           Z
 ---------------------------------------------------------------------
      1          6           0        1.262892   -1.366875    0.022770
      2          6           0        2.383961   -2.126962    0.372045
      3          6           0        3.663170   -1.564156    0.334342
      4          6           0        3.785302   -0.232402   -0.059110
      5          6           0        2.687707    0.550770   -0.412968
      6          6           0        1.418069   -0.032787   -0.367933
      7          1           0        0.272889   -1.812137    0.054906
      8          1           0        2.266451   -3.163270    0.675857
      9          1           0        4.548142   -2.129755    0.599562
     10          1           0        2.836496    1.581310   -0.711745
     11          1           0        0.549222    0.559900   -0.639727
     12          7           0        5.134478    0.374399   -0.102906
     13          8           0        5.215356    1.549790   -0.452981
     14          8           0        6.085536   -0.336870    0.213672
     15          6           0       -5.083513   -1.610133   -0.477554
     16          6           0       -4.558338   -0.829851   -1.512867
     17          6           0       -3.714789    0.248875   -1.231223
     18          6           0       -3.415939    0.520208    0.103077
     19          6           0       -3.923455   -0.238598    1.156609
     20          6           0       -4.764956   -1.312541    0.851537
     21          1           0       -5.738006   -2.446255   -0.705442
     22          1           0       -4.804019   -1.058637   -2.545990
     23          1           0       -3.294337    0.869363   -2.013294
     24          1           0       -3.660484    0.013993    2.176639
     25          1           0       -5.171360   -1.916797    1.657611
     26          7           0       -2.523995    1.659675    0.413642
     27          8           0       -2.275958    1.878015    1.597468
     28          8           0       -2.089814    2.312874   -0.532643
 ---------------------------------------------------------------------

 SCF Done:  E(RHF) =  -868.338892357     A.U. after   16 cycles
 E2 =    -0.2599167566D+01 EUMP2 =    -0.87093805992204D+03

 The electronic state is 1-A.
 Alpha  occ. eigenvalues --  -20.61865 -20.61830 -20.60313 -20.60299 -15.86869
 Alpha  occ. eigenvalues --  -15.85358 -11.32137 -11.30677 -11.28679 -11.28664
 Alpha  occ. eigenvalues --  -11.28367 -11.27644 -11.27633 -11.27274 -11.27158
 Alpha  occ. eigenvalues --  -11.27010 -11.26325 -11.26135  -1.60919  -1.59385
 Alpha  occ. eigenvalues --   -1.40469  -1.38939  -1.20292  -1.18842  -1.09700
 Alpha  occ. eigenvalues --   -1.08262  -1.05661  -1.04221  -0.96547  -0.95104
 Alpha  occ. eigenvalues --   -0.87060  -0.85636  -0.83369  -0.81920  -0.78442
 Alpha  occ. eigenvalues --   -0.76965  -0.73070  -0.72256  -0.71579  -0.71364
 Alpha  occ. eigenvalues --   -0.70705  -0.69987  -0.65927  -0.65638  -0.64496
 Alpha  occ. eigenvalues --   -0.64214  -0.62996  -0.61555  -0.56142  -0.54785
 Alpha  occ. eigenvalues --   -0.54018  -0.53731  -0.52574  -0.52304  -0.49852
 Alpha  occ. eigenvalues --   -0.49825  -0.48339  -0.48331  -0.45872  -0.44354
 Alpha  occ. eigenvalues --   -0.38269  -0.37270  -0.36853  -0.35815
 Alpha virt. eigenvalues --    0.04044   0.05546   0.10380   0.11823   0.15542
 Alpha virt. eigenvalues --    0.17046   0.20609   0.21845   0.26543   0.27276
 Alpha virt. eigenvalues --    0.27878   0.28692   0.30213   0.31274   0.31951

 Mulliken charges:
               1
     1  C   -0.171833
     2  C   -0.218442
     3  C   -0.172145
     4  C    0.158403
     5  C   -0.171116
     6  C   -0.222106
     7  H    0.220807
     8  H    0.219832
     9  H    0.273613
    10  H    0.279099
    11  H    0.233868
    12  N    0.488021
    13  O   -0.459408
    14  O   -0.462608
    15  C   -0.170745
    16  C   -0.218778
    17  C   -0.173734
    18  C    0.154005
    19  C   -0.172407
    20  C   -0.219255
    21  H    0.228665
    22  H    0.226521
    23  H    0.276669
    24  H    0.277783
    25  H    0.226294
    26  N    0.485881
    27  O   -0.453963
    28  O   -0.462920
 Sum of Mulliken charges =  -0.00000

 Dipole moment (field-independent basis, Debye):
    X=             -8.2212    Y=             -6.0490    Z=             -0.9184  Tot=             10.2480
 Quadrupole moment (field-independent basis, Debye-Ang):
   XX=           -119.2397   YY=           -104.9401   ZZ=           -100.4314
   XY=              3.9878   XZ=              4.4570   YZ=             -3.4583

 Normal termination of Gaussian 16 at Thu May  6 06:34:35 2021.
