 Gaussian 16, Revision A.03,
 Gaussian 16:  EM64L-G16RevA.03 25-Dec-2016

 -------------
 #p 6-31g* mp2
 -------------

 ------------------------------------------------------
 Input file generated by CHIRIPA (05-May-2021 14:51:11)
 ------------------------------------------------------
 Symbolic Z-matrix:
 Charge =  0 Multiplicity = 1

                         Standard orientation:
 ---------------------------------------------------------------------
 Center     Atomic      Atomic             Coordinates (Angstroms)
 Number     Number       Type             X           Y           Z
 ---------------------------------------------------------------------
      1          6           0       -2.235758    0.943630    0.330394
      2          6           0       -3.186315    0.293429   -0.675422
      3          6           0       -4.290540   -0.522782   -0.002902
      4          1           0       -1.785667    0.162243    0.957927
      5          1           0       -2.813300    1.591562    1.004208
      6          1           0       -2.606962   -0.352009   -1.348011
      7          1           0       -3.634049    1.076437   -1.300760
      8          1           0       -4.893359    0.112458    0.654121
      9          1           0       -3.860436   -1.324104    0.606601
     10          1           0       -4.958545   -0.978701   -0.740308
     11          6           0       -1.126435    1.762996   -0.326697
     12          6           0       -0.175878    2.413198    0.679118
     13          6           0        0.928347    3.229408    0.006599
     14          1           0       -0.548893    1.115064   -1.000511
     15          1           0       -1.576525    2.544383   -0.954230
     16          1           0        0.271857    1.630190    1.304456
     17          1           0       -0.755231    3.058636    1.351707
     18          1           0        0.498244    4.030731   -0.602905
     19          1           0        1.531167    2.594168   -0.650425
     20          1           0        1.596352    3.685327    0.744004
     21          6           0        0.917976   -1.385538   -0.008209
     22          6           0        0.369079   -2.798857    0.189843
     23          6           0       -1.159071   -2.847041    0.174721
     24          1           0        0.521253   -0.731167    0.780050
     25          1           0        0.547027   -0.985982   -0.962225
     26          1           0        0.742072   -3.196155    1.142548
     27          1           0        0.767307   -3.449984   -0.598869
     28          1           0       -1.546782   -2.475787   -0.779455
     29          1           0       -1.572159   -2.220515    0.971857
     30          1           0       -1.530022   -3.866714    0.317973
     31          6           0        2.444217   -1.321089    0.004513
     32          6           0        2.993114    0.092231   -0.193539
     33          6           0        4.521264    0.140414   -0.178417
     34          1           0        2.815166   -1.720645    0.958529
     35          1           0        2.840940   -1.975460   -0.783748
     36          1           0        2.594885    0.743357    0.595173
     37          1           0        2.620121    0.489528   -1.146244
     38          1           0        4.934352   -0.486112   -0.975553
     39          1           0        4.908974   -0.230840    0.775759
     40          1           0        4.892215    1.160088   -0.321670
 ---------------------------------------------------------------------

 SCF Done:  E(RHF) =  -470.728079319     A.U. after   11 cycles
 E2 =    -0.1589681903D+01 EUMP2 =    -0.47231776122212D+03

 The electronic state is 1-A.
 Alpha  occ. eigenvalues --  -11.21686 -11.21647 -11.21498 -11.21481 -11.21479
 Alpha  occ. eigenvalues --  -11.21421 -11.21247 -11.21182 -11.21135 -11.21117
 Alpha  occ. eigenvalues --  -11.20924 -11.20881  -1.08632  -1.08228  -1.03696
 Alpha  occ. eigenvalues --   -1.03355  -0.96128  -0.95812  -0.87115  -0.86863
 Alpha  occ. eigenvalues --   -0.79738  -0.79497  -0.78438  -0.78161  -0.65299
 Alpha  occ. eigenvalues --   -0.64854  -0.61131  -0.60951  -0.59371  -0.59230
 Alpha  occ. eigenvalues --   -0.57772  -0.57480  -0.55385  -0.55141  -0.52753
 Alpha  occ. eigenvalues --   -0.52557  -0.52495  -0.52187  -0.50098  -0.49806
 Alpha  occ. eigenvalues --   -0.48195  -0.47518  -0.47073  -0.46713  -0.46354
 Alpha  occ. eigenvalues --   -0.46070  -0.44991  -0.44781  -0.43856  -0.43649
 Alpha virt. eigenvalues --    0.20764   0.21939   0.23602   0.23707   0.24818
 Alpha virt. eigenvalues --    0.25702   0.27365   0.27805   0.28584   0.29824
 Alpha virt. eigenvalues --    0.30228   0.31457   0.31991   0.32035   0.32531

 Mulliken charges:
               1
     1  C   -0.303238
     2  C   -0.300952
     3  C   -0.479439
     4  H    0.153793
     5  H    0.149041
     6  H    0.152684
     7  H    0.151773
     8  H    0.154326
     9  H    0.160360
    10  H    0.159372
    11  C   -0.302026
    12  C   -0.303338
    13  C   -0.481375
    14  H    0.154526
    15  H    0.149458
    16  H    0.152640
    17  H    0.151836
    18  H    0.154321
    19  H    0.163258
    20  H    0.158234
    21  C   -0.307261
    22  C   -0.299408
    23  C   -0.481683
    24  H    0.156213
    25  H    0.151447
    26  H    0.151890
    27  H    0.152082
    28  H    0.159251
    29  H    0.158024
    30  H    0.161039
    31  C   -0.296898
    32  C   -0.307016
    33  C   -0.475652
    34  H    0.149439
    35  H    0.149622
    36  H    0.160251
    37  H    0.151852
    38  H    0.155203
    39  H    0.155333
    40  H    0.161015
 Sum of Mulliken charges =  -0.00000

 Dipole moment (field-independent basis, Debye):
    X=              0.0663    Y=             -0.0786    Z=             -0.0028  Tot=              0.1029
 Quadrupole moment (field-independent basis, Debye-Ang):
   XX=            -86.4977   YY=            -84.7905   ZZ=            -83.8684
   XY=             -1.0683   XZ=              0.2554   YZ=              0.3476

 Normal termination of Gaussian 16 at Thu May  6 00:41:17 2021.
