 Gaussian 16, Revision A.03,
 Gaussian 16:  EM64L-G16RevA.03 25-Dec-2016

 -------------
 #p 6-31g* mp2
 -------------

 ------------------------------------------------------
 Input file generated by CHIRIPA (05-May-2021 14:53:14)
 ------------------------------------------------------
 Symbolic Z-matrix:
 Charge =  0 Multiplicity = 1

                         Standard orientation:
 ---------------------------------------------------------------------
 Center     Atomic      Atomic             Coordinates (Angstroms)
 Number     Number       Type             X           Y           Z
 ---------------------------------------------------------------------
      1          6           0        3.144496    0.959890    0.409984
      2          6           0        2.887414    2.207175   -0.436287
      3          6           0        2.257785    3.346389    0.365930
      4          1           0        2.196312    0.620657    0.849089
      5          1           0        3.801177    1.224425    1.250333
      6          1           0        2.232533    1.940065   -1.275571
      7          1           0        3.836289    2.543365   -0.873583
      8          1           0        2.910579    3.641160    1.193923
      9          1           0        1.297710    3.034432    0.789651
     10          1           0        2.082616    4.228063   -0.258431
     11          6           0        3.773700   -0.187703   -0.377963
     12          6           0        4.030782   -1.434988    0.468307
     13          6           0        4.660411   -2.574203   -0.333909
     14          1           0        3.117019   -0.452239   -1.218312
     15          1           0        4.721884    0.151529   -0.817069
     16          1           0        3.081907   -1.771179    0.905604
     17          1           0        4.685663   -1.167878    1.307592
     18          1           0        5.620486   -2.262245   -0.757630
     19          1           0        4.007617   -2.868974   -1.161902
     20          1           0        4.835580   -3.455877    0.290452
     21          6           0       -0.263214   -0.945233    0.031978
     22          6           0       -0.630937    0.393533   -0.138338
     23          6           0       -1.979403    0.761638   -0.164553
     24          6           0       -2.938234   -0.239415   -0.016809
     25          6           0       -2.603543   -1.581770    0.154526
     26          6           0       -1.248953   -1.926881    0.177610
     27          1           0        0.786685   -1.222254    0.051126
     28          1           0        0.132446    1.158022   -0.251682
     29          1           0       -2.292035    1.790556   -0.294954
     30          1           0       -3.387214   -2.321422    0.264934
     31          1           0       -0.966304   -2.967370    0.310031
     32          7           0       -4.369036    0.138110   -0.042904
     33          8           0       -5.194608   -0.762752    0.089436
     34          8           0       -4.637833    1.327728   -0.195203
 ---------------------------------------------------------------------

 SCF Done:  E(RHF) =  -669.533710406     A.U. after   15 cycles
 E2 =    -0.2094633041D+01 EUMP2 =    -0.67162834344724D+03

 The electronic state is 1-A.
 Alpha  occ. eigenvalues --  -20.60735 -20.60730 -15.85787 -11.31153 -11.27723
 Alpha  occ. eigenvalues --  -11.27710 -11.27417 -11.26730 -11.26659 -11.22866
 Alpha  occ. eigenvalues --  -11.22864 -11.22702 -11.22636 -11.22208 -11.22100
 Alpha  occ. eigenvalues --   -1.59810  -1.39364  -1.19323  -1.09763  -1.08708
 Alpha  occ. eigenvalues --   -1.04821  -1.04670  -0.97180  -0.95556  -0.88185
 Alpha  occ. eigenvalues --   -0.86136  -0.82391  -0.80806  -0.79537  -0.77446
 Alpha  occ. eigenvalues --   -0.72009  -0.71133  -0.70541  -0.66667  -0.64967
 Alpha  occ. eigenvalues --   -0.64565  -0.62539  -0.61639  -0.60522  -0.58770
 Alpha  occ. eigenvalues --   -0.56568  -0.55142  -0.53821  -0.53573  -0.53058
 Alpha  occ. eigenvalues --   -0.52775  -0.51141  -0.49095  -0.48761  -0.48748
 Alpha  occ. eigenvalues --   -0.47894  -0.47034  -0.47001  -0.45003  -0.44769
 Alpha  occ. eigenvalues --   -0.37286  -0.36320
 Alpha virt. eigenvalues --    0.05075   0.11190   0.16502   0.18474   0.21796
 Alpha virt. eigenvalues --    0.23754   0.25447   0.26105   0.26452   0.28061
 Alpha virt. eigenvalues --    0.29845   0.30593   0.30740   0.30745   0.32426

 Mulliken charges:
               1
     1  C   -0.305716
     2  C   -0.309230
     3  C   -0.479622
     4  H    0.144910
     5  H    0.157300
     6  H    0.148664
     7  H    0.161115
     8  H    0.161818
     9  H    0.151343
    10  H    0.166139
    11  C   -0.303525
    12  C   -0.303551
    13  C   -0.476374
    14  H    0.147053
    15  H    0.157326
    16  H    0.144798
    17  H    0.158360
    18  H    0.159626
    19  H    0.154552
    20  H    0.163610
    21  C   -0.181635
    22  C   -0.230198
    23  C   -0.173885
    24  C    0.158548
    25  C   -0.170680
    26  C   -0.221063
    27  H    0.238368
    28  H    0.239939
    29  H    0.275952
    30  H    0.275468
    31  H    0.223530
    32  N    0.488000
    33  O   -0.460584
    34  O   -0.460357
 Sum of Mulliken charges =  -0.00000

 Dipole moment (field-independent basis, Debye):
    X=              5.3721    Y=             -1.2414    Z=              0.1035  Tot=              5.5146
 Quadrupole moment (field-independent basis, Debye-Ang):
   XX=           -122.4333   YY=            -89.6634   ZZ=            -95.6770
   XY=              5.1087   XZ=             -0.0700   YZ=             -0.9986

 Normal termination of Gaussian 16 at Thu May  6 17:08:31 2021.
