 Gaussian 16, Revision A.03,
 Gaussian 16:  EM64L-G16RevA.03 25-Dec-2016

 -------------
 #p 6-31g* mp2
 -------------

 ------------------------------------------------------
 Input file generated by CHIRIPA (05-May-2021 14:53:12)
 ------------------------------------------------------
 Symbolic Z-matrix:
 Charge =  0 Multiplicity = 1

                         Standard orientation:
 ---------------------------------------------------------------------
 Center     Atomic      Atomic             Coordinates (Angstroms)
 Number     Number       Type             X           Y           Z
 ---------------------------------------------------------------------
      1          6           0        2.866815    0.623962    0.519016
      2          6           0        2.508702    2.072733    0.186149
      3          6           0        1.678622    2.743082    1.281318
      4          1           0        1.942685    0.052714    0.682129
      5          1           0        3.421092    0.599229    1.467467
      6          1           0        1.956466    2.094860   -0.762093
      7          1           0        3.433786    2.640554    0.023621
      8          1           0        2.225954    2.750500    2.229460
      9          1           0        0.740240    2.201707    1.439283
     10          1           0        1.433833    3.778022    1.022790
     11          6           0        3.696558   -0.059677   -0.566291
     12          6           0        4.054671   -1.508449   -0.233424
     13          6           0        4.884751   -2.178798   -1.328593
     14          1           0        3.142281   -0.034945   -1.514742
     15          1           0        4.620688    0.511570   -0.729405
     16          1           0        3.129587   -2.076270   -0.070896
     17          1           0        4.606907   -1.530576    0.714817
     18          1           0        5.823133   -1.637422   -1.486558
     19          1           0        4.337419   -2.186216   -2.276735
     20          1           0        5.129540   -3.213738   -1.070065
     21          6           0       -1.958676   -1.262413    2.235218
     22          6           0       -2.916545   -1.868015    1.415306
     23          6           0       -3.259673   -1.299530    0.185008
     24          6           0       -2.622321   -0.119688   -0.195841
     25          6           0       -1.664058    0.507582    0.598865
     26          6           0       -1.336587   -0.078634    1.825104
     27          1           0       -1.698208   -1.710913    3.189367
     28          1           0       -3.401291   -2.787391    1.731240
     29          1           0       -3.997771   -1.747283   -0.469322
     30          1           0       -1.197943    1.423659    0.256874
     31          1           0       -0.592331    0.393894    2.459805
     32          7           0       -2.977287    0.491528   -1.496154
     33          8           0       -2.401338    1.531310   -1.808840
     34          8           0       -3.824737   -0.080758   -2.178030
 ---------------------------------------------------------------------

 SCF Done:  E(RHF) =  -669.535163147     A.U. after   15 cycles
 E2 =    -0.2092473721D+01 EUMP2 =    -0.67162763686806D+03

 The electronic state is 1-A.
 Alpha  occ. eigenvalues --  -20.60790 -20.60785 -15.85843 -11.31206 -11.27784
 Alpha  occ. eigenvalues --  -11.27760 -11.27520 -11.26795 -11.26769 -11.22035
 Alpha  occ. eigenvalues --  -11.21848 -11.21839 -11.21800 -11.21619 -11.21227
 Alpha  occ. eigenvalues --   -1.59865  -1.39419  -1.19384  -1.08795  -1.08771
 Alpha  occ. eigenvalues --   -1.04799  -1.03919  -0.96394  -0.95611  -0.87412
 Alpha  occ. eigenvalues --   -0.86182  -0.82457  -0.79984  -0.78590  -0.77493
 Alpha  occ. eigenvalues --   -0.72062  -0.71189  -0.70502  -0.65448  -0.65028
 Alpha  occ. eigenvalues --   -0.64791  -0.62303  -0.61191  -0.59743  -0.57979
 Alpha  occ. eigenvalues --   -0.55732  -0.55243  -0.53125  -0.53063  -0.52894
 Alpha  occ. eigenvalues --   -0.52797  -0.50344  -0.48821  -0.48815  -0.48291
 Alpha  occ. eigenvalues --   -0.46998  -0.46133  -0.46027  -0.44824  -0.44148
 Alpha  occ. eigenvalues --   -0.37360  -0.36377
 Alpha virt. eigenvalues --    0.05016   0.11250   0.16411   0.19856   0.22806
 Alpha virt. eigenvalues --    0.23850   0.25722   0.26661   0.27238   0.27981
 Alpha virt. eigenvalues --    0.29403   0.29609   0.31397   0.31463   0.32221

 Mulliken charges:
               1
     1  C   -0.301322
     2  C   -0.302482
     3  C   -0.480588
     4  H    0.147516
     5  H    0.147796
     6  H    0.159753
     7  H    0.155658
     8  H    0.156517
     9  H    0.143195
    10  H    0.167745
    11  C   -0.298937
    12  C   -0.299955
    13  C   -0.476070
    14  H    0.153829
    15  H    0.150855
    16  H    0.151581
    17  H    0.150608
    18  H    0.155767
    19  H    0.157328
    20  H    0.160145
    21  C   -0.170995
    22  C   -0.218836
    23  C   -0.170618
    24  C    0.159254
    25  C   -0.176577
    26  C   -0.222150
    27  H    0.226082
    28  H    0.223645
    29  H    0.275669
    30  H    0.280400
    31  H    0.227778
    32  N    0.488573
    33  O   -0.460828
    34  O   -0.460334
 Sum of Mulliken charges =  -0.00000

 Dipole moment (field-independent basis, Debye):
    X=              1.3441    Y=             -2.1246    Z=              4.4909  Tot=              5.1467
 Quadrupole moment (field-independent basis, Debye-Ang):
   XX=            -98.9408   YY=            -91.8466   ZZ=            -97.3544
   XY=              9.2658   XZ=            -11.1547   YZ=              0.1368

 Normal termination of Gaussian 16 at Wed May  5 21:46:33 2021.
