 Gaussian 16, Revision A.03,
 Gaussian 16:  EM64L-G16RevA.03 25-Dec-2016

 -------------
 #p 6-31g* mp2
 -------------

 ------------------------------------------------------
 Input file generated by CHIRIPA (05-May-2021 14:51:10)
 ------------------------------------------------------
 Symbolic Z-matrix:
 Charge =  0 Multiplicity = 1

                         Standard orientation:
 ---------------------------------------------------------------------
 Center     Atomic      Atomic             Coordinates (Angstroms)
 Number     Number       Type             X           Y           Z
 ---------------------------------------------------------------------
      1          6           0        4.173385   -0.329416   -0.246698
      2          6           0        4.916405    0.832790    0.412987
      3          6           0        6.333185    1.014383   -0.132495
      4          1           0        4.746650   -1.254651   -0.097526
      5          1           0        4.130670   -0.159638   -1.331477
      6          1           0        4.956496    0.661553    1.496355
      7          1           0        4.341209    1.755333    0.262391
      8          1           0        6.309226    1.210016   -1.209414
      9          1           0        6.928010    0.110021    0.031561
     10          1           0        6.846151    1.850527    0.352881
     11          6           0        2.755636   -0.523612    0.288095
     12          6           0        2.012616   -1.685818   -0.371589
     13          6           0        0.595836   -1.867412    0.173892
     14          1           0        2.798351   -0.693390    1.372875
     15          1           0        2.182371    0.401623    0.138923
     16          1           0        2.587812   -2.608362   -0.220994
     17          1           0        1.972525   -1.514582   -1.454957
     18          1           0        0.001011   -0.963049    0.009837
     19          1           0        0.619795   -2.063044    1.250812
     20          1           0        0.082870   -2.703555   -0.311484
     21          6           0       -3.247369   -0.290249   -0.170805
     22          6           0       -4.280526   -1.337000    0.247384
     23          6           0       -3.831713   -2.766073   -0.059392
     24          1           0       -3.047911   -0.390515   -1.246496
     25          1           0       -2.298408   -0.495927    0.343554
     26          1           0       -5.227655   -1.128591   -0.266551
     27          1           0       -4.477690   -1.234105    1.322165
     28          1           0       -2.899376   -2.998110    0.465494
     29          1           0       -3.653602   -2.891997   -1.132248
     30          1           0       -4.585146   -3.498141    0.247651
     31          6           0       -3.681653    1.143277    0.129408
     32          6           0       -2.648495    2.190029   -0.288782
     33          6           0       -3.097308    3.619102    0.017995
     34          1           0       -4.630612    1.348955   -0.384952
     35          1           0       -3.881109    1.243543    1.205098
     36          1           0       -2.451331    2.087133   -1.363563
     37          1           0       -1.701366    1.981620    0.225154
     38          1           0       -3.275419    3.745025    1.090851
     39          1           0       -4.029645    3.851139   -0.506892
     40          1           0       -2.343875    4.351169   -0.289048
 ---------------------------------------------------------------------

 SCF Done:  E(RHF) =  -470.733174438     A.U. after   11 cycles
 E2 =    -0.1582907537D+01 EUMP2 =    -0.47231608197483D+03

 The electronic state is 1-A.
 Alpha  occ. eigenvalues --  -11.21619 -11.21605 -11.21596 -11.21552 -11.21409
 Alpha  occ. eigenvalues --  -11.21364 -11.21349 -11.21279 -11.21081 -11.21073
 Alpha  occ. eigenvalues --  -11.21045 -11.21009  -1.08436  -1.08397  -1.03536
 Alpha  occ. eigenvalues --   -1.03497  -0.95988  -0.95944  -0.87012  -0.86958
 Alpha  occ. eigenvalues --   -0.79644  -0.79534  -0.78289  -0.78166  -0.65097
 Alpha  occ. eigenvalues --   -0.65003  -0.60945  -0.60888  -0.59381  -0.59285
 Alpha  occ. eigenvalues --   -0.57666  -0.57500  -0.55354  -0.55163  -0.52692
 Alpha  occ. eigenvalues --   -0.52644  -0.52508  -0.52283  -0.50017  -0.49817
 Alpha  occ. eigenvalues --   -0.47957  -0.47866  -0.46704  -0.46591  -0.45917
 Alpha  occ. eigenvalues --   -0.45739  -0.45711  -0.45389  -0.43775  -0.43750
 Alpha virt. eigenvalues --    0.21806   0.22989   0.23785   0.24176   0.25425
 Alpha virt. eigenvalues --    0.26676   0.27043   0.27166   0.27847   0.29364
 Alpha virt. eigenvalues --    0.30492   0.31502   0.31709   0.31904   0.32299

 Mulliken charges:
               1
     1  C   -0.298252
     2  C   -0.299661
     3  C   -0.475708
     4  H    0.149688
     5  H    0.149616
     6  H    0.151862
     7  H    0.151956
     8  H    0.155214
     9  H    0.155186
    10  H    0.160252
    11  C   -0.298481
    12  C   -0.299800
    13  C   -0.481300
    14  H    0.149311
    15  H    0.149615
    16  H    0.151827
    17  H    0.152156
    18  H    0.160273
    19  H    0.154000
    20  H    0.161876
    21  C   -0.305584
    22  C   -0.299051
    23  C   -0.477551
    24  H    0.148829
    25  H    0.158841
    26  H    0.151534
    27  H    0.151634
    28  H    0.158042
    29  H    0.154702
    30  H    0.159782
    31  C   -0.297684
    32  C   -0.300248
    33  C   -0.475577
    34  H    0.149389
    35  H    0.149516
    36  H    0.151705
    37  H    0.151312
    38  H    0.155347
    39  H    0.155367
    40  H    0.160068
 Sum of Mulliken charges =  -0.00000

 Dipole moment (field-independent basis, Debye):
    X=              0.0073    Y=             -0.0063    Z=              0.0018  Tot=              0.0098
 Quadrupole moment (field-independent basis, Debye-Ang):
   XX=            -85.7191   YY=            -85.6635   ZZ=            -83.5166
   XY=             -0.3317   XZ=              0.9567   YZ=             -0.6168

 Normal termination of Gaussian 16 at Wed May  5 21:23:59 2021.
