 Gaussian 16, Revision A.03,
 Gaussian 16:  EM64L-G16RevA.03 25-Dec-2016

 -------------
 #p 6-31g* mp2
 -------------

 ------------------------------------------------------
 Input file generated by CHIRIPA (05-May-2021 14:51:11)
 ------------------------------------------------------
 Symbolic Z-matrix:
 Charge =  0 Multiplicity = 1

                         Standard orientation:
 ---------------------------------------------------------------------
 Center     Atomic      Atomic             Coordinates (Angstroms)
 Number     Number       Type             X           Y           Z
 ---------------------------------------------------------------------
      1          6           0        5.554800    0.100817   -0.188508
      2          6           0        6.227321   -1.200577    0.249753
      3          6           0        7.751625   -1.142637    0.145192
      4          1           0        5.844448    0.325060   -1.224252
      5          1           0        5.934402    0.927292    0.428125
      6          1           0        5.845536   -2.024571   -0.366600
      7          1           0        5.935885   -1.421848    1.284509
      8          1           0        8.150644   -0.339912    0.773696
      9          1           0        8.059782   -0.946059   -0.886795
     10          1           0        8.211902   -2.083258    0.463371
     11          6           0        4.030938    0.058413   -0.089643
     12          6           0        3.358417    1.359808   -0.527905
     13          6           0        1.834112    1.301868   -0.423344
     14          1           0        3.651335   -0.768062   -0.706276
     15          1           0        3.741289   -0.165830    0.946100
     16          1           0        3.649853    1.581079   -1.562661
     17          1           0        3.740201    2.183801    0.088449
     18          1           0        1.525955    1.105289    0.608643
     19          1           0        1.435093    0.499143   -1.051848
     20          1           0        1.373835    2.242488   -0.741522
     21          6           0       -5.311417   -0.519176   -0.209242
     22          6           0       -6.753640   -0.131701    0.119151
     23          6           0       -7.779461   -1.020197   -0.585164
     24          1           0       -5.161949   -0.463532   -1.296214
     25          1           0       -5.146843   -1.567583    0.075634
     26          1           0       -6.915043    0.916074   -0.164986
     27          1           0       -6.899639   -0.188089    1.205485
     28          1           0       -7.647059   -2.067127   -0.293600
     29          1           0       -7.662551   -0.956691   -1.671857
     30          1           0       -8.803770   -0.725672   -0.336357
     31          6           0       -4.274320    0.359946    0.487393
     32          6           0       -2.832097   -0.027529    0.159001
     33          6           0       -1.806277    0.860967    0.863316
     34          1           0       -4.438894    1.408353    0.202518
     35          1           0       -4.423789    0.304302    1.574365
     36          1           0       -2.686099    0.028859   -0.927333
     37          1           0       -2.670695   -1.075304    0.443137
     38          1           0       -1.923187    0.797461    1.950009
     39          1           0       -1.938678    1.907896    0.571752
     40          1           0       -0.781968    0.566442    0.614509
 ---------------------------------------------------------------------

 SCF Done:  E(RHF) =  -470.732835337     A.U. after   11 cycles
 E2 =    -0.1582424067D+01 EUMP2 =    -0.47231525940424D+03

 The electronic state is 1-A.
 Alpha  occ. eigenvalues --  -11.21604 -11.21598 -11.21564 -11.21506 -11.21410
 Alpha  occ. eigenvalues --  -11.21350 -11.21346 -11.21283 -11.21076 -11.21073
 Alpha  occ. eigenvalues --  -11.21043 -11.20870  -1.08436  -1.08364  -1.03547
 Alpha  occ. eigenvalues --   -1.03445  -0.96032  -0.95865  -0.87095  -0.86842
 Alpha  occ. eigenvalues --   -0.79664  -0.79466  -0.78250  -0.78179  -0.65066
 Alpha  occ. eigenvalues --   -0.64996  -0.60940  -0.60852  -0.59366  -0.59297
 Alpha  occ. eigenvalues --   -0.57707  -0.57419  -0.55284  -0.55189  -0.52976
 Alpha  occ. eigenvalues --   -0.52600  -0.52383  -0.52062  -0.49924  -0.49843
 Alpha  occ. eigenvalues --   -0.48012  -0.47723  -0.46633  -0.46557  -0.45791
 Alpha  occ. eigenvalues --   -0.45719  -0.45714  -0.45650  -0.43838  -0.43603
 Alpha virt. eigenvalues --    0.22659   0.22934   0.23700   0.24675   0.26560
 Alpha virt. eigenvalues --    0.26670   0.26824   0.27503   0.27625   0.28967
 Alpha virt. eigenvalues --    0.30655   0.31138   0.31423   0.31933   0.32183

 Mulliken charges:
               1
     1  C   -0.298265
     2  C   -0.299648
     3  C   -0.475711
     4  H    0.149666
     5  H    0.149585
     6  H    0.151913
     7  H    0.151955
     8  H    0.155203
     9  H    0.155180
    10  H    0.160261
    11  C   -0.298417
    12  C   -0.300252
    13  C   -0.477576
    14  H    0.149425
    15  H    0.149655
    16  H    0.151801
    17  H    0.152079
    18  H    0.157024
    19  H    0.154816
    20  H    0.161566
    21  C   -0.298140
    22  C   -0.299558
    23  C   -0.475653
    24  H    0.149464
    25  H    0.149336
    26  H    0.151841
    27  H    0.151847
    28  H    0.155102
    29  H    0.155096
    30  H    0.160114
    31  C   -0.298344
    32  C   -0.299011
    33  C   -0.484055
    34  H    0.149301
    35  H    0.149392
    36  H    0.151513
    37  H    0.151224
    38  H    0.153398
    39  H    0.154205
    40  H    0.172670
 Sum of Mulliken charges =  -0.00000

 Dipole moment (field-independent basis, Debye):
    X=              0.0532    Y=              0.0106    Z=             -0.0055  Tot=              0.0545
 Quadrupole moment (field-independent basis, Debye-Ang):
   XX=            -87.0254   YY=            -84.5779   ZZ=            -83.4228
   XY=             -0.3183   XZ=             -0.2521   YZ=             -0.4409

 Normal termination of Gaussian 16 at Wed May  5 16:45:53 2021.
