 Gaussian 16, Revision A.03,
 Gaussian 16:  EM64L-G16RevA.03 25-Dec-2016

 -------------
 #p 6-31g* mp2
 -------------

 ------------------------------------------------------
 Input file generated by CHIRIPA (05-May-2021 14:55:19)
 ------------------------------------------------------
 Symbolic Z-matrix:
 Charge =  0 Multiplicity = 1

                         Standard orientation:
 ---------------------------------------------------------------------
 Center     Atomic      Atomic             Coordinates (Angstroms)
 Number     Number       Type             X           Y           Z
 ---------------------------------------------------------------------
      1          6           0       -1.002385   -0.896744    1.708580
      2          6           0       -0.788380    0.126143    0.778835
      3          6           0       -1.805781    0.512046   -0.098959
      4          6           0       -3.030341   -0.149295   -0.019136
      5          6           0       -3.274270   -1.172069    0.896135
      6          6           0       -2.242460   -1.541449    1.764165
      7          1           0       -0.206447   -1.190105    2.386679
      8          1           0        0.173665    0.628586    0.733406
      9          1           0       -1.667205    1.300712   -0.828493
     10          1           0       -4.243964   -1.654408    0.917599
     11          1           0       -2.411499   -2.336173    2.485194
     12          7           0       -4.115045    0.250498   -0.943248
     13          8           0       -5.184867   -0.347782   -0.852813
     14          8           0       -3.874874    1.154565   -1.740505
     15          6           0        3.378840    0.967138   -0.347796
     16          6           0        3.070028    1.829551    0.876484
     17          6           0        2.528351    3.210392    0.505464
     18          1           0        4.107429    1.490023   -0.982378
     19          1           0        2.465442    0.854548   -0.948149
     20          1           0        3.983404    1.939334    1.475073
     21          1           0        2.342233    1.304468    1.508322
     22          1           0        1.603037    3.118695   -0.072450
     23          1           0        3.253532    3.757168   -0.105887
     24          1           0        2.314371    3.810162    1.395605
     25          6           0        3.921176   -0.416264    0.006884
     26          6           0        4.229988   -1.278677   -1.217397
     27          6           0        4.771665   -2.659519   -0.846377
     28          1           0        4.834574   -0.303674    0.607237
     29          1           0        3.192587   -0.939149    0.641465
     30          1           0        4.957782   -0.753593   -1.849235
     31          1           0        3.316612   -1.388459   -1.815986
     32          1           0        4.046484   -3.206294   -0.235025
     33          1           0        5.696979   -2.567821   -0.268463
     34          1           0        4.985645   -3.259288   -1.736518
 ---------------------------------------------------------------------

 SCF Done:  E(RHF) =  -669.535387416     A.U. after   15 cycles
 E2 =    -0.2091822609D+01 EUMP2 =    -0.67162721002421D+03

 The electronic state is 1-A.
 Alpha  occ. eigenvalues --  -20.60758 -20.60753 -15.85811 -11.31180 -11.27750
 Alpha  occ. eigenvalues --  -11.27744 -11.27493 -11.26768 -11.26727 -11.22705
 Alpha  occ. eigenvalues --  -11.22338 -11.22259 -11.22202 -11.22013 -11.21628
 Alpha  occ. eigenvalues --   -1.59833  -1.39386  -1.19352  -1.09329  -1.08746
 Alpha  occ. eigenvalues --   -1.04759  -1.04366  -0.96793  -0.95582  -0.87808
 Alpha  occ. eigenvalues --   -0.86157  -0.82415  -0.80438  -0.79114  -0.77465
 Alpha  occ. eigenvalues --   -0.72030  -0.71156  -0.70465  -0.66117  -0.65004
 Alpha  occ. eigenvalues --   -0.64693  -0.62243  -0.61600  -0.60164  -0.58394
 Alpha  occ. eigenvalues --   -0.56093  -0.55255  -0.53469  -0.53204  -0.53081
 Alpha  occ. eigenvalues --   -0.52845  -0.50744  -0.48812  -0.48784  -0.48706
 Alpha  occ. eigenvalues --   -0.47506  -0.46644  -0.46580  -0.44791  -0.44619
 Alpha  occ. eigenvalues --   -0.37335  -0.36357
 Alpha virt. eigenvalues --    0.05071   0.11263   0.16546   0.18209   0.22978
 Alpha virt. eigenvalues --    0.23398   0.25147   0.25598   0.27150   0.28471
 Alpha virt. eigenvalues --    0.29359   0.30500   0.30913   0.31038   0.31989

 Mulliken charges:
               1
     1  C   -0.173599
     2  C   -0.228272
     3  C   -0.173239
     4  C    0.159091
     5  C   -0.171267
     6  C   -0.218359
     7  H    0.225434
     8  H    0.238475
     9  H    0.275549
    10  H    0.275603
    11  H    0.223395
    12  N    0.487999
    13  O   -0.460500
    14  O   -0.460368
    15  C   -0.301151
    16  C   -0.304443
    17  C   -0.476210
    18  H    0.155536
    19  H    0.147091
    20  H    0.158756
    21  H    0.140769
    22  H    0.151042
    23  H    0.161164
    24  H    0.164242
    25  C   -0.296897
    26  C   -0.300602
    27  C   -0.475999
    28  H    0.152143
    29  H    0.142955
    30  H    0.154411
    31  H    0.154024
    32  H    0.154066
    33  H    0.155963
    34  H    0.163196
 Sum of Mulliken charges =  -0.00000

 Dipole moment (field-independent basis, Debye):
    X=              4.0481    Y=             -1.3623    Z=              3.1925  Tot=              5.3324
 Quadrupole moment (field-independent basis, Debye-Ang):
   XX=           -114.8229   YY=            -92.8713   ZZ=            -94.6776
   XY=              7.1660   XZ=            -11.6980   YZ=             -1.9748

 Normal termination of Gaussian 16 at Wed May  5 20:28:32 2021.
