 Gaussian 16, Revision A.03,
 Gaussian 16:  EM64L-G16RevA.03 25-Dec-2016

 -------------
 #p 6-31g* mp2
 -------------

 ------------------------------------------------------
 Input file generated by CHIRIPA (05-May-2021 14:53:15)
 ------------------------------------------------------
 Symbolic Z-matrix:
 Charge =  0 Multiplicity = 1

                         Standard orientation:
 ---------------------------------------------------------------------
 Center     Atomic      Atomic             Coordinates (Angstroms)
 Number     Number       Type             X           Y           Z
 ---------------------------------------------------------------------
      1          6           0        1.936141    1.137457   -0.467358
      2          6           0        1.891323    2.437171    0.336830
      3          6           0        1.020991    3.509031   -0.320005
      4          1           0        2.314124    1.351012   -1.476550
      5          1           0        0.913294    0.755504   -0.591018
      6          1           0        2.914081    2.815829    0.460121
      7          1           0        1.513583    2.220465    1.344286
      8          1           0       -0.009401    3.155341   -0.428621
      9          1           0        1.399054    3.754088   -1.317810
     10          1           0        1.003082    4.429679    0.271558
     11          6           0        2.802254    0.056238    0.176491
     12          6           0        2.847072   -1.243476   -0.627697
     13          6           0        3.717404   -2.315336    0.029138
     14          1           0        3.825100    0.438191    0.300151
     15          1           0        2.424271   -0.157317    1.185683
     16          1           0        3.224811   -1.026770   -1.635153
     17          1           0        1.824314   -1.622134   -0.750988
     18          1           0        3.339341   -2.560393    1.026943
     19          1           0        4.747795   -1.961646    0.137754
     20          1           0        3.735313   -3.235984   -0.562425
     21          6           0       -1.464516   -0.466243    2.606932
     22          6           0       -2.359887    0.445009    2.037325
     23          6           0       -2.581806    0.454015    0.657029
     24          6           0       -1.888293   -0.466291   -0.127424
     25          6           0       -0.989860   -1.386575    0.410338
     26          6           0       -0.783561   -1.377519    1.793055
     27          1           0       -1.298190   -0.466224    3.680120
     28          1           0       -2.890118    1.153863    2.666948
     29          1           0       -3.269366    1.148552    0.189807
     30          1           0       -0.475976   -2.081131   -0.243062
     31          1           0       -0.087616   -2.086355    2.232667
     32          7           0       -2.114960   -0.466317   -1.589963
     33          8           0       -1.491583   -1.287293   -2.259319
     34          8           0       -2.911709    0.354639   -2.039254
 ---------------------------------------------------------------------

 SCF Done:  E(RHF) =  -669.534870323     A.U. after   15 cycles
 E2 =    -0.2095108261D+01 EUMP2 =    -0.67162997858465D+03

 The electronic state is 1-A.
 Alpha  occ. eigenvalues --  -20.60875 -20.60864 -15.85922 -11.31321 -11.27906
 Alpha  occ. eigenvalues --  -11.27887 -11.27648 -11.26927 -11.26913 -11.21770
 Alpha  occ. eigenvalues --  -11.21610 -11.21512 -11.21381 -11.21288 -11.21023
 Alpha  occ. eigenvalues --   -1.59944  -1.39495  -1.19517  -1.08895  -1.08504
 Alpha  occ. eigenvalues --   -1.04919  -1.03634  -0.96078  -0.95722  -0.87095
 Alpha  occ. eigenvalues --   -0.86314  -0.82548  -0.79696  -0.78309  -0.77590
 Alpha  occ. eigenvalues --   -0.72138  -0.71276  -0.70619  -0.65222  -0.65141
 Alpha  occ. eigenvalues --   -0.64895  -0.62298  -0.61007  -0.59446  -0.57683
 Alpha  occ. eigenvalues --   -0.55428  -0.55389  -0.53232  -0.53026  -0.52771
 Alpha  occ. eigenvalues --   -0.52484  -0.50028  -0.48903  -0.48892  -0.48003
 Alpha  occ. eigenvalues --   -0.46735  -0.45835  -0.45790  -0.44859  -0.43866
 Alpha  occ. eigenvalues --   -0.37443  -0.36473
 Alpha virt. eigenvalues --    0.04898   0.11006   0.16354   0.20185   0.22985
 Alpha virt. eigenvalues --    0.23827   0.25757   0.26410   0.27767   0.28018
 Alpha virt. eigenvalues --    0.28533   0.30141   0.31160   0.31720   0.32308

 Mulliken charges:
               1
     1  C   -0.300463
     2  C   -0.299087
     3  C   -0.475859
     4  H    0.153175
     5  H    0.152462
     6  H    0.151021
     7  H    0.148389
     8  H    0.155348
     9  H    0.158220
    10  H    0.157999
    11  C   -0.297992
    12  C   -0.302997
    13  C   -0.475393
    14  H    0.149841
    15  H    0.143782
    16  H    0.158351
    17  H    0.149526
    18  H    0.146966
    19  H    0.157474
    20  H    0.162460
    21  C   -0.171465
    22  C   -0.217785
    23  C   -0.172271
    24  C    0.159303
    25  C   -0.173640
    26  C   -0.217488
    27  H    0.226523
    28  H    0.224416
    29  H    0.276463
    30  H    0.279164
    31  H    0.224811
    32  N    0.488801
    33  O   -0.460093
    34  O   -0.459961
 Sum of Mulliken charges =  -0.00000

 Dipole moment (field-independent basis, Debye):
    X=              0.7248    Y=              0.0087    Z=              5.0674  Tot=              5.1190
 Quadrupole moment (field-independent basis, Debye-Ang):
   XX=            -95.6963   YY=            -93.1052   ZZ=            -96.3508
   XY=             -2.3928   XZ=            -11.3316   YZ=             -1.8866

 Normal termination of Gaussian 16 at Thu May  6 05:52:29 2021.
