 Gaussian 16, Revision A.03,
 Gaussian 16:  EM64L-G16RevA.03 25-Dec-2016

 -------------
 #p 6-31g* mp2
 -------------

 ------------------------------------------------------
 Input file generated by CHIRIPA (05-May-2021 14:57:21)
 ------------------------------------------------------
 Symbolic Z-matrix:
 Charge =  0 Multiplicity = 1

                         Standard orientation:
 ---------------------------------------------------------------------
 Center     Atomic      Atomic             Coordinates (Angstroms)
 Number     Number       Type             X           Y           Z
 ---------------------------------------------------------------------
      1          6           0       -2.697116    2.524108    0.335969
      2          6           0       -3.949543    2.260232   -0.228228
      3          6           0       -4.421013    0.947873   -0.328106
      4          6           0       -3.610243   -0.081140    0.148419
      5          6           0       -2.357925    0.149632    0.715636
      6          6           0       -1.906698    1.469824    0.805273
      7          1           0       -2.338729    3.546623    0.409579
      8          1           0       -4.565543    3.077024   -0.593522
      9          1           0       -5.386634    0.715235   -0.760394
     10          1           0       -1.766530   -0.685439    1.071061
     11          1           0       -0.933631    1.671781    1.243906
     12          7           0       -4.098652   -1.474622    0.048104
     13          8           0       -3.365227   -2.363578    0.475284
     14          8           0       -5.205643   -1.651492   -0.455805
     15          6           0        5.969220    0.226058    0.359056
     16          6           0        5.157250    1.305856   -0.003247
     17          6           0        3.804235    1.110035   -0.295742
     18          6           0        3.293908   -0.184736   -0.215611
     19          6           0        4.077244   -1.280866    0.142403
     20          6           0        5.427580   -1.061586    0.430599
     21          1           0        7.019234    0.387288    0.584604
     22          1           0        5.575183    2.306955   -0.059626
     23          1           0        3.153004    1.928066   -0.578835
     24          1           0        3.632052   -2.267252    0.189979
     25          1           0        6.055794   -1.902049    0.711694
     26          7           0        1.862949   -0.404460   -0.522987
     27          8           0        1.437476   -1.554914   -0.445111
     28          8           0        1.193934    0.577934   -0.835966
 ---------------------------------------------------------------------

 SCF Done:  E(RHF) =  -868.338531670     A.U. after   16 cycles
 E2 =    -0.2599427843D+01 EUMP2 =    -0.87093795951344D+03

 The electronic state is 1-A.
 Alpha  occ. eigenvalues --  -20.61426 -20.61372 -20.59644 -20.59612 -15.86423
 Alpha  occ. eigenvalues --  -15.84678 -11.31671 -11.29914 -11.28254 -11.28190
 Alpha  occ. eigenvalues --  -11.27932 -11.27221 -11.27178 -11.26543 -11.26371
 Alpha  occ. eigenvalues --  -11.26266 -11.25588 -11.25413  -1.60473  -1.58707
 Alpha  occ. eigenvalues --   -1.40025  -1.38262  -1.19831  -1.18084  -1.09247
 Alpha  occ. eigenvalues --   -1.07527  -1.05212  -1.03461  -0.96099  -0.94378
 Alpha  occ. eigenvalues --   -0.86615  -0.84888  -0.82931  -0.81207  -0.78001
 Alpha  occ. eigenvalues --   -0.76256  -0.72629  -0.71798  -0.70931  -0.70908
 Alpha  occ. eigenvalues --   -0.70022  -0.69244  -0.65481  -0.65208  -0.63753
 Alpha  occ. eigenvalues --   -0.63495  -0.62560  -0.60819  -0.55710  -0.54047
 Alpha  occ. eigenvalues --   -0.53551  -0.53299  -0.51809  -0.51580  -0.49407
 Alpha  occ. eigenvalues --   -0.49375  -0.47668  -0.47650  -0.45447  -0.43696
 Alpha  occ. eigenvalues --   -0.37804  -0.36811  -0.36095  -0.34999
 Alpha virt. eigenvalues --    0.04491   0.06278   0.10844   0.12615   0.16006
 Alpha virt. eigenvalues --    0.17788   0.21007   0.22582   0.26924   0.27809
 Alpha virt. eigenvalues --    0.28545   0.29434   0.30619   0.31862   0.32309

 Mulliken charges:
               1
     1  C   -0.172570
     2  C   -0.219092
     3  C   -0.172759
     4  C    0.156161
     5  C   -0.163237
     6  C   -0.205038
     7  H    0.219530
     8  H    0.217929
     9  H    0.271349
    10  H    0.280013
    11  H    0.221456
    12  N    0.488173
    13  O   -0.458535
    14  O   -0.465823
    15  C   -0.170248
    16  C   -0.218389
    17  C   -0.171987
    18  C    0.157392
    19  C   -0.170587
    20  C   -0.218445
    21  H    0.227267
    22  H    0.223988
    23  H    0.273008
    24  H    0.278365
    25  H    0.225757
    26  N    0.486594
    27  O   -0.454559
    28  O   -0.465712
 Sum of Mulliken charges =  -0.00000

 Dipole moment (field-independent basis, Debye):
    X=              7.2553    Y=              5.4855    Z=              1.4490  Tot=              9.2103
 Quadrupole moment (field-independent basis, Debye-Ang):
   XX=            -82.0152   YY=           -101.4614   ZZ=           -105.7476
   XY=            -18.4075   XZ=              3.7591   YZ=             -1.5195

 Normal termination of Gaussian 16 at Thu May  6 08:05:42 2021.
