 Gaussian 16, Revision A.03,
 Gaussian 16:  EM64L-G16RevA.03 25-Dec-2016

 -------------
 #p 6-31g* mp2
 -------------

 ------------------------------------------------------
 Input file generated by CHIRIPA (05-May-2021 14:51:14)
 ------------------------------------------------------
 Symbolic Z-matrix:
 Charge =  0 Multiplicity = 1

                         Standard orientation:
 ---------------------------------------------------------------------
 Center     Atomic      Atomic             Coordinates (Angstroms)
 Number     Number       Type             X           Y           Z
 ---------------------------------------------------------------------
      1          6           0       -3.279906   -0.521698    0.166733
      2          6           0       -2.233137   -1.592417   -0.142816
      3          6           0       -2.720939   -3.005855    0.176615
      4          1           0       -3.556648   -0.584514    1.228059
      5          1           0       -4.192434   -0.734146   -0.407334
      6          1           0       -1.322370   -1.377234    0.430609
      7          1           0       -1.958713   -1.526920   -1.203485
      8          1           0       -3.616478   -3.245167   -0.405915
      9          1           0       -2.976519   -3.094631    1.237463
     10          1           0       -1.957031   -3.755488   -0.052196
     11          6           0       -2.807004    0.896558   -0.147337
     12          6           0       -3.853773    1.967277    0.162212
     13          6           0       -3.365971    3.380715   -0.157219
     14          1           0       -1.894476    1.109006    0.426729
     15          1           0       -2.530262    0.959374   -1.208663
     16          1           0       -4.128197    1.901780    1.222881
     17          1           0       -4.764540    1.752094   -0.411213
     18          1           0       -3.110391    3.469491   -1.218068
     19          1           0       -2.470433    3.620028    0.425311
     20          1           0       -4.129880    4.130348    0.071591
     21          6           0        3.004132    0.574665   -0.042803
     22          6           0        4.358715    1.260208    0.139193
     23          6           0        4.263710    2.784691    0.070480
     24          1           0        2.575975    0.873593   -1.009378
     25          1           0        2.311778    0.935054    0.730606
     26          1           0        5.048717    0.897600   -0.633482
     27          1           0        4.783785    0.959463    1.105363
     28          1           0        3.596760    3.164686    0.851111
     29          1           0        3.863198    3.102470   -0.897615
     30          1           0        5.243350    3.254367    0.203029
     31          6           0        3.082777   -0.949526    0.023407
     32          6           0        1.728196   -1.635068   -0.158589
     33          6           0        1.823201   -3.159551   -0.089876
     34          1           0        3.775132   -1.309914   -0.750001
     35          1           0        3.510935   -1.248453    0.989983
     36          1           0        1.303125   -1.334323   -1.124758
     37          1           0        1.038193   -1.272460    0.614087
     38          1           0        2.223712   -3.477330    0.878219
     39          1           0        2.490151   -3.539546   -0.870506
     40          1           0        0.843560   -3.629227   -0.222425
 ---------------------------------------------------------------------

 SCF Done:  E(RHF) =  -470.732913354     A.U. after   11 cycles
 E2 =    -0.1583420296D+01 EUMP2 =    -0.47231633365016D+03

 The electronic state is 1-A.
 Alpha  occ. eigenvalues --  -11.21601 -11.21587 -11.21570 -11.21518 -11.21398
 Alpha  occ. eigenvalues --  -11.21379 -11.21337 -11.21319 -11.21070 -11.21069
 Alpha  occ. eigenvalues --  -11.21063 -11.21058  -1.08441  -1.08389  -1.03566
 Alpha  occ. eigenvalues --   -1.03467  -0.96002  -0.95935  -0.87015  -0.86954
 Alpha  occ. eigenvalues --   -0.79726  -0.79456  -0.78340  -0.78098  -0.65121
 Alpha  occ. eigenvalues --   -0.64982  -0.61034  -0.60812  -0.59581  -0.59140
 Alpha  occ. eigenvalues --   -0.57760  -0.57354  -0.55283  -0.55226  -0.52774
 Alpha  occ. eigenvalues --   -0.52574  -0.52463  -0.52293  -0.49963  -0.49869
 Alpha  occ. eigenvalues --   -0.48195  -0.47670  -0.46834  -0.46441  -0.45995
 Alpha  occ. eigenvalues --   -0.45782  -0.45653  -0.45324  -0.43835  -0.43691
 Alpha virt. eigenvalues --    0.20999   0.23066   0.23258   0.25048   0.25280
 Alpha virt. eigenvalues --    0.26406   0.26566   0.27257   0.28801   0.29151
 Alpha virt. eigenvalues --    0.29939   0.30503   0.31239   0.31834   0.32687

 Mulliken charges:
               1
     1  C   -0.297973
     2  C   -0.305411
     3  C   -0.477970
     4  H    0.149150
     5  H    0.149226
     6  H    0.160018
     7  H    0.151519
     8  H    0.155153
     9  H    0.155024
    10  H    0.161382
    11  C   -0.298040
    12  C   -0.299631
    13  C   -0.475638
    14  H    0.149288
    15  H    0.149579
    16  H    0.151777
    17  H    0.151910
    18  H    0.155160
    19  H    0.155197
    20  H    0.160163
    21  C   -0.298068
    22  C   -0.299630
    23  C   -0.475666
    24  H    0.149966
    25  H    0.148820
    26  H    0.151976
    27  H    0.151858
    28  H    0.155038
    29  H    0.155306
    30  H    0.160246
    31  C   -0.297926
    32  C   -0.301329
    33  C   -0.479540
    34  H    0.149400
    35  H    0.149328
    36  H    0.153180
    37  H    0.153609
    38  H    0.155003
    39  H    0.155302
    40  H    0.163244
 Sum of Mulliken charges =  -0.00000

 Dipole moment (field-independent basis, Debye):
    X=              0.0132    Y=              0.0029    Z=             -0.0079  Tot=              0.0157
 Quadrupole moment (field-independent basis, Debye-Ang):
   XX=            -84.8352   YY=            -87.2560   ZZ=            -82.8490
   XY=             -0.3160   XZ=              0.2213   YZ=              0.3413

 Normal termination of Gaussian 16 at Wed May  5 16:52:58 2021.
