 Gaussian 16, Revision A.03,
 Gaussian 16:  EM64L-G16RevA.03 25-Dec-2016

 -------------
 #p 6-31g* mp2
 -------------

 ------------------------------------------------------
 Input file generated by CHIRIPA (05-May-2021 14:51:14)
 ------------------------------------------------------
 Symbolic Z-matrix:
 Charge =  0 Multiplicity = 1

                         Standard orientation:
 ---------------------------------------------------------------------
 Center     Atomic      Atomic             Coordinates (Angstroms)
 Number     Number       Type             X           Y           Z
 ---------------------------------------------------------------------
      1          6           0        3.678601    0.065333   -0.355351
      2          6           0        3.361563   -1.370015    0.065658
      3          6           0        4.349115   -2.386304   -0.508528
      4          1           0        3.675452    0.128169   -1.452158
      5          1           0        4.697303    0.318761   -0.030673
      6          1           0        2.343256   -1.620191   -0.258501
      7          1           0        3.365277   -1.429399    1.161594
      8          1           0        5.367923   -2.164477   -0.174724
      9          1           0        4.340095   -2.356354   -1.602888
     10          1           0        4.103804   -3.405808   -0.195009
     11          6           0        2.700138    1.092870    0.210783
     12          6           0        3.017176    2.528218   -0.210226
     13          6           0        2.029623    3.544507    0.363960
     14          1           0        1.681436    0.839441   -0.113895
     15          1           0        2.703286    1.030033    1.307590
     16          1           0        3.013461    2.587602   -1.306163
     17          1           0        4.035483    2.778394    0.113933
     18          1           0        2.038644    3.514557    1.458319
     19          1           0        1.010816    3.322680    0.030155
     20          1           0        2.274935    4.564011    0.050441
     21          6           0       -2.545054   -0.714815    0.459417
     22          6           0       -1.782331   -1.940932   -0.043452
     23          6           0       -0.495609   -2.199428    0.740971
     24          1           0       -1.892186    0.166512    0.396394
     25          1           0       -2.784167   -0.851245    1.523187
     26          1           0       -1.545938   -1.802837   -1.106308
     27          1           0       -2.437154   -2.819408    0.020597
     28          1           0       -0.716730   -2.363091    1.800650
     29          1           0        0.179550   -1.340743    0.667342
     30          1           0        0.033743   -3.080442    0.364855
     31          6           0       -3.833684   -0.443388   -0.314849
     32          6           0       -4.596407    0.782729    0.188019
     33          6           0       -5.883131    1.041226   -0.596403
     34          1           0       -3.594572   -0.306957   -1.378619
     35          1           0       -4.486553   -1.324714   -0.251825
     36          1           0       -3.941584    1.661205    0.123971
     37          1           0       -4.832801    0.644633    1.250875
     38          1           0       -6.558289    0.182540   -0.522774
     39          1           0       -5.662009    1.204888   -1.656082
     40          1           0       -6.412481    1.922239   -0.220287
 ---------------------------------------------------------------------

 SCF Done:  E(RHF) =  -470.732757286     A.U. after   11 cycles
 E2 =    -0.1583260542D+01 EUMP2 =    -0.47231601782780D+03

 The electronic state is 1-A.
 Alpha  occ. eigenvalues --  -11.21633 -11.21606 -11.21602 -11.21486 -11.21429
 Alpha  occ. eigenvalues --  -11.21414 -11.21355 -11.21344 -11.21103 -11.21075
 Alpha  occ. eigenvalues --  -11.21023 -11.21011  -1.08451  -1.08417  -1.03552
 Alpha  occ. eigenvalues --   -1.03496  -0.95985  -0.95971  -0.87033  -0.86960
 Alpha  occ. eigenvalues --   -0.79685  -0.79506  -0.78310  -0.78179  -0.65155
 Alpha  occ. eigenvalues --   -0.64989  -0.61028  -0.60835  -0.59402  -0.59291
 Alpha  occ. eigenvalues --   -0.57630  -0.57542  -0.55289  -0.55265  -0.52721
 Alpha  occ. eigenvalues --   -0.52644  -0.52413  -0.52372  -0.50024  -0.49871
 Alpha  occ. eigenvalues --   -0.47965  -0.47847  -0.46788  -0.46545  -0.45923
 Alpha  occ. eigenvalues --   -0.45750  -0.45736  -0.45359  -0.43799  -0.43747
 Alpha virt. eigenvalues --    0.21134   0.23262   0.23815   0.24140   0.25782
 Alpha virt. eigenvalues --    0.26776   0.27087   0.27500   0.27653   0.29410
 Alpha virt. eigenvalues --    0.31051   0.31438   0.31663   0.31736   0.32230

 Mulliken charges:
               1
     1  C   -0.298111
     2  C   -0.305665
     3  C   -0.475473
     4  H    0.149113
     5  H    0.149401
     6  H    0.160550
     7  H    0.151724
     8  H    0.154777
     9  H    0.154621
    10  H    0.160044
    11  C   -0.300954
    12  C   -0.299598
    13  C   -0.475588
    14  H    0.150220
    15  H    0.150194
    16  H    0.151928
    17  H    0.152377
    18  H    0.155480
    19  H    0.154525
    20  H    0.160433
    21  C   -0.298584
    22  C   -0.299917
    23  C   -0.482375
    24  H    0.149430
    25  H    0.149827
    26  H    0.151134
    27  H    0.152014
    28  H    0.155141
    29  H    0.163096
    30  H    0.160194
    31  C   -0.298279
    32  C   -0.299644
    33  C   -0.475708
    34  H    0.149301
    35  H    0.149763
    36  H    0.151929
    37  H    0.152039
    38  H    0.155189
    39  H    0.155115
    40  H    0.160331
 Sum of Mulliken charges =  -0.00000

 Dipole moment (field-independent basis, Debye):
    X=             -0.0017    Y=              0.0004    Z=              0.0180  Tot=              0.0181
 Quadrupole moment (field-independent basis, Debye-Ang):
   XX=            -85.5905   YY=            -85.2729   ZZ=            -83.9976
   XY=              1.2512   XZ=             -0.0705   YZ=             -0.4540

 Normal termination of Gaussian 16 at Thu May  6 05:37:51 2021.
