 Gaussian 16, Revision A.03,
 Gaussian 16:  EM64L-G16RevA.03 25-Dec-2016

 -------------
 #p 6-31g* mp2
 -------------

 ------------------------------------------------------
 Input file generated by CHIRIPA (05-May-2021 14:51:08)
 ------------------------------------------------------
 Symbolic Z-matrix:
 Charge =  0 Multiplicity = 1

                         Standard orientation:
 ---------------------------------------------------------------------
 Center     Atomic      Atomic             Coordinates (Angstroms)
 Number     Number       Type             X           Y           Z
 ---------------------------------------------------------------------
      1          6           0        2.594368   -0.483619    0.861262
      2          6           0        1.826132   -1.741414    0.454136
      3          6           0        1.353646   -2.560400    1.655723
      4          1           0        3.459882   -0.772301    1.473219
      5          1           0        1.952935    0.138452    1.500783
      6          1           0        2.468340   -2.360265   -0.185559
      7          1           0        0.962454   -1.449718   -0.157083
      8          1           0        0.691932   -1.964045    2.292194
      9          1           0        2.206374   -2.879766    2.263557
     10          1           0        0.806795   -3.454980    1.341810
     11          6           0        3.073263    0.345614   -0.329014
     12          6           0        3.841498    1.603409    0.078112
     13          6           0        4.313984    2.422396   -1.123475
     14          1           0        3.714696   -0.276457   -0.968535
     15          1           0        2.207748    0.634297   -0.940972
     16          1           0        4.705177    1.311713    0.689331
     17          1           0        3.199291    2.222260    0.717807
     18          1           0        3.461257    2.741762   -1.731309
     19          1           0        4.975699    1.826041   -1.759946
     20          1           0        4.860835    3.316975   -0.809562
     21          6           0       -2.628270   -0.659240   -0.161979
     22          6           0       -2.126755   -1.336166   -1.438003
     23          6           0       -1.719309   -2.792672   -1.213566
     24          1           0       -1.842564   -0.707767    0.604349
     25          1           0       -3.484551   -1.223936    0.232098
     26          1           0       -1.272542   -0.769572   -1.830314
     27          1           0       -2.913675   -1.285854   -2.201443
     28          1           0       -2.567917   -3.377567   -0.844290
     29          1           0       -0.917459   -2.858351   -0.471053
     30          1           0       -1.363960   -3.257256   -2.138632
     31          6           0       -3.039361    0.797245   -0.370269
     32          6           0       -3.540876    1.474170    0.905755
     33          6           0       -3.948322    2.930677    0.681318
     34          1           0       -2.183080    1.361940   -0.764346
     35          1           0       -3.825066    0.845770   -1.136597
     36          1           0       -2.753956    1.423858    1.669195
     37          1           0       -4.395089    0.907576    1.298066
     38          1           0       -4.750171    2.996356   -0.061195
     39          1           0       -3.099714    3.515571    0.312043
     40          1           0       -4.303671    3.395260    1.606385
 ---------------------------------------------------------------------

 SCF Done:  E(RHF) =  -470.732771262     A.U. after   11 cycles
 E2 =    -0.1583919404D+01 EUMP2 =    -0.47231669066614D+03

 The electronic state is 1-A.
 Alpha  occ. eigenvalues --  -11.21642 -11.21637 -11.21636 -11.21622 -11.21457
 Alpha  occ. eigenvalues --  -11.21439 -11.21398 -11.21379 -11.21139 -11.21103
 Alpha  occ. eigenvalues --  -11.21100 -11.20997  -1.08504  -1.08441  -1.03632
 Alpha  occ. eigenvalues --   -1.03506  -0.96070  -0.95961  -0.87058  -0.87000
 Alpha  occ. eigenvalues --   -0.79658  -0.79603  -0.78308  -0.78264  -0.65315
 Alpha  occ. eigenvalues --   -0.64935  -0.61281  -0.60711  -0.59433  -0.59327
 Alpha  occ. eigenvalues --   -0.57769  -0.57503  -0.55400  -0.55169  -0.52757
 Alpha  occ. eigenvalues --   -0.52678  -0.52523  -0.52317  -0.49983  -0.49907
 Alpha  occ. eigenvalues --   -0.47979  -0.47911  -0.46717  -0.46585  -0.45926
 Alpha  occ. eigenvalues --   -0.45793  -0.45736  -0.45642  -0.43838  -0.43803
 Alpha virt. eigenvalues --    0.19840   0.23290   0.23527   0.24398   0.25876
 Alpha virt. eigenvalues --    0.26598   0.26642   0.27925   0.28565   0.29112
 Alpha virt. eigenvalues --    0.30591   0.31056   0.31611   0.31670   0.32233

 Mulliken charges:
               1
     1  C   -0.297696
     2  C   -0.306851
     3  C   -0.479132
     4  H    0.149946
     5  H    0.148983
     6  H    0.152680
     7  H    0.158357
     8  H    0.155530
     9  H    0.156332
    10  H    0.162127
    11  C   -0.298281
    12  C   -0.299693
    13  C   -0.475734
    14  H    0.149876
    15  H    0.149012
    16  H    0.152161
    17  H    0.151840
    18  H    0.155125
    19  H    0.155325
    20  H    0.160419
    21  C   -0.300272
    22  C   -0.300629
    23  C   -0.483889
    24  H    0.150589
    25  H    0.150042
    26  H    0.151389
    27  H    0.152530
    28  H    0.154911
    29  H    0.164994
    30  H    0.160077
    31  C   -0.298131
    32  C   -0.299590
    33  C   -0.475707
    34  H    0.148914
    35  H    0.149954
    36  H    0.151551
    37  H    0.152178
    38  H    0.155331
    39  H    0.155056
    40  H    0.160378
 Sum of Mulliken charges =  -0.00000

 Dipole moment (field-independent basis, Debye):
    X=              0.0184    Y=             -0.0169    Z=              0.0106  Tot=              0.0272
 Quadrupole moment (field-independent basis, Debye-Ang):
   XX=            -83.2847   YY=            -86.0003   ZZ=            -85.3587
   XY=             -0.1711   XZ=              0.4872   YZ=              0.5710

 Normal termination of Gaussian 16 at Wed May  5 15:06:07 2021.
