 Gaussian 16, Revision A.03,
 Gaussian 16:  EM64L-G16RevA.03 25-Dec-2016

 -------------
 #p 6-31g* mp2
 -------------

 ------------------------------------------------------
 Input file generated by CHIRIPA (05-May-2021 14:53:15)
 ------------------------------------------------------
 Symbolic Z-matrix:
 Charge =  0 Multiplicity = 1

                         Standard orientation:
 ---------------------------------------------------------------------
 Center     Atomic      Atomic             Coordinates (Angstroms)
 Number     Number       Type             X           Y           Z
 ---------------------------------------------------------------------
      1          6           0       -3.407580   -0.604518    0.118287
      2          6           0       -2.491375   -0.883414   -1.073674
      3          6           0       -1.236567   -1.665576   -0.684480
      4          1           0       -2.847274   -0.045912    0.880495
      5          1           0       -3.697543   -1.558496    0.580070
      6          1           0       -2.204341    0.070739   -1.533912
      7          1           0       -3.053983   -1.441255   -1.833215
      8          1           0       -1.505583   -2.631558   -0.245037
      9          1           0       -0.651113   -1.110973    0.055966
     10          1           0       -0.595866   -1.853963   -1.551586
     11          6           0       -4.666265    0.176643   -0.254846
     12          6           0       -5.582470    0.455538    0.937115
     13          6           0       -6.837278    1.237701    0.547921
     14          1           0       -4.376302    1.130620   -0.716629
     15          1           0       -5.226571   -0.381964   -1.017054
     16          1           0       -5.019862    1.013379    1.696656
     17          1           0       -5.869503   -0.498615    1.397353
     18          1           0       -7.422732    0.683098   -0.192525
     19          1           0       -6.568262    2.203683    0.108478
     20          1           0       -7.477979    1.426087    1.415027
     21          6           0        2.971256   -2.316783    0.456725
     22          6           0        2.392491   -1.748246   -0.682712
     23          6           0        2.487424   -0.373136   -0.916402
     24          6           0        3.171498    0.407275    0.014346
     25          6           0        3.758743   -0.129548    1.159009
     26          6           0        3.651336   -1.507048    1.372335
     27          1           0        2.892666   -3.385929    0.630351
     28          1           0        1.863732   -2.374660   -1.395498
     29          1           0        2.048723    0.093147   -1.790209
     30          1           0        4.279509    0.520571    1.851516
     31          1           0        4.101794   -1.945841    2.258107
     32          7           0        3.278602    1.864307   -0.222272
     33          8           0        3.886614    2.530172    0.612943
     34          8           0        2.752510    2.312875   -1.238466
 ---------------------------------------------------------------------

 SCF Done:  E(RHF) =  -669.534853455     A.U. after   15 cycles
 E2 =    -0.2091823824D+01 EUMP2 =    -0.67162667727941D+03

 The electronic state is 1-A.
 Alpha  occ. eigenvalues --  -20.60760 -20.60754 -15.85812 -11.31166 -11.27713
 Alpha  occ. eigenvalues --  -11.27705 -11.27444 -11.26743 -11.26705 -11.21913
 Alpha  occ. eigenvalues --  -11.21680 -11.21607 -11.21599 -11.21483 -11.21107
 Alpha  occ. eigenvalues --   -1.59835  -1.39389  -1.19331  -1.08729  -1.08620
 Alpha  occ. eigenvalues --   -1.04735  -1.03757  -0.96231  -0.95564  -0.87265
 Alpha  occ. eigenvalues --   -0.86120  -0.82399  -0.79830  -0.78415  -0.77446
 Alpha  occ. eigenvalues --   -0.72029  -0.71159  -0.70431  -0.65246  -0.64979
 Alpha  occ. eigenvalues --   -0.64746  -0.62115  -0.61148  -0.59609  -0.57829
 Alpha  occ. eigenvalues --   -0.55525  -0.55226  -0.53304  -0.52977  -0.52612
 Alpha  occ. eigenvalues --   -0.52585  -0.50137  -0.48787  -0.48786  -0.48142
 Alpha  occ. eigenvalues --   -0.46834  -0.45965  -0.45868  -0.44797  -0.44020
 Alpha  occ. eigenvalues --   -0.37306  -0.36265
 Alpha virt. eigenvalues --    0.05078   0.11288   0.16547   0.20689   0.22762
 Alpha virt. eigenvalues --    0.24022   0.26101   0.26486   0.27336   0.28224
 Alpha virt. eigenvalues --    0.28556   0.30037   0.31176   0.31754   0.32356

 Mulliken charges:
               1
     1  C   -0.298986
     2  C   -0.300366
     3  C   -0.476821
     4  H    0.151590
     5  H    0.148454
     6  H    0.155516
     7  H    0.151716
     8  H    0.153365
     9  H    0.162529
    10  H    0.148252
    11  C   -0.298848
    12  C   -0.299910
    13  C   -0.475939
    14  H    0.151964
    15  H    0.149352
    16  H    0.153012
    17  H    0.151128
    18  H    0.154899
    19  H    0.156506
    20  H    0.160581
    21  C   -0.172702
    22  C   -0.212855
    23  C   -0.171491
    24  C    0.157898
    25  C   -0.171735
    26  C   -0.218457
    27  H    0.225664
    28  H    0.224936
    29  H    0.275270
    30  H    0.275305
    31  H    0.223257
    32  N    0.488075
    33  O   -0.460514
    34  O   -0.460646
 Sum of Mulliken charges =  -0.00000

 Dipole moment (field-independent basis, Debye):
    X=             -0.4434    Y=             -5.1016    Z=              0.8726  Tot=              5.1947
 Quadrupole moment (field-independent basis, Debye-Ang):
   XX=            -96.9642   YY=            -99.1927   ZZ=            -91.4513
   XY=            -15.5649   XZ=              5.1695   YZ=              0.8654

 Normal termination of Gaussian 16 at Thu May  6 17:11:42 2021.
