 Gaussian 16, Revision A.03,
 Gaussian 16:  EM64L-G16RevA.03 25-Dec-2016

 -------------
 #p 6-31g* mp2
 -------------

 ------------------------------------------------------
 Input file generated by CHIRIPA (05-May-2021 14:55:24)
 ------------------------------------------------------
 Symbolic Z-matrix:
 Charge =  0 Multiplicity = 1

                         Standard orientation:
 ---------------------------------------------------------------------
 Center     Atomic      Atomic             Coordinates (Angstroms)
 Number     Number       Type             X           Y           Z
 ---------------------------------------------------------------------
      1          6           0        3.567612    1.326488   -0.635050
      2          6           0        2.684033    1.500808    0.435194
      3          6           0        1.868756    0.448137    0.861520
      4          6           0        1.963340   -0.770844    0.191871
      5          6           0        2.833679   -0.975647   -0.877641
      6          6           0        3.639488    0.090995   -1.286902
      7          1           0        4.197262    2.149654   -0.959602
      8          1           0        2.626088    2.459201    0.943299
      9          1           0        1.175902    0.555627    1.687242
     10          1           0        2.869054   -1.942688   -1.364466
     11          1           0        4.324763   -0.047264   -2.118363
     12          7           0        1.105254   -1.892655    0.634170
     13          8           0        1.207483   -2.956729    0.027594
     14          8           0        0.346705   -1.686616    1.579045
     15          6           0       -2.645519    1.510009   -0.211409
     16          6           0       -1.330457    2.077062    0.324357
     17          6           0       -1.248234    3.598693    0.199165
     18          1           0       -2.760005    1.799377   -1.265024
     19          1           0       -3.483079    1.969315    0.331663
     20          1           0       -0.495572    1.615798   -0.218616
     21          1           0       -1.218996    1.786148    1.376764
     22          1           0       -2.061490    4.075533    0.755799
     23          1           0       -1.333955    3.904214   -0.848647
     24          1           0       -0.300072    3.982863    0.588088
     25          6           0       -2.742673   -0.009961   -0.093165
     26          6           0       -4.057735   -0.577014   -0.628931
     27          6           0       -4.139958   -2.098645   -0.503740
     28          1           0       -1.905113   -0.469266   -0.636237
     29          1           0       -2.628187   -0.299330    0.960449
     30          1           0       -4.169196   -0.286101   -1.681339
     31          1           0       -4.892621   -0.115750   -0.085959
     32          1           0       -4.054236   -2.404166    0.544072
     33          1           0       -3.326701   -2.575484   -1.060373
     34          1           0       -5.088120   -2.482815   -0.892663
 ---------------------------------------------------------------------

 SCF Done:  E(RHF) =  -669.534885135     A.U. after   15 cycles
 E2 =    -0.2093781824D+01 EUMP2 =    -0.67162866695825D+03

 The electronic state is 1-A.
 Alpha  occ. eigenvalues --  -20.60822 -20.60797 -15.85853 -11.31192 -11.27792
 Alpha  occ. eigenvalues --  -11.27753 -11.27532 -11.26780 -11.26765 -11.21617
 Alpha  occ. eigenvalues --  -11.21338 -11.21153 -11.21029 -11.20766 -11.20293
 Alpha  occ. eigenvalues --   -1.59877  -1.39431  -1.19391  -1.08781  -1.08110
 Alpha  occ. eigenvalues --   -1.04794  -1.03247  -0.95683  -0.95617  -0.86703
 Alpha  occ. eigenvalues --   -0.86179  -0.82451  -0.79388  -0.77890  -0.77442
 Alpha  occ. eigenvalues --   -0.72073  -0.71194  -0.70493  -0.65039  -0.64787
 Alpha  occ. eigenvalues --   -0.64742  -0.62148  -0.60654  -0.59132  -0.57283
 Alpha  occ. eigenvalues --   -0.55289  -0.54955  -0.53165  -0.52893  -0.52419
 Alpha  occ. eigenvalues --   -0.52063  -0.49605  -0.48833  -0.48829  -0.47641
 Alpha  occ. eigenvalues --   -0.46401  -0.45525  -0.45276  -0.44679  -0.43476
 Alpha  occ. eigenvalues --   -0.37370  -0.36302
 Alpha virt. eigenvalues --    0.05020   0.11240   0.16437   0.20644   0.23156
 Alpha virt. eigenvalues --    0.24358   0.25930   0.26826   0.27106   0.28382
 Alpha virt. eigenvalues --    0.29237   0.30296   0.31580   0.31983   0.32869

 Mulliken charges:
               1
     1  C   -0.170415
     2  C   -0.219703
     3  C   -0.169143
     4  C    0.156840
     5  C   -0.170976
     6  C   -0.219186
     7  H    0.225853
     8  H    0.224241
     9  H    0.279208
    10  H    0.275564
    11  H    0.223397
    12  N    0.488555
    13  O   -0.460654
    14  O   -0.459683
    15  C   -0.297753
    16  C   -0.307414
    17  C   -0.473494
    18  H    0.147714
    19  H    0.148695
    20  H    0.156124
    21  H    0.150055
    22  H    0.157337
    23  H    0.156081
    24  H    0.149798
    25  C   -0.298158
    26  C   -0.300285
    27  C   -0.475509
    28  H    0.147406
    29  H    0.161552
    30  H    0.148296
    31  H    0.149446
    32  H    0.160371
    33  H    0.159419
    34  H    0.156419
 Sum of Mulliken charges =  -0.00000

 Dipole moment (field-independent basis, Debye):
    X=              3.0380    Y=              3.7920    Z=             -1.4919  Tot=              5.0828
 Quadrupole moment (field-independent basis, Debye-Ang):
   XX=            -82.7373   YY=           -101.1721   ZZ=            -92.3984
   XY=              4.1995   XZ=             -4.8395   YZ=              4.3538

 Normal termination of Gaussian 16 at Thu May  6 20:56:04 2021.
