 Gaussian 16, Revision A.03,
 Gaussian 16:  EM64L-G16RevA.03 25-Dec-2016

 -------------
 #p 6-31g* mp2
 -------------

 ------------------------------------------------------
 Input file generated by CHIRIPA (05-May-2021 14:51:09)
 ------------------------------------------------------
 Symbolic Z-matrix:
 Charge =  0 Multiplicity = 1

                         Standard orientation:
 ---------------------------------------------------------------------
 Center     Atomic      Atomic             Coordinates (Angstroms)
 Number     Number       Type             X           Y           Z
 ---------------------------------------------------------------------
      1          6           0        3.380026    0.821077    0.454406
      2          6           0        3.271995    2.039812   -0.462654
      3          6           0        3.015172    3.336682    0.305438
      4          1           0        2.454092    0.726049    1.037983
      5          1           0        4.190116    0.986205    1.178203
      6          1           0        2.463258    1.871849   -1.185390
      7          1           0        4.198218    2.131839   -1.044254
      8          1           0        3.826071    3.531341    1.014769
      9          1           0        2.081254    3.269873    0.872831
     10          1           0        2.941434    4.195124   -0.369470
     11          6           0        3.636713   -0.482978   -0.298774
     12          6           0        3.744744   -1.701713    0.618286
     13          6           0        4.001567   -2.998582   -0.149806
     14          1           0        2.826623   -0.648105   -1.022570
     15          1           0        4.562647   -0.387949   -0.882351
     16          1           0        2.818521   -1.793739    1.199886
     17          1           0        4.553481   -1.533749    1.341023
     18          1           0        4.935485   -2.931773   -0.717199
     19          1           0        3.190668   -3.193241   -0.859137
     20          1           0        4.075305   -3.857024    0.525102
     21          6           0       -4.168328    0.175068   -0.249481
     22          6           0       -5.372379   -0.426060    0.476393
     23          6           0       -6.685371    0.273015    0.122645
     24          1           0       -4.094943    1.243009   -0.002375
     25          1           0       -4.335718    0.115934   -1.333861
     26          1           0       -5.202154   -0.367067    1.559057
     27          1           0       -5.442794   -1.492737    0.227682
     28          1           0       -6.882026    0.202417   -0.952038
     29          1           0       -6.640021    1.334482    0.386902
     30          1           0       -7.532943   -0.172630    0.652630
     31          6           0       -2.848410   -0.513167    0.093850
     32          6           0       -1.644361    0.087960   -0.632026
     33          6           0       -0.331367   -0.611115   -0.278278
     34          1           0       -2.681021   -0.454035    1.178229
     35          1           0       -2.921796   -1.581108   -0.153257
     36          1           0       -1.573946    1.154637   -0.383313
     37          1           0       -1.814584    0.028967   -1.714688
     38          1           0       -0.376718   -1.672582   -0.542534
     39          1           0       -0.134712   -0.540516    0.796405
     40          1           0        0.516204   -0.165469   -0.808262
 ---------------------------------------------------------------------

 SCF Done:  E(RHF) =  -470.732857170     A.U. after   11 cycles
 E2 =    -0.1583620196D+01 EUMP2 =    -0.47231647736599D+03

 The electronic state is 1-A.
 Alpha  occ. eigenvalues --  -11.21681 -11.21633 -11.21584 -11.21515 -11.21456
 Alpha  occ. eigenvalues --  -11.21394 -11.21315 -11.21253 -11.21165 -11.21095
 Alpha  occ. eigenvalues --  -11.21058 -11.21005  -1.08491  -1.08364  -1.03592
 Alpha  occ. eigenvalues --   -1.03476  -0.96067  -0.95906  -0.87069  -0.86941
 Alpha  occ. eigenvalues --   -0.79663  -0.79537  -0.78295  -0.78185  -0.65145
 Alpha  occ. eigenvalues --   -0.65031  -0.61003  -0.60861  -0.59410  -0.59291
 Alpha  occ. eigenvalues --   -0.57674  -0.57523  -0.55376  -0.55190  -0.52727
 Alpha  occ. eigenvalues --   -0.52631  -0.52465  -0.52329  -0.50016  -0.49843
 Alpha  occ. eigenvalues --   -0.47990  -0.47858  -0.46703  -0.46574  -0.45860
 Alpha  occ. eigenvalues --   -0.45778  -0.45721  -0.45568  -0.43802  -0.43701
 Alpha virt. eigenvalues --    0.20464   0.23008   0.23799   0.24832   0.25638
 Alpha virt. eigenvalues --    0.26143   0.26798   0.27655   0.27809   0.29686
 Alpha virt. eigenvalues --    0.30542   0.31314   0.31762   0.31929   0.32246

 Mulliken charges:
               1
     1  C   -0.301248
     2  C   -0.300977
     3  C   -0.475494
     4  H    0.153065
     5  H    0.149487
     6  H    0.151755
     7  H    0.152070
     8  H    0.155233
     9  H    0.154934
    10  H    0.160092
    11  C   -0.300853
    12  C   -0.300486
    13  C   -0.475779
    14  H    0.152455
    15  H    0.149207
    16  H    0.153843
    17  H    0.151371
    18  H    0.154803
    19  H    0.155367
    20  H    0.159874
    21  C   -0.298297
    22  C   -0.299672
    23  C   -0.475737
    24  H    0.149765
    25  H    0.149636
    26  H    0.151987
    27  H    0.152008
    28  H    0.155238
    29  H    0.155250
    30  H    0.160372
    31  C   -0.298768
    32  C   -0.299817
    33  C   -0.482702
    34  H    0.149582
    35  H    0.149823
    36  H    0.152098
    37  H    0.152188
    38  H    0.155319
    39  H    0.155650
    40  H    0.167357
 Sum of Mulliken charges =  -0.00000

 Dipole moment (field-independent basis, Debye):
    X=             -0.0411    Y=             -0.0067    Z=              0.0017  Tot=              0.0417
 Quadrupole moment (field-independent basis, Debye-Ang):
   XX=            -84.9613   YY=            -85.5849   ZZ=            -84.3724
   XY=              0.8604   XZ=              0.1281   YZ=              0.1829

 Normal termination of Gaussian 16 at Thu May  6 00:35:22 2021.
