 Gaussian 16, Revision A.03,
 Gaussian 16:  EM64L-G16RevA.03 25-Dec-2016

 -------------
 #p 6-31g* mp2
 -------------

 ------------------------------------------------------
 Input file generated by CHIRIPA (05-May-2021 14:51:11)
 ------------------------------------------------------
 Symbolic Z-matrix:
 Charge =  0 Multiplicity = 1

                         Standard orientation:
 ---------------------------------------------------------------------
 Center     Atomic      Atomic             Coordinates (Angstroms)
 Number     Number       Type             X           Y           Z
 ---------------------------------------------------------------------
      1          6           0        2.927516   -0.172182   -0.268289
      2          6           0        4.233503   -0.787139   -0.772484
      3          6           0        4.146484   -2.304422   -0.940042
      4          1           0        2.658971   -0.633736    0.691813
      5          1           0        2.119156   -0.418693   -0.970558
      6          1           0        5.039430   -0.538374   -0.070192
      7          1           0        4.499070   -0.323931   -1.731405
      8          1           0        3.361988   -2.568507   -1.656580
      9          1           0        3.905418   -2.784169    0.014071
     10          1           0        5.090903   -2.723252   -1.301309
     11          6           0        2.998787    1.344023   -0.095748
     12          6           0        1.692801    1.958980    0.408447
     13          6           0        1.779820    3.476262    0.576005
     14          1           0        3.807147    1.590534    0.606521
     15          1           0        3.267333    1.805576   -1.055851
     16          1           0        1.427233    1.495772    1.367368
     17          1           0        0.886874    1.710215   -0.293845
     18          1           0        2.020886    3.956009   -0.378108
     19          1           0        2.564316    3.740348    1.292543
     20          1           0        0.835401    3.895092    0.937272
     21          6           0       -2.255175   -0.539143    0.464885
     22          6           0       -1.693398   -1.886778    0.919058
     23          6           0       -0.276292   -1.776865    1.482551
     24          1           0       -1.589062   -0.108875   -0.295449
     25          1           0       -2.250520    0.157358    1.314743
     26          1           0       -1.700399   -2.580949    0.068946
     27          1           0       -2.361028   -2.313977    1.678260
     28          1           0       -0.256514   -1.105567    2.347173
     29          1           0        0.407868   -1.374057    0.728714
     30          1           0        0.105804   -2.751735    1.801126
     31          6           0       -3.671128   -0.632697   -0.100848
     32          6           0       -4.232906    0.714937   -0.555022
     33          6           0       -5.650012    0.605025   -1.118514
     34          1           0       -3.675783   -1.329199   -0.950705
     35          1           0       -4.337241   -1.062965    0.659485
     36          1           0       -3.565276    1.142137   -1.314223
     37          1           0       -4.225905    1.409109    0.295092
     38          1           0       -6.334172    0.202217   -0.364676
     39          1           0       -5.669790   -0.066273   -1.983135
     40          1           0       -6.032108    1.579895   -1.437089
 ---------------------------------------------------------------------

 SCF Done:  E(RHF) =  -470.732656757     A.U. after   11 cycles
 E2 =    -0.1583846032D+01 EUMP2 =    -0.47231650278931D+03

 The electronic state is 1-A.
 Alpha  occ. eigenvalues --  -11.21607 -11.21588 -11.21577 -11.21530 -11.21405
 Alpha  occ. eigenvalues --  -11.21371 -11.21345 -11.21308 -11.21074 -11.21061
 Alpha  occ. eigenvalues --  -11.21057 -11.20892  -1.08452  -1.08378  -1.03526
 Alpha  occ. eigenvalues --   -1.03478  -0.96005  -0.95907  -0.87021  -0.86927
 Alpha  occ. eigenvalues --   -0.79602  -0.79568  -0.78369  -0.78083  -0.65074
 Alpha  occ. eigenvalues --   -0.65017  -0.60938  -0.60870  -0.59372  -0.59271
 Alpha  occ. eigenvalues --   -0.57705  -0.57454  -0.55284  -0.55209  -0.52700
 Alpha  occ. eigenvalues --   -0.52629  -0.52500  -0.52245  -0.49942  -0.49873
 Alpha  occ. eigenvalues --   -0.47938  -0.47897  -0.46731  -0.46583  -0.46009
 Alpha  occ. eigenvalues --   -0.45764  -0.45626  -0.45212  -0.43780  -0.43737
 Alpha virt. eigenvalues --    0.21396   0.23130   0.23951   0.24206   0.24959
 Alpha virt. eigenvalues --    0.25965   0.27125   0.27892   0.28197   0.29771
 Alpha virt. eigenvalues --    0.30823   0.31245   0.31523   0.31877   0.32091

 Mulliken charges:
               1
     1  C   -0.303976
     2  C   -0.298692
     3  C   -0.476064
     4  H    0.156406
     5  H    0.148499
     6  H    0.152021
     7  H    0.151696
     8  H    0.154829
     9  H    0.155762
    10  H    0.160351
    11  C   -0.297716
    12  C   -0.302330
    13  C   -0.475746
    14  H    0.149534
    15  H    0.149292
    16  H    0.154199
    17  H    0.152914
    18  H    0.154950
    19  H    0.155068
    20  H    0.160458
    21  C   -0.299274
    22  C   -0.299575
    23  C   -0.484194
    24  H    0.150436
    25  H    0.149603
    26  H    0.151313
    27  H    0.151280
    28  H    0.153521
    29  H    0.167297
    30  H    0.158641
    31  C   -0.298259
    32  C   -0.299502
    33  C   -0.475669
    34  H    0.149287
    35  H    0.149688
    36  H    0.151558
    37  H    0.151921
    38  H    0.155199
    39  H    0.155107
    40  H    0.160166
 Sum of Mulliken charges =  -0.00000

 Dipole moment (field-independent basis, Debye):
    X=              0.0494    Y=              0.0129    Z=              0.0025  Tot=              0.0511
 Quadrupole moment (field-independent basis, Debye-Ang):
   XX=            -85.6178   YY=            -86.0549   ZZ=            -83.2313
   XY=              0.0214   XZ=             -0.4129   YZ=             -0.0675

 Normal termination of Gaussian 16 at Thu May  6 02:15:11 2021.
