 Gaussian 16, Revision A.03,
 Gaussian 16:  EM64L-G16RevA.03 25-Dec-2016

 -------------
 #p 6-31g* mp2
 -------------

 ------------------------------------------------------
 Input file generated by CHIRIPA (05-May-2021 14:57:24)
 ------------------------------------------------------
 Symbolic Z-matrix:
 Charge =  0 Multiplicity = 1

                         Standard orientation:
 ---------------------------------------------------------------------
 Center     Atomic      Atomic             Coordinates (Angstroms)
 Number     Number       Type             X           Y           Z
 ---------------------------------------------------------------------
      1          6           0       -1.723126    1.446706   -0.558454
      2          6           0       -2.943840    2.032166   -0.206865
      3          6           0       -4.082135    1.242451   -0.019301
      4          6           0       -3.963278   -0.135677   -0.192297
      5          6           0       -2.761181   -0.748633   -0.542350
      6          6           0       -1.635846    0.060619   -0.724781
      7          1           0       -0.843905    2.067765   -0.702165
      8          1           0       -3.014573    3.108355   -0.077020
      9          1           0       -5.039640    1.669533    0.253102
     10          1           0       -2.721758   -1.824225   -0.664691
     11          1           0       -0.689130   -0.396799   -0.997808
     12          7           0       -5.161480   -0.982055    0.003552
     13          8           0       -5.030520   -2.193829   -0.154846
     14          8           0       -6.208902   -0.417645    0.311749
     15          6           0        5.786307   -1.039720   -0.875595
     16          6           0        5.106030   -1.731625    0.131883
     17          6           0        3.985312   -1.167350    0.748429
     18          6           0        3.570465    0.096331    0.330935
     19          6           0        4.227102    0.810667   -0.669985
     20          6           0        5.345449    0.226985   -1.272614
     21          1           0        6.655988   -1.485601   -1.349138
     22          1           0        5.446151   -2.715516    0.442242
     23          1           0        3.440012   -1.680963    1.530905
     24          1           0        3.864283    1.789868   -0.957988
     25          1           0        5.871806    0.766637   -2.054771
     26          7           0        2.385265    0.703977    0.976278
     27          8           0        2.039853    1.818624    0.590418
     28          8           0        1.824159    0.054097    1.855741
 ---------------------------------------------------------------------

 SCF Done:  E(RHF) =  -868.339540983     A.U. after   16 cycles
 E2 =    -0.2598670005D+01 EUMP2 =    -0.87093821098811D+03

 The electronic state is 1-A.
 Alpha  occ. eigenvalues --  -20.61861 -20.61797 -20.60045 -20.60040 -15.86857
 Alpha  occ. eigenvalues --  -15.85095 -11.32003 -11.30253 -11.28556 -11.28518
 Alpha  occ. eigenvalues --  -11.28217 -11.27495 -11.27471 -11.26843 -11.26833
 Alpha  occ. eigenvalues --  -11.26364 -11.25759 -11.25731  -1.60901  -1.59126
 Alpha  occ. eigenvalues --   -1.40458  -1.38686  -1.20151  -1.18403  -1.09583
 Alpha  occ. eigenvalues --   -1.07799  -1.05512  -1.03800  -0.96453  -0.94673
 Alpha  occ. eigenvalues --   -0.86919  -0.85191  -0.83287  -0.81535  -0.78367
 Alpha  occ. eigenvalues --   -0.76644  -0.73075  -0.72232  -0.71319  -0.71240
 Alpha  occ. eigenvalues --   -0.70447  -0.69415  -0.65797  -0.65500  -0.64049
 Alpha  occ. eigenvalues --   -0.63809  -0.62858  -0.61179  -0.56005  -0.54176
 Alpha  occ. eigenvalues --   -0.53858  -0.53591  -0.52107  -0.51899  -0.49844
 Alpha  occ. eigenvalues --   -0.49802  -0.48084  -0.48057  -0.45900  -0.44140
 Alpha  occ. eigenvalues --   -0.38116  -0.37108  -0.36291  -0.35411
 Alpha virt. eigenvalues --    0.04111   0.05923   0.10549   0.12261   0.15646
 Alpha virt. eigenvalues --    0.17488   0.20743   0.22417   0.26681   0.27581
 Alpha virt. eigenvalues --    0.28069   0.29424   0.30430   0.31678   0.32222

 Mulliken charges:
               1
     1  C   -0.167048
     2  C   -0.219942
     3  C   -0.171330
     4  C    0.157043
     5  C   -0.171309
     6  C   -0.214946
     7  H    0.239290
     8  H    0.221984
     9  H    0.272591
    10  H    0.271559
    11  H    0.217435
    12  N    0.488413
    13  O   -0.463536
    14  O   -0.462860
    15  C   -0.169857
    16  C   -0.218434
    17  C   -0.171283
    18  C    0.155662
    19  C   -0.171815
    20  C   -0.218354
    21  H    0.228572
    22  H    0.226549
    23  H    0.277495
    24  H    0.274281
    25  H    0.225587
    26  N    0.487033
    27  O   -0.468524
    28  O   -0.454254
 Sum of Mulliken charges =  -0.00000

 Dipole moment (field-independent basis, Debye):
    X=              8.8963    Y=              0.8556    Z=             -2.9033  Tot=              9.3971
 Quadrupole moment (field-independent basis, Debye-Ang):
   XX=           -108.1702   YY=            -99.8591   ZZ=           -105.4037
   XY=            -22.5765   XZ=             -6.1714   YZ=             -3.2207

 Normal termination of Gaussian 16 at Fri May  7 03:26:30 2021.
