 Gaussian 16, Revision A.03,
 Gaussian 16:  EM64L-G16RevA.03 25-Dec-2016

 -------------
 #p 6-31g* mp2
 -------------

 ------------------------------------------------------
 Input file generated by CHIRIPA (05-May-2021 14:55:21)
 ------------------------------------------------------
 Symbolic Z-matrix:
 Charge =  0 Multiplicity = 1

                         Standard orientation:
 ---------------------------------------------------------------------
 Center     Atomic      Atomic             Coordinates (Angstroms)
 Number     Number       Type             X           Y           Z
 ---------------------------------------------------------------------
      1          6           0       -5.636909   -0.027000    0.486146
      2          6           0       -5.222165   -0.664501   -0.687780
      3          6           0       -3.861852   -0.790141   -0.984950
      4          6           0       -2.939249   -0.264348   -0.081824
      5          6           0       -3.321117    0.376215    1.095948
      6          6           0       -4.686736    0.490411    1.372700
      7          1           0       -6.695694    0.066155    0.709064
      8          1           0       -5.957855   -1.067280   -1.378124
      9          1           0       -3.513108   -1.278902   -1.886564
     10          1           0       -2.564279    0.767704    1.764791
     11          1           0       -5.005931    0.986003    2.285141
     12          7           0       -1.496338   -0.391300   -0.385616
     13          8           0       -0.703336    0.080384    0.426355
     14          8           0       -1.185708   -0.960086   -1.429948
     15          6           0        4.122422   -0.367891    0.385077
     16          6           0        5.355669   -1.164670   -0.041810
     17          6           0        5.453353   -2.521698    0.655847
     18          1           0        4.147199   -0.221237    1.473573
     19          1           0        3.220738   -0.957745    0.169601
     20          1           0        6.254690   -0.572913    0.173135
     21          1           0        5.328051   -1.309279   -1.129441
     22          1           0        4.573978   -3.134188    0.431891
     23          1           0        5.505882   -2.393638    1.741868
     24          1           0        6.342184   -3.074472    0.336034
     25          6           0        4.010847    0.991060   -0.303785
     26          6           0        2.777602    1.787838    0.123102
     27          6           0        2.679917    3.144867   -0.574555
     28          1           0        4.912533    1.580914   -0.088308
     29          1           0        3.986071    0.844405   -1.392281
     30          1           0        2.805219    1.932447    1.210734
     31          1           0        1.878580    1.196082   -0.091843
     32          1           0        2.627389    3.016806   -1.660576
     33          1           0        3.559292    3.757356   -0.350599
     34          1           0        1.791086    3.697641   -0.254741
 ---------------------------------------------------------------------

 SCF Done:  E(RHF) =  -669.536451509     A.U. after   15 cycles
 E2 =    -0.2090996724D+01 EUMP2 =    -0.67162744823251D+03

 The electronic state is 1-A.
 Alpha  occ. eigenvalues --  -20.61049 -20.61024 -15.86056 -11.31345 -11.27902
 Alpha  occ. eigenvalues --  -11.27898 -11.27634 -11.26901 -11.26891 -11.20608
 Alpha  occ. eigenvalues --  -11.20220 -11.20137 -11.20076 -11.19953 -11.19878
 Alpha  occ. eigenvalues --   -1.60093  -1.39649  -1.19508  -1.08920  -1.07178
 Alpha  occ. eigenvalues --   -1.04899  -1.02339  -0.95767  -0.94844  -0.86301
 Alpha  occ. eigenvalues --   -0.85866  -0.82602  -0.78398  -0.77659  -0.76948
 Alpha  occ. eigenvalues --   -0.72274  -0.71401  -0.70617  -0.65164  -0.64902
 Alpha  occ. eigenvalues --   -0.63803  -0.62246  -0.59734  -0.58216  -0.56436
 Alpha  occ. eigenvalues --   -0.55406  -0.54143  -0.53233  -0.52990  -0.51573
 Alpha  occ. eigenvalues --   -0.51266  -0.49120  -0.49036  -0.48760  -0.46711
 Alpha  occ. eigenvalues --   -0.45418  -0.45056  -0.44532  -0.44288  -0.42589
 Alpha  occ. eigenvalues --   -0.37486  -0.36498
 Alpha virt. eigenvalues --    0.04860   0.11158   0.16362   0.21296   0.24091
 Alpha virt. eigenvalues --    0.25436   0.27217   0.27894   0.28173   0.28840
 Alpha virt. eigenvalues --    0.29126   0.30870   0.32375   0.32532   0.32970

 Mulliken charges:
               1
     1  C   -0.170450
     2  C   -0.218608
     3  C   -0.170522
     4  C    0.157698
     5  C   -0.170745
     6  C   -0.218566
     7  H    0.226191
     8  H    0.223976
     9  H    0.275890
    10  H    0.276149
    11  H    0.224049
    12  N    0.489515
    13  O   -0.459905
    14  O   -0.459397
    15  C   -0.299618
    16  C   -0.298770
    17  C   -0.475148
    18  H    0.146076
    19  H    0.160638
    20  H    0.148319
    21  H    0.151181
    22  H    0.156500
    23  H    0.153059
    24  H    0.156602
    25  C   -0.296982
    26  C   -0.311487
    27  C   -0.474397
    28  H    0.142827
    29  H    0.148323
    30  H    0.145421
    31  H    0.183787
    32  H    0.153253
    33  H    0.148914
    34  H    0.156227
 Sum of Mulliken charges =  -0.00000

 Dipole moment (field-independent basis, Debye):
    X=             -5.5095    Y=              0.3124    Z=              1.0507  Tot=              5.6174
 Quadrupole moment (field-independent basis, Debye-Ang):
   XX=            -66.4448   YY=            -96.1924   ZZ=            -91.2170
   XY=              0.7087   XZ=             -1.5236   YZ=              2.9565

 Normal termination of Gaussian 16 at Thu May  6 12:30:41 2021.
