 Gaussian 16, Revision A.03,
 Gaussian 16:  EM64L-G16RevA.03 25-Dec-2016

 -------------
 #p 6-31g* mp2
 -------------

 ------------------------------------------------------
 Input file generated by CHIRIPA (05-May-2021 14:53:16)
 ------------------------------------------------------
 Symbolic Z-matrix:
 Charge =  0 Multiplicity = 1

                         Standard orientation:
 ---------------------------------------------------------------------
 Center     Atomic      Atomic             Coordinates (Angstroms)
 Number     Number       Type             X           Y           Z
 ---------------------------------------------------------------------
      1          6           0        3.935928   -0.093763    0.243247
      2          6           0        5.380136   -0.257538   -0.231543
      3          6           0        6.381258    0.485532    0.653553
      4          1           0        3.683521    0.975191    0.267183
      5          1           0        3.853603   -0.457586    1.276809
      6          1           0        5.459409    0.105206   -1.264378
      7          1           0        5.629072   -1.326237   -0.254534
      8          1           0        6.331467    0.118245    1.683710
      9          1           0        6.160840    1.557821    0.668128
     10          1           0        7.407412    0.354942    0.296040
     11          6           0        2.923371   -0.830868   -0.631473
     12          6           0        1.479163   -0.667093   -0.156683
     13          6           0        0.478040   -1.410163   -1.041779
     14          1           0        3.005695   -0.467046   -1.665035
     15          1           0        3.175778   -1.899822   -0.655408
     16          1           0        1.230226    0.401606   -0.133692
     17          1           0        1.399889   -1.029837    0.876152
     18          1           0        0.698459   -2.482452   -1.056354
     19          1           0        0.527831   -1.042876   -2.071935
     20          1           0       -0.548113   -1.279573   -0.684266
     21          6           0       -1.584344    2.610018   -0.179244
     22          6           0       -2.293436    2.015597   -1.228231
     23          6           0       -2.904214    0.769843   -1.056191
     24          6           0       -2.785281    0.143775    0.183640
     25          6           0       -2.085627    0.710274    1.247997
     26          6           0       -1.482881    1.956611    1.053348
     27          1           0       -1.112996    3.577976   -0.321671
     28          1           0       -2.373883    2.520735   -2.186567
     29          1           0       -3.459197    0.286952   -1.851318
     30          1           0       -2.022823    0.182424    2.191845
     31          1           0       -0.932823    2.415866    1.869784
     32          7           0       -3.427632   -1.175357    0.377738
     33          8           0       -3.308171   -1.706407    1.479715
     34          8           0       -4.038406   -1.653266   -0.575779
 ---------------------------------------------------------------------

 SCF Done:  E(RHF) =  -669.534481371     A.U. after   15 cycles
 E2 =    -0.2093926453D+01 EUMP2 =    -0.67162840782383D+03

 The electronic state is 1-A.
 Alpha  occ. eigenvalues --  -20.60817 -20.60811 -15.85865 -11.31207 -11.27810
 Alpha  occ. eigenvalues --  -11.27797 -11.27580 -11.26850 -11.26838 -11.21771
 Alpha  occ. eigenvalues --  -11.21619 -11.21574 -11.21454 -11.21262 -11.20932
 Alpha  occ. eigenvalues --   -1.59895  -1.39445  -1.19435  -1.08831  -1.08548
 Alpha  occ. eigenvalues --   -1.04826  -1.03611  -0.96062  -0.95651  -0.87079
 Alpha  occ. eigenvalues --   -0.86227  -0.82479  -0.79684  -0.78370  -0.77521
 Alpha  occ. eigenvalues --   -0.72085  -0.71250  -0.70531  -0.65182  -0.65078
 Alpha  occ. eigenvalues --   -0.64829  -0.62169  -0.61012  -0.59498  -0.57748
 Alpha  occ. eigenvalues --   -0.55357  -0.55333  -0.53445  -0.52917  -0.52581
 Alpha  occ. eigenvalues --   -0.52239  -0.49999  -0.48847  -0.48840  -0.48017
 Alpha  occ. eigenvalues --   -0.46723  -0.45911  -0.45838  -0.44840  -0.43903
 Alpha  occ. eigenvalues --   -0.37329  -0.36398
 Alpha virt. eigenvalues --    0.04984   0.11178   0.16477   0.21335   0.22723
 Alpha virt. eigenvalues --    0.24129   0.26483   0.27028   0.27525   0.27777
 Alpha virt. eigenvalues --    0.28274   0.30625   0.31277   0.31672   0.31776

 Mulliken charges:
               1
     1  C   -0.297568
     2  C   -0.299601
     3  C   -0.475614
     4  H    0.145574
     5  H    0.149646
     6  H    0.151547
     7  H    0.153462
     8  H    0.155496
     9  H    0.153495
    10  H    0.160914
    11  C   -0.298582
    12  C   -0.300805
    13  C   -0.475336
    14  H    0.148275
    15  H    0.151597
    16  H    0.149554
    17  H    0.150946
    18  H    0.158356
    19  H    0.151889
    20  H    0.161518
    21  C   -0.171989
    22  C   -0.216444
    23  C   -0.170607
    24  C    0.152990
    25  C   -0.170423
    26  C   -0.215677
    27  H    0.225902
    28  H    0.223771
    29  H    0.275945
    30  H    0.275938
    31  H    0.224246
    32  N    0.492079
    33  O   -0.460452
    34  O   -0.460042
 Sum of Mulliken charges =  -0.00000

 Dipole moment (field-independent basis, Debye):
    X=              2.1876    Y=              4.6498    Z=             -0.6804  Tot=              5.1835
 Quadrupole moment (field-independent basis, Debye-Ang):
   XX=           -108.3478   YY=            -93.4843   ZZ=            -90.5992
   XY=            -13.3951   XZ=              3.8012   YZ=             -0.1535

 Normal termination of Gaussian 16 at Wed May  5 17:11:38 2021.
