 Gaussian 16, Revision A.03,
 Gaussian 16:  EM64L-G16RevA.03 25-Dec-2016

 -------------
 #p 6-31g* mp2
 -------------

 ------------------------------------------------------
 Input file generated by CHIRIPA (05-May-2021 14:51:12)
 ------------------------------------------------------
 Symbolic Z-matrix:
 Charge =  0 Multiplicity = 1

                         Standard orientation:
 ---------------------------------------------------------------------
 Center     Atomic      Atomic             Coordinates (Angstroms)
 Number     Number       Type             X           Y           Z
 ---------------------------------------------------------------------
      1          6           0       -2.383525   -0.842357    0.587640
      2          6           0       -1.478986   -1.922029   -0.007425
      3          6           0       -0.411956   -2.406554    0.974652
      4          1           0       -1.766353    0.007612    0.909501
      5          1           0       -2.867917   -1.236930    1.491560
      6          1           0       -0.997510   -1.526001   -0.910730
      7          1           0       -2.098403   -2.769447   -0.328083
      8          1           0       -0.876951   -2.826928    1.872241
      9          1           0        0.230197   -1.576418    1.286284
     10          1           0        0.223440   -3.178075    0.528685
     11          6           0       -3.455318   -0.347845   -0.382126
     12          6           0       -4.359858    0.731826    0.212939
     13          6           0       -5.426888    1.216352   -0.769139
     14          1           0       -2.970927    0.046728   -1.286046
     15          1           0       -4.072491   -1.197815   -0.703988
     16          1           0       -3.740440    1.579244    0.533596
     17          1           0       -4.841333    0.335798    1.116243
     18          1           0       -6.069040    0.386215   -1.080770
     19          1           0       -4.961892    1.636726   -1.666728
     20          1           0       -6.062284    1.987873   -0.323172
     21          6           0        3.416611    0.062690   -0.332481
     22          6           0        2.890579   -1.364776   -0.178802
     23          6           0        3.896594   -2.418648   -0.642575
     24          1           0        3.676149    0.239683   -1.385219
     25          1           0        4.348250    0.166418    0.240830
     26          1           0        1.959474   -1.465387   -0.751110
     27          1           0        2.632084   -1.538328    0.873660
     28          1           0        4.823546   -2.347118   -0.064437
     29          1           0        4.147116   -2.273763   -1.698439
     30          1           0        3.500074   -3.431836   -0.523912
     31          6           0        2.422233    1.127512    0.126967
     32          6           0        2.948264    2.554979   -0.026711
     33          6           0        1.942250    3.608850    0.437061
     34          1           0        1.490594    1.023785   -0.446343
     35          1           0        2.162694    0.950520    1.179706
     36          1           0        3.206760    2.728530   -1.079173
     37          1           0        3.879369    2.655590    0.545596
     38          1           0        1.691729    3.463966    1.492925
     39          1           0        1.015297    3.537321   -0.141076
     40          1           0        2.338770    4.622039    0.318399
 ---------------------------------------------------------------------

 SCF Done:  E(RHF) =  -470.732226740     A.U. after   11 cycles
 E2 =    -0.1583876697D+01 EUMP2 =    -0.47231610343780D+03

 The electronic state is 1-A.
 Alpha  occ. eigenvalues --  -11.21651 -11.21587 -11.21568 -11.21514 -11.21454
 Alpha  occ. eigenvalues --  -11.21383 -11.21362 -11.21321 -11.21121 -11.21062
 Alpha  occ. eigenvalues --  -11.21052 -11.20910  -1.08471  -1.08389  -1.03584
 Alpha  occ. eigenvalues --   -1.03453  -0.96014  -0.95925  -0.87054  -0.86924
 Alpha  occ. eigenvalues --   -0.79719  -0.79468  -0.78301  -0.78185  -0.65110
 Alpha  occ. eigenvalues --   -0.65013  -0.60965  -0.60900  -0.59477  -0.59209
 Alpha  occ. eigenvalues --   -0.57676  -0.57479  -0.55289  -0.55240  -0.52714
 Alpha  occ. eigenvalues --   -0.52608  -0.52443  -0.52340  -0.49964  -0.49919
 Alpha  occ. eigenvalues --   -0.47934  -0.47816  -0.46752  -0.46541  -0.45890
 Alpha  occ. eigenvalues --   -0.45781  -0.45660  -0.45458  -0.43817  -0.43717
 Alpha virt. eigenvalues --    0.20762   0.23251   0.23524   0.24408   0.25162
 Alpha virt. eigenvalues --    0.26133   0.26999   0.27692   0.28058   0.29392
 Alpha virt. eigenvalues --    0.30517   0.31076   0.31464   0.32059   0.32442

 Mulliken charges:
               1
     1  C   -0.298967
     2  C   -0.301426
     3  C   -0.477939
     4  H    0.150583
     5  H    0.149564
     6  H    0.151356
     7  H    0.151692
     8  H    0.153523
     9  H    0.160712
    10  H    0.160331
    11  C   -0.298148
    12  C   -0.299697
    13  C   -0.475666
    14  H    0.148960
    15  H    0.149604
    16  H    0.152092
    17  H    0.151944
    18  H    0.155141
    19  H    0.155024
    20  H    0.160265
    21  C   -0.298214
    22  C   -0.303110
    23  C   -0.476065
    24  H    0.149286
    25  H    0.149373
    26  H    0.156382
    27  H    0.154968
    28  H    0.155031
    29  H    0.154789
    30  H    0.159997
    31  C   -0.299760
    32  C   -0.299536
    33  C   -0.475765
    34  H    0.149120
    35  H    0.149427
    36  H    0.152224
    37  H    0.152321
    38  H    0.155235
    39  H    0.154776
    40  H    0.160574
 Sum of Mulliken charges =  -0.00000

 Dipole moment (field-independent basis, Debye):
    X=              0.0312    Y=              0.0057    Z=              0.0153  Tot=              0.0352
 Quadrupole moment (field-independent basis, Debye-Ang):
   XX=            -85.3587   YY=            -85.2859   ZZ=            -84.2357
   XY=              1.3447   XZ=             -0.1130   YZ=             -0.2758

 Normal termination of Gaussian 16 at Wed May  5 15:18:44 2021.
