 Gaussian 16, Revision A.03,
 Gaussian 16:  EM64L-G16RevA.03 25-Dec-2016

 -------------
 #p 6-31g* mp2
 -------------

 ------------------------------------------------------
 Input file generated by CHIRIPA (05-May-2021 14:55:19)
 ------------------------------------------------------
 Symbolic Z-matrix:
 Charge =  0 Multiplicity = 1

                         Standard orientation:
 ---------------------------------------------------------------------
 Center     Atomic      Atomic             Coordinates (Angstroms)
 Number     Number       Type             X           Y           Z
 ---------------------------------------------------------------------
      1          6           0        3.614238    1.762390    1.460154
      2          6           0        2.404021    1.129499    1.762384
      3          6           0        1.883855    0.149019    0.912305
      4          6           0        2.603417   -0.175433   -0.236717
      5          6           0        3.811768    0.437162   -0.565207
      6          6           0        4.313017    1.414815    0.299369
      7          1           0        4.010969    2.522953    2.126146
      8          1           0        1.859181    1.397410    2.663171
      9          1           0        0.949223   -0.356802    1.122131
     10          1           0        4.332135    0.148804   -1.470461
     11          1           0        5.253127    1.904665    0.062122
     12          7           0        2.062754   -1.211927   -1.144331
     13          8           0        2.715902   -1.479794   -2.150453
     14          8           0        0.996071   -1.736838   -0.832411
     15          6           0       -3.414110   -0.477684    0.701898
     16          6           0       -2.758487   -1.814837    0.355245
     17          6           0       -2.701198   -2.771573    1.546533
     18          1           0       -2.859643   -0.007285    1.525449
     19          1           0       -4.431197   -0.661706    1.074811
     20          1           0       -1.743432   -1.628251   -0.018207
     21          1           0       -3.314465   -2.282017   -0.467705
     22          1           0       -3.708854   -2.986965    1.916448
     23          1           0       -2.128896   -2.329484    2.368499
     24          1           0       -2.228764   -3.721164    1.276456
     25          6           0       -3.478754    0.489476   -0.478843
     26          6           0       -4.134377    1.826629   -0.132190
     27          6           0       -4.191665    2.783365   -1.323478
     28          1           0       -2.461666    0.673497   -0.851757
     29          1           0       -4.033221    0.019077   -1.302394
     30          1           0       -3.578398    2.293809    0.690760
     31          1           0       -5.149431    1.640043    0.241263
     32          1           0       -4.763968    2.341275   -2.145444
     33          1           0       -3.184008    2.998756   -1.693392
     34          1           0       -4.664100    3.732956   -1.053400
 ---------------------------------------------------------------------

 SCF Done:  E(RHF) =  -669.536031437     A.U. after   15 cycles
 E2 =    -0.2091317269D+01 EUMP2 =    -0.67162734870545D+03

 The electronic state is 1-A.
 Alpha  occ. eigenvalues --  -20.60943 -20.60931 -15.85981 -11.31303 -11.27871
 Alpha  occ. eigenvalues --  -11.27862 -11.27602 -11.26875 -11.26865 -11.21409
 Alpha  occ. eigenvalues --  -11.21046 -11.20984 -11.20905 -11.20786 -11.20531
 Alpha  occ. eigenvalues --   -1.60004  -1.39561  -1.19472  -1.08875  -1.08037
 Alpha  occ. eigenvalues --   -1.04869  -1.03112  -0.95718  -0.95599  -0.86620
 Alpha  occ. eigenvalues --   -0.86269  -0.82554  -0.79175  -0.77836  -0.77582
 Alpha  occ. eigenvalues --   -0.72206  -0.71319  -0.70580  -0.65132  -0.64879
 Alpha  occ. eigenvalues --   -0.64670  -0.62219  -0.60513  -0.58960  -0.57178
 Alpha  occ. eigenvalues --   -0.55371  -0.54914  -0.53200  -0.52961  -0.52282
 Alpha  occ. eigenvalues --   -0.52017  -0.49573  -0.48969  -0.48952  -0.47484
 Alpha  occ. eigenvalues --   -0.46205  -0.45389  -0.45306  -0.44885  -0.43377
 Alpha  occ. eigenvalues --   -0.37450  -0.36471
 Alpha virt. eigenvalues --    0.04912   0.11179   0.16403   0.20477   0.22801
 Alpha virt. eigenvalues --    0.24254   0.26482   0.27498   0.27768   0.28361
 Alpha virt. eigenvalues --    0.28887   0.30655   0.31566   0.32075   0.32351

 Mulliken charges:
               1
     1  C   -0.170530
     2  C   -0.218858
     3  C   -0.171414
     4  C    0.157799
     5  C   -0.170818
     6  C   -0.218561
     7  H    0.226094
     8  H    0.224027
     9  H    0.276811
    10  H    0.275886
    11  H    0.223897
    12  N    0.493856
    13  O   -0.458891
    14  O   -0.466370
    15  C   -0.296840
    16  C   -0.312976
    17  C   -0.473739
    18  H    0.140330
    19  H    0.147721
    20  H    0.177189
    21  H    0.152594
    22  H    0.151771
    23  H    0.146427
    24  H    0.165241
    25  C   -0.298100
    26  C   -0.298752
    27  C   -0.475338
    28  H    0.151124
    29  H    0.151675
    30  H    0.147636
    31  H    0.151514
    32  H    0.156395
    33  H    0.154754
    34  H    0.158445
 Sum of Mulliken charges =  -0.00000

 Dipole moment (field-independent basis, Debye):
    X=              2.0860    Y=              3.5752    Z=              3.0469  Tot=              5.1398
 Quadrupole moment (field-independent basis, Debye-Ang):
   XX=            -81.4708   YY=            -97.2361   ZZ=            -95.6350
   XY=             10.5757   XZ=              5.8100   YZ=             -0.7965

 Normal termination of Gaussian 16 at Thu May  6 10:47:42 2021.
