 Gaussian 16, Revision A.03,
 Gaussian 16:  EM64L-G16RevA.03 25-Dec-2016

 -------------
 #p 6-31g* mp2
 -------------

 ------------------------------------------------------
 Input file generated by CHIRIPA (05-May-2021 14:57:22)
 ------------------------------------------------------
 Symbolic Z-matrix:
 Charge =  0 Multiplicity = 1

                         Standard orientation:
 ---------------------------------------------------------------------
 Center     Atomic      Atomic             Coordinates (Angstroms)
 Number     Number       Type             X           Y           Z
 ---------------------------------------------------------------------
      1          6           0        4.629868    1.874423   -0.424638
      2          6           0        5.031339    0.818173    0.399788
      3          6           0        4.206404   -0.296366    0.578200
      4          6           0        2.981054   -0.321716   -0.086002
      5          6           0        2.552998    0.714891   -0.913954
      6          6           0        3.394157    1.819508   -1.077726
      7          1           0        5.276999    2.736370   -0.557546
      8          1           0        5.990470    0.858105    0.908234
      9          1           0        4.492451   -1.127987    1.210658
     10          1           0        1.591218    0.646468   -1.407629
     11          1           0        3.079774    2.638348   -1.718592
     12          7           0        2.099144   -1.496377    0.095125
     13          8           0        1.024397   -1.494549   -0.501158
     14          8           0        2.499348   -2.396660    0.829947
     15          6           0       -3.433433    2.584525    0.603418
     16          6           0       -2.484765    1.842846    1.315079
     17          6           0       -2.306087    0.481191    1.053320
     18          6           0       -3.096721   -0.109359    0.068719
     19          6           0       -4.050173    0.602736   -0.657326
     20          6           0       -4.211736    1.963199   -0.378781
     21          1           0       -3.565586    3.641829    0.813278
     22          1           0       -1.878917    2.322741    2.078425
     23          1           0       -1.578959   -0.116692    1.589265
     24          1           0       -4.639308    0.096583   -1.412407
     25          1           0       -4.949250    2.536712   -0.933039
     26          7           0       -2.916622   -1.550251   -0.217279
     27          8           0       -3.625669   -2.047081   -1.089661
     28          8           0       -2.069825   -2.155507    0.436353
 ---------------------------------------------------------------------

 SCF Done:  E(RHF) =  -868.335521581     A.U. after   16 cycles
 E2 =    -0.2600829079D+01 EUMP2 =    -0.87093635066016D+03

 The electronic state is 1-A.
 Alpha  occ. eigenvalues --  -20.60421 -20.60382 -20.59800 -20.59634 -15.85464
 Alpha  occ. eigenvalues --  -15.84768 -11.31104 -11.30556 -11.27709 -11.27691
 Alpha  occ. eigenvalues --  -11.27489 -11.27203 -11.27145 -11.27043 -11.26782
 Alpha  occ. eigenvalues --  -11.26759 -11.26316 -11.26301  -1.59475  -1.58779
 Alpha  occ. eigenvalues --   -1.39024  -1.38317  -1.19302  -1.18781  -1.08643
 Alpha  occ. eigenvalues --   -1.08104  -1.04741  -1.04248  -0.95429  -0.94863
 Alpha  occ. eigenvalues --   -0.86126  -0.85622  -0.82259  -0.81692  -0.77270
 Alpha  occ. eigenvalues --   -0.76656  -0.71684  -0.70993  -0.70819  -0.70403
 Alpha  occ. eigenvalues --   -0.70077  -0.69891  -0.64943  -0.64740  -0.64422
 Alpha  occ. eigenvalues --   -0.64261  -0.62082  -0.61580  -0.55227  -0.54756
 Alpha  occ. eigenvalues --   -0.53064  -0.52833  -0.52563  -0.52345  -0.48436
 Alpha  occ. eigenvalues --   -0.48406  -0.47792  -0.47719  -0.44410  -0.43541
 Alpha  occ. eigenvalues --   -0.37302  -0.36799  -0.36363  -0.35877
 Alpha virt. eigenvalues --    0.05239   0.05916   0.11285   0.11774   0.16694
 Alpha virt. eigenvalues --    0.17304   0.21417   0.21842   0.27310   0.27716
 Alpha virt. eigenvalues --    0.28325   0.28786   0.30924   0.31368   0.32547

 Mulliken charges:
               1
     1  C   -0.171885
     2  C   -0.218595
     3  C   -0.171640
     4  C    0.157856
     5  C   -0.172974
     6  C   -0.218924
     7  H    0.224581
     8  H    0.223091
     9  H    0.276306
    10  H    0.275443
    11  H    0.221999
    12  N    0.485974
    13  O   -0.452133
    14  O   -0.458851
    15  C   -0.172961
    16  C   -0.220733
    17  C   -0.169725
    18  C    0.159863
    19  C   -0.172182
    20  C   -0.219351
    21  H    0.221860
    22  H    0.220041
    23  H    0.279922
    24  H    0.274814
    25  H    0.220655
    26  N    0.487501
    27  O   -0.467173
    28  O   -0.442777
 Sum of Mulliken charges =  -0.00000

 Dipole moment (field-independent basis, Debye):
    X=              2.5945    Y=              8.8631    Z=              0.4011  Tot=              9.2438
 Quadrupole moment (field-independent basis, Debye-Ang):
   XX=            -79.5395   YY=           -109.1178   ZZ=           -101.3634
   XY=             -5.7820   XZ=             -0.1353   YZ=             -1.7646

 Normal termination of Gaussian 16 at Fri May  7 01:47:12 2021.
