 Gaussian 16, Revision A.03,
 Gaussian 16:  EM64L-G16RevA.03 25-Dec-2016

 -------------
 #p 6-31g* mp2
 -------------

 ------------------------------------------------------
 Input file generated by CHIRIPA (05-May-2021 14:57:21)
 ------------------------------------------------------
 Symbolic Z-matrix:
 Charge =  0 Multiplicity = 1

                         Standard orientation:
 ---------------------------------------------------------------------
 Center     Atomic      Atomic             Coordinates (Angstroms)
 Number     Number       Type             X           Y           Z
 ---------------------------------------------------------------------
      1          6           0       -3.861007   -2.134999   -0.832879
      2          6           0       -4.752201   -1.095998   -0.545183
      3          6           0       -4.276324    0.170425   -0.192673
      4          6           0       -2.896862    0.363595   -0.137364
      5          6           0       -1.983618   -0.651446   -0.418376
      6          6           0       -2.481990   -1.909804   -0.768671
      7          1           0       -4.239417   -3.115654   -1.105857
      8          1           0       -5.823673   -1.268002   -0.594247
      9          1           0       -4.943911    0.992558    0.035018
     10          1           0       -0.920895   -0.449580   -0.361023
     11          1           0       -1.787535   -2.714844   -0.991579
     12          7           0       -2.381164    1.700031    0.234650
     13          8           0       -1.161319    1.844545    0.276249
     14          8           0       -3.206571    2.577710    0.477591
     15          6           0        1.715871   -1.013621    2.200127
     16          6           0        2.510192   -1.880972    1.442977
     17          6           0        3.216045   -1.409746    0.332001
     18          6           0        3.104246   -0.059198    0.005183
     19          6           0        2.321088    0.829833    0.739744
     20          6           0        1.624016    0.336632    1.846718
     21          1           0        1.170957   -1.388217    3.061606
     22          1           0        2.583403   -2.930084    1.715099
     23          1           0        3.838257   -2.059277   -0.271638
     24          1           0        2.267875    1.870516    0.443829
     25          1           0        1.007898    1.012528    2.432900
     26          7           0        3.846853    0.451300   -1.168838
     27          8           0        3.731669    1.645460   -1.435954
     28          8           0        4.530031   -0.352398   -1.799689
 ---------------------------------------------------------------------

 SCF Done:  E(RHF) =  -868.339415679     A.U. after   16 cycles
 E2 =    -0.2600312557D+01 EUMP2 =    -0.87093972823687D+03

 The electronic state is 1-A.
 Alpha  occ. eigenvalues --  -20.61349 -20.61300 -20.60497 -20.60466 -15.86368
 Alpha  occ. eigenvalues --  -15.85535 -11.31562 -11.30890 -11.28125 -11.28075
 Alpha  occ. eigenvalues --  -11.27847 -11.27519 -11.27302 -11.27218 -11.27103
 Alpha  occ. eigenvalues --  -11.27088 -11.26576 -11.26311  -1.60396  -1.59563
 Alpha  occ. eigenvalues --   -1.39955  -1.39113  -1.19728  -1.19074  -1.09158
 Alpha  occ. eigenvalues --   -1.08481  -1.05101  -1.04424  -0.96018  -0.95303
 Alpha  occ. eigenvalues --   -0.86508  -0.85832  -0.82864  -0.82095  -0.77924
 Alpha  occ. eigenvalues --   -0.77136  -0.72606  -0.71748  -0.71710  -0.70893
 Alpha  occ. eigenvalues --   -0.70829  -0.70162  -0.65385  -0.65103  -0.64694
 Alpha  occ. eigenvalues --   -0.64394  -0.62444  -0.61726  -0.55618  -0.54969
 Alpha  occ. eigenvalues --   -0.53452  -0.53246  -0.52765  -0.52478  -0.49348
 Alpha  occ. eigenvalues --   -0.49332  -0.48517  -0.48496  -0.45394  -0.44517
 Alpha  occ. eigenvalues --   -0.37713  -0.37132  -0.36688  -0.35999
 Alpha virt. eigenvalues --    0.04578   0.05342   0.10922   0.11636   0.16066
 Alpha virt. eigenvalues --    0.16857   0.21082   0.21823   0.26974   0.27699
 Alpha virt. eigenvalues --    0.28021   0.28657   0.30617   0.31361   0.32021

 Mulliken charges:
               1
     1  C   -0.170170
     2  C   -0.218960
     3  C   -0.170602
     4  C    0.156238
     5  C   -0.173486
     6  C   -0.220038
     7  H    0.226577
     8  H    0.224482
     9  H    0.276020
    10  H    0.280200
    11  H    0.224410
    12  N    0.489658
    13  O   -0.468268
    14  O   -0.457525
    15  C   -0.177919
    16  C   -0.222140
    17  C   -0.175206
    18  C    0.153933
    19  C   -0.166953
    20  C   -0.215476
    21  H    0.223975
    22  H    0.219889
    23  H    0.273179
    24  H    0.285416
    25  H    0.235068
    26  N    0.487927
    27  O   -0.456431
    28  O   -0.463797
 Sum of Mulliken charges =  -0.00000

 Dipole moment (field-independent basis, Debye):
    X=             -4.6097    Y=             -6.2381    Z=              2.8464  Tot=              8.2623
 Quadrupole moment (field-independent basis, Debye-Ang):
   XX=           -106.3221   YY=           -103.9168   ZZ=           -105.7243
   XY=              4.6966   XZ=             16.3101   YZ=              1.3204

 Normal termination of Gaussian 16 at Thu May  6 21:04:18 2021.
