 Gaussian 16, Revision A.03,
 Gaussian 16:  EM64L-G16RevA.03 25-Dec-2016

 -------------
 #p 6-31g* mp2
 -------------

 ------------------------------------------------------
 Input file generated by CHIRIPA (05-May-2021 14:51:13)
 ------------------------------------------------------
 Symbolic Z-matrix:
 Charge =  0 Multiplicity = 1

                         Standard orientation:
 ---------------------------------------------------------------------
 Center     Atomic      Atomic             Coordinates (Angstroms)
 Number     Number       Type             X           Y           Z
 ---------------------------------------------------------------------
      1          6           0        3.214258   -0.861003   -0.009728
      2          6           0        1.712894   -0.616929   -0.165675
      3          6           0        0.898530   -1.910856   -0.146800
      4          1           0        3.557271   -1.523606   -0.816106
      5          1           0        3.395762   -1.395856    0.932813
      6          1           0        1.534406   -0.081474   -1.106975
      7          1           0        1.373452    0.045325    0.641057
      8          1           0        1.047156   -2.445853    0.796752
      9          1           0        1.209024   -2.573372   -0.961212
     10          1           0       -0.171993   -1.713140   -0.259713
     11          6           0        4.041742    0.423018   -0.026676
     12          6           0        5.543106    0.178943    0.129270
     13          6           0        6.357470    1.472871    0.110396
     14          1           0        3.860239    0.957870   -0.969217
     15          1           0        3.698729    1.085621    0.779702
     16          1           0        5.882548   -0.483310   -0.677461
     17          1           0        5.721594   -0.356511    1.070571
     18          1           0        6.046976    2.135387    0.924808
     19          1           0        6.208844    2.007868   -0.833156
     20          1           0        7.427993    1.275155    0.223309
     21          6           0       -3.979602    0.861056    0.236290
     22          6           0       -3.357291    2.125032   -0.357912
     23          6           0       -4.071669    3.401332    0.087641
     24          1           0       -5.038255    0.810426   -0.052913
     25          1           0       -3.958081    0.930720    1.332683
     26          1           0       -3.378724    2.052391   -1.452847
     27          1           0       -2.299950    2.172560   -0.067420
     28          1           0       -4.038436    3.501009    1.177394
     29          1           0       -5.123341    3.380157   -0.215903
     30          1           0       -3.610473    4.292781   -0.348795
     31          6           0       -3.276398   -0.423071   -0.199886
     32          6           0       -3.898709   -1.687047    0.394316
     33          6           0       -3.184331   -2.963346   -0.051237
     34          1           0       -3.297918   -0.492735   -1.296279
     35          1           0       -2.217745   -0.372441    0.089317
     36          1           0       -4.956050   -1.734574    0.103825
     37          1           0       -3.877276   -1.614406    1.489251
     38          1           0       -2.132659   -2.942172    0.252308
     39          1           0       -3.217564   -3.063023   -1.140989
     40          1           0       -3.645527   -3.854796    0.385199
 ---------------------------------------------------------------------

 SCF Done:  E(RHF) =  -470.732798616     A.U. after   11 cycles
 E2 =    -0.1583119647D+01 EUMP2 =    -0.47231591826259D+03

 The electronic state is 1-A.
 Alpha  occ. eigenvalues --  -11.21618 -11.21607 -11.21598 -11.21586 -11.21413
 Alpha  occ. eigenvalues --  -11.21411 -11.21354 -11.21352 -11.21076 -11.21069
 Alpha  occ. eigenvalues --  -11.21040 -11.20997  -1.08449  -1.08423  -1.03558
 Alpha  occ. eigenvalues --   -1.03501  -0.96004  -0.95954  -0.87034  -0.86963
 Alpha  occ. eigenvalues --   -0.79661  -0.79528  -0.78256  -0.78249  -0.65090
 Alpha  occ. eigenvalues --   -0.65057  -0.60974  -0.60917  -0.59512  -0.59197
 Alpha  occ. eigenvalues --   -0.57622  -0.57556  -0.55290  -0.55246  -0.52774
 Alpha  occ. eigenvalues --   -0.52647  -0.52424  -0.52349  -0.49948  -0.49887
 Alpha  occ. eigenvalues --   -0.48017  -0.47807  -0.46647  -0.46588  -0.45794
 Alpha  occ. eigenvalues --   -0.45773  -0.45719  -0.45703  -0.43785  -0.43694
 Alpha virt. eigenvalues --    0.21514   0.23101   0.23543   0.24721   0.26279
 Alpha virt. eigenvalues --    0.26678   0.27110   0.27155   0.28004   0.29108
 Alpha virt. eigenvalues --    0.30754   0.31103   0.31460   0.31836   0.32135

 Mulliken charges:
               1
     1  C   -0.298463
     2  C   -0.299302
     3  C   -0.486222
     4  H    0.149858
     5  H    0.149486
     6  H    0.152386
     7  H    0.151029
     8  H    0.154446
     9  H    0.155836
    10  H    0.170767
    11  C   -0.298241
    12  C   -0.299636
    13  C   -0.475705
    14  H    0.149602
    15  H    0.149505
    16  H    0.151996
    17  H    0.151917
    18  H    0.155147
    19  H    0.155212
    20  H    0.160279
    21  C   -0.297829
    22  C   -0.299789
    23  C   -0.475711
    24  H    0.149820
    25  H    0.149481
    26  H    0.151895
    27  H    0.152241
    28  H    0.155140
    29  H    0.155170
    30  H    0.160291
    31  C   -0.303916
    32  C   -0.299552
    33  C   -0.481504
    34  H    0.149440
    35  H    0.154422
    36  H    0.151897
    37  H    0.151653
    38  H    0.162060
    39  H    0.154743
    40  H    0.160153
 Sum of Mulliken charges =  -0.00000

 Dipole moment (field-independent basis, Debye):
    X=              0.0034    Y=             -0.0023    Z=             -0.0088  Tot=              0.0097
 Quadrupole moment (field-independent basis, Debye-Ang):
   XX=            -85.1659   YY=            -86.5329   ZZ=            -83.1256
   XY=             -0.1817   XZ=              0.4843   YZ=             -0.0967

 Normal termination of Gaussian 16 at Wed May  5 15:20:11 2021.
