 Gaussian 16, Revision A.03,
 Gaussian 16:  EM64L-G16RevA.03 25-Dec-2016

 -------------
 #p 6-31g* mp2
 -------------

 ------------------------------------------------------
 Input file generated by CHIRIPA (05-May-2021 14:53:11)
 ------------------------------------------------------
 Symbolic Z-matrix:
 Charge =  0 Multiplicity = 1

                         Standard orientation:
 ---------------------------------------------------------------------
 Center     Atomic      Atomic             Coordinates (Angstroms)
 Number     Number       Type             X           Y           Z
 ---------------------------------------------------------------------
      1          6           0       -3.044024    0.750017   -0.287649
      2          6           0       -2.227121    1.573838   -1.283627
      3          6           0       -2.569548    3.063346   -1.239993
      4          1           0       -4.113537    0.888134   -0.497438
      5          1           0       -2.871806    1.137242    0.726152
      6          1           0       -2.399755    1.184292   -2.295095
      7          1           0       -1.159424    1.433592   -1.071565
      8          1           0       -2.379969    3.473157   -0.242638
      9          1           0       -3.627348    3.222441   -1.473121
     10          1           0       -1.974025    3.633445   -1.959853
     11          6           0       -2.713018   -0.741008   -0.319398
     12          6           0       -3.529921   -1.564829    0.676580
     13          6           0       -3.187494   -3.054337    0.632945
     14          1           0       -2.885236   -1.128234   -1.333199
     15          1           0       -1.643505   -0.879126   -0.109610
     16          1           0       -4.597618   -1.424584    0.464517
     17          1           0       -3.357286   -1.175283    1.688048
     18          1           0       -2.129694   -3.213432    0.866074
     19          1           0       -3.377073   -3.464149   -0.364409
     20          1           0       -3.783017   -3.624437    1.352806
     21          6           0        1.085179    1.700483    1.689086
     22          6           0        0.464643    0.478484    1.409490
     23          6           0        1.100064   -0.473102    0.606203
     24          6           0        2.361343   -0.168256    0.096758
     25          6           0        3.005525    1.040231    0.357293
     26          6           0        2.351408    1.976970    1.163023
     27          1           0        0.584307    2.433931    2.314047
     28          1           0       -0.518700    0.261045    1.816678
     29          1           0        0.642543   -1.427093    0.373836
     30          1           0        3.986058    1.228356   -0.062925
     31          1           0        2.835722    2.925156    1.378493
     32          7           0        3.043932   -1.167798   -0.754939
     33          8           0        4.154877   -0.875056   -1.191678
     34          8           0        2.455075   -2.225054   -0.969633
 ---------------------------------------------------------------------

 SCF Done:  E(RHF) =  -669.534019691     A.U. after   15 cycles
 E2 =    -0.2094844912D+01 EUMP2 =    -0.67162886460238D+03

 The electronic state is 1-A.
 Alpha  occ. eigenvalues --  -20.60816 -20.60811 -15.85871 -11.31273 -11.27837
 Alpha  occ. eigenvalues --  -11.27832 -11.27586 -11.26860 -11.26847 -11.22248
 Alpha  occ. eigenvalues --  -11.22055 -11.21991 -11.21934 -11.21561 -11.21523
 Alpha  occ. eigenvalues --   -1.59891  -1.39443  -1.19457  -1.09055  -1.08825
 Alpha  occ. eigenvalues --   -1.04871  -1.04052  -0.96517  -0.95667  -0.87525
 Alpha  occ. eigenvalues --   -0.86254  -0.82516  -0.80111  -0.78867  -0.77541
 Alpha  occ. eigenvalues --   -0.72089  -0.71214  -0.70565  -0.65890  -0.65095
 Alpha  occ. eigenvalues --   -0.64775  -0.62187  -0.61445  -0.59870  -0.58110
 Alpha  occ. eigenvalues --   -0.55848  -0.55323  -0.53271  -0.53101  -0.52944
 Alpha  occ. eigenvalues --   -0.52915  -0.50474  -0.48850  -0.48843  -0.48417
 Alpha  occ. eigenvalues --   -0.47158  -0.46356  -0.46327  -0.44838  -0.44327
 Alpha  occ. eigenvalues --   -0.37423  -0.36384
 Alpha virt. eigenvalues --    0.04958   0.11112   0.16346   0.18914   0.22963
 Alpha virt. eigenvalues --    0.23346   0.25179   0.25608   0.27397   0.28687
 Alpha virt. eigenvalues --    0.29400   0.30637   0.31267   0.31626   0.32005

 Mulliken charges:
               1
     1  C   -0.297423
     2  C   -0.305245
     3  C   -0.474773
     4  H    0.153211
     5  H    0.139378
     6  H    0.155112
     7  H    0.158927
     8  H    0.149413
     9  H    0.156301
    10  H    0.162398
    11  C   -0.305817
    12  C   -0.301001
    13  C   -0.475463
    14  H    0.157101
    15  H    0.145843
    16  H    0.155799
    17  H    0.145270
    18  H    0.152457
    19  H    0.160346
    20  H    0.162690
    21  C   -0.172192
    22  C   -0.218220
    23  C   -0.173898
    24  C    0.158207
    25  C   -0.171073
    26  C   -0.218231
    27  H    0.226207
    28  H    0.228780
    29  H    0.277712
    30  H    0.276009
    31  H    0.224036
    32  N    0.488299
    33  O   -0.460128
    34  O   -0.460032
 Sum of Mulliken charges =  -0.00000

 Dipole moment (field-independent basis, Debye):
    X=             -2.4098    Y=              3.4736    Z=              2.8869  Tot=              5.1193
 Quadrupole moment (field-independent basis, Debye-Ang):
   XX=           -102.5359   YY=            -95.4590   ZZ=            -94.3073
   XY=             12.2098   XZ=              7.3069   YZ=             -0.2339

 Normal termination of Gaussian 16 at Thu May  6 07:15:03 2021.
