 Gaussian 16, Revision A.03,
 Gaussian 16:  EM64L-G16RevA.03 25-Dec-2016

 -------------
 #p 6-31g* mp2
 -------------

 ------------------------------------------------------
 Input file generated by CHIRIPA (05-May-2021 14:57:25)
 ------------------------------------------------------
 Symbolic Z-matrix:
 Charge =  0 Multiplicity = 1

                         Standard orientation:
 ---------------------------------------------------------------------
 Center     Atomic      Atomic             Coordinates (Angstroms)
 Number     Number       Type             X           Y           Z
 ---------------------------------------------------------------------
      1          6           0        0.551537    0.226427    2.146302
      2          6           0        1.008295    1.331505    1.420563
      3          6           0        2.010218    1.183196    0.456871
      4          6           0        2.535485   -0.090360    0.243702
      5          6           0        2.101401   -1.210731    0.950547
      6          6           0        1.098583   -1.038933    1.909395
      7          1           0       -0.227128    0.350761    2.893040
      8          1           0        0.585280    2.315388    1.602433
      9          1           0        2.382351    2.021631   -0.119289
     10          1           0        2.542350   -2.178996    0.746965
     11          1           0        0.745801   -1.898941    2.471513
     12          7           0        3.596650   -0.259802   -0.773952
     13          8           0        4.043144   -1.392375   -0.942939
     14          8           0        3.961803    0.743172   -1.383332
     15          6           0       -1.863325    2.535443   -0.465049
     16          6           0       -2.361431    1.946734    0.701927
     17          6           0       -2.640529    0.577441    0.743056
     18          6           0       -2.408666   -0.176647   -0.406240
     19          6           0       -1.913101    0.380711   -1.583973
     20          6           0       -1.641142    1.751935   -1.602269
     21          1           0       -1.649289    3.599892   -0.488131
     22          1           0       -2.534953    2.552761    1.586611
     23          1           0       -3.026772    0.095928    1.633214
     24          1           0       -1.750355   -0.249272   -2.450028
     25          1           0       -1.254372    2.206435   -2.509949
     26          7           0       -2.700355   -1.627278   -0.374783
     27          8           0       -2.487449   -2.269794   -1.400689
     28          8           0       -3.136364   -2.094298    0.675181
 ---------------------------------------------------------------------

 SCF Done:  E(RHF) =  -868.335436238     A.U. after   16 cycles
 E2 =    -0.2605097974D+01 EUMP2 =    -0.87094053421221D+03

 The electronic state is 1-A.
 Alpha  occ. eigenvalues --  -20.61362 -20.61325 -20.60850 -20.60826 -15.86399
 Alpha  occ. eigenvalues --  -15.85894 -11.31821 -11.31226 -11.28465 -11.28348
 Alpha  occ. eigenvalues --  -11.28164 -11.27839 -11.27732 -11.27565 -11.27485
 Alpha  occ. eigenvalues --  -11.27372 -11.26874 -11.26739  -1.60418  -1.59918
 Alpha  occ. eigenvalues --   -1.39971  -1.39472  -1.20018  -1.19401  -1.09405
 Alpha  occ. eigenvalues --   -1.08822  -1.05439  -1.04805  -0.96231  -0.95657
 Alpha  occ. eigenvalues --   -0.86850  -0.86206  -0.83068  -0.82485  -0.78096
 Alpha  occ. eigenvalues --   -0.77531  -0.72620  -0.72114  -0.71740  -0.71243
 Alpha  occ. eigenvalues --   -0.71164  -0.70551  -0.65679  -0.65462  -0.65065
 Alpha  occ. eigenvalues --   -0.64834  -0.62783  -0.62170  -0.55951  -0.55359
 Alpha  occ. eigenvalues --   -0.54353  -0.53533  -0.52927  -0.52521  -0.49387
 Alpha  occ. eigenvalues --   -0.49366  -0.48877  -0.48862  -0.45367  -0.44886
 Alpha  occ. eigenvalues --   -0.38186  -0.37991  -0.36376  -0.36152
 Alpha virt. eigenvalues --    0.04244   0.05157   0.10211   0.11567   0.15739
 Alpha virt. eigenvalues --    0.16654   0.19639   0.22082   0.25875   0.26283
 Alpha virt. eigenvalues --    0.28198   0.29217   0.30164   0.30630   0.32272

 Mulliken charges:
               1
     1  C   -0.169013
     2  C   -0.206146
     3  C   -0.173765
     4  C    0.157635
     5  C   -0.170477
     6  C   -0.220793
     7  H    0.219672
     8  H    0.213295
     9  H    0.271004
    10  H    0.278162
    11  H    0.229648
    12  N    0.487963
    13  O   -0.458019
    14  O   -0.463620
    15  C   -0.172710
    16  C   -0.223373
    17  C   -0.171933
    18  C    0.164395
    19  C   -0.168251
    20  C   -0.216311
    21  H    0.225365
    22  H    0.219551
    23  H    0.271659
    24  H    0.279928
    25  H    0.228366
    26  N    0.487720
    27  O   -0.455978
    28  O   -0.463975
 Sum of Mulliken charges =  -0.00000

 Dipole moment (field-independent basis, Debye):
    X=             -2.7783    Y=              5.5092    Z=              3.2629  Tot=              6.9798
 Quadrupole moment (field-independent basis, Debye-Ang):
   XX=           -130.2475   YY=           -102.6682   ZZ=            -98.8688
   XY=            -11.2051   XZ=              6.9060   YZ=             -3.2484

 Normal termination of Gaussian 16 at Fri May  7 00:24:07 2021.
