 Gaussian 16, Revision A.03,
 Gaussian 16:  EM64L-G16RevA.03 25-Dec-2016

 -------------
 #p 6-31g* mp2
 -------------

 ------------------------------------------------------
 Input file generated by CHIRIPA (05-May-2021 14:57:22)
 ------------------------------------------------------
 Symbolic Z-matrix:
 Charge =  0 Multiplicity = 1

                         Standard orientation:
 ---------------------------------------------------------------------
 Center     Atomic      Atomic             Coordinates (Angstroms)
 Number     Number       Type             X           Y           Z
 ---------------------------------------------------------------------
      1          6           0       -1.721260    1.816470    0.153480
      2          6           0       -1.940425    1.013303    1.277495
      3          6           0       -3.021471    0.127701    1.317457
      4          6           0       -3.867275    0.070727    0.210815
      5          6           0       -3.675361    0.857918   -0.923553
      6          6           0       -2.587899    1.736355   -0.941526
      7          1           0       -0.878986    2.501644    0.130977
      8          1           0       -1.269014    1.073409    2.129340
      9          1           0       -3.214476   -0.505576    2.174853
     10          1           0       -4.361858    0.775737   -1.757451
     11          1           0       -2.420139    2.358901   -1.815791
     12          7           0       -5.015126   -0.863028    0.241481
     13          8           0       -5.745759   -0.894424   -0.746358
     14          8           0       -5.162444   -1.545828    1.252777
     15          6           0        1.442166   -0.512586   -1.338730
     16          6           0        2.267562   -1.621799   -1.126858
     17          6           0        3.508489   -1.474025   -0.500112
     18          6           0        3.894257   -0.196782   -0.096229
     19          6           0        3.094302    0.927753   -0.293165
     20          6           0        1.857439    0.756413   -0.921942
     21          1           0        0.479763   -0.636533   -1.826389
     22          1           0        1.947643   -2.608514   -1.449489
     23          1           0        4.167252   -2.315626   -0.323597
     24          1           0        3.440479    1.898778    0.039534
     25          1           0        1.218499    1.619637   -1.085174
     26          7           0        5.205820   -0.027866    0.568354
     27          8           0        5.522663    1.108008    0.914817
     28          8           0        5.892145   -1.034543    0.730207
 ---------------------------------------------------------------------

 SCF Done:  E(RHF) =  -868.337104575     A.U. after   16 cycles
 E2 =    -0.2600360809D+01 EUMP2 =    -0.87093746538381D+03

 The electronic state is 1-A.
 Alpha  occ. eigenvalues --  -20.61431 -20.61422 -20.61231 -20.61220 -15.86486
 Alpha  occ. eigenvalues --  -15.86287 -11.32001 -11.31722 -11.28589 -11.28529
 Alpha  occ. eigenvalues --  -11.28410 -11.28369 -11.28278 -11.28039 -11.27689
 Alpha  occ. eigenvalues --  -11.27584 -11.27422 -11.27260  -1.60503  -1.60304
 Alpha  occ. eigenvalues --   -1.40051  -1.39855  -1.20193  -1.19913  -1.09581
 Alpha  occ. eigenvalues --   -1.09278  -1.05597  -1.05342  -0.96385  -0.96099
 Alpha  occ. eigenvalues --   -0.86993  -0.86731  -0.83199  -0.82941  -0.78202
 Alpha  occ. eigenvalues --   -0.77993  -0.72698  -0.72502  -0.71831  -0.71631
 Alpha  occ. eigenvalues --   -0.71353  -0.70982  -0.65839  -0.65613  -0.65561
 Alpha  occ. eigenvalues --   -0.65337  -0.62919  -0.62700  -0.56196  -0.55760
 Alpha  occ. eigenvalues --   -0.53992  -0.53676  -0.53617  -0.53401  -0.49471
 Alpha  occ. eigenvalues --   -0.49446  -0.49266  -0.49253  -0.45422  -0.45246
 Alpha  occ. eigenvalues --   -0.38344  -0.37770  -0.37203  -0.36923
 Alpha virt. eigenvalues --    0.04275   0.04570   0.10336   0.10741   0.15654
 Alpha virt. eigenvalues --    0.16033   0.19108   0.21711   0.25170   0.26575
 Alpha virt. eigenvalues --    0.27785   0.28543   0.29745   0.31665   0.31684

 Mulliken charges:
               1
     1  C   -0.175012
     2  C   -0.216759
     3  C   -0.171236
     4  C    0.158763
     5  C   -0.171813
     6  C   -0.223506
     7  H    0.222146
     8  H    0.228581
     9  H    0.278726
    10  H    0.277514
    11  H    0.223557
    12  N    0.487786
    13  O   -0.459041
    14  O   -0.457838
    15  C   -0.169365
    16  C   -0.219127
    17  C   -0.169961
    18  C    0.158499
    19  C   -0.172451
    20  C   -0.220208
    21  H    0.229307
    22  H    0.226804
    23  H    0.277714
    24  H    0.274335
    25  H    0.213686
    26  N    0.488074
    27  O   -0.460753
    28  O   -0.458421
 Sum of Mulliken charges =  -0.00000

 Dipole moment (field-independent basis, Debye):
    X=             -0.6776    Y=              2.4875    Z=             -2.3598  Tot=              3.4951
 Quadrupole moment (field-independent basis, Debye-Ang):
   XX=           -172.2275   YY=            -99.5506   ZZ=           -100.9157
   XY=            -15.5189   XZ=             -6.2866   YZ=              0.2937

 Normal termination of Gaussian 16 at Thu May  6 01:45:41 2021.
