 Gaussian 16, Revision A.03,
 Gaussian 16:  EM64L-G16RevA.03 25-Dec-2016

 -------------
 #p 6-31g* mp2
 -------------

 ------------------------------------------------------
 Input file generated by CHIRIPA (05-May-2021 14:57:21)
 ------------------------------------------------------
 Symbolic Z-matrix:
 Charge =  0 Multiplicity = 1

                         Standard orientation:
 ---------------------------------------------------------------------
 Center     Atomic      Atomic             Coordinates (Angstroms)
 Number     Number       Type             X           Y           Z
 ---------------------------------------------------------------------
      1          6           0       -1.074487    1.775792   -1.589499
      2          6           0       -0.647835    0.443843   -1.569481
      3          6           0       -1.398238   -0.532195   -0.907068
      4          6           0       -2.575543   -0.139417   -0.272269
      5          6           0       -3.027003    1.179472   -0.274426
      6          6           0       -2.260618    2.138716   -0.943047
      7          1           0       -0.485348    2.527479   -2.106488
      8          1           0        0.272917    0.159108   -2.070666
      9          1           0       -1.091211   -1.570549   -0.875875
     10          1           0       -3.949208    1.432916    0.234222
     11          1           0       -2.594401    3.172370   -0.956947
     12          7           0       -3.378421   -1.163815    0.432284
     13          8           0       -4.411952   -0.792116    0.983908
     14          8           0       -2.958982   -2.319041    0.419548
     15          6           0        3.272054   -1.573551   -1.426716
     16          6           0        2.900251   -2.092379   -0.182087
     17          6           0        2.439600   -1.246183    0.830978
     18          6           0        2.363090    0.119866    0.563866
     19          6           0        2.726116    0.667052   -0.665804
     20          6           0        3.183957   -0.197917   -1.664184
     21          1           0        3.628808   -2.238187   -2.207985
     22          1           0        2.967628   -3.160295    0.005156
     23          1           0        2.145222   -1.621137    1.803690
     24          1           0        2.647973    1.736018   -0.822716
     25          1           0        3.472018    0.207811   -2.629818
     26          7           0        1.876907    1.025632    1.628579
     27          8           0        1.818772    2.225394    1.368143
     28          8           0        1.563179    0.518657    2.703377
 ---------------------------------------------------------------------

 SCF Done:  E(RHF) =  -868.336659950     A.U. after   16 cycles
 E2 =    -0.2603641725D+01 EUMP2 =    -0.87094030167475D+03

 The electronic state is 1-A.
 Alpha  occ. eigenvalues --  -20.61265 -20.61241 -20.60559 -20.60537 -15.86314
 Alpha  occ. eigenvalues --  -15.85601 -11.31864 -11.30928 -11.28545 -11.28435
 Alpha  occ. eigenvalues --  -11.28285 -11.27587 -11.27499 -11.27474 -11.27440
 Alpha  occ. eigenvalues --  -11.27234 -11.26471 -11.26444  -1.60319  -1.59622
 Alpha  occ. eigenvalues --   -1.39871  -1.39179  -1.20117  -1.19086  -1.09444
 Alpha  occ. eigenvalues --   -1.08499  -1.05556  -1.04483  -0.96244  -0.95342
 Alpha  occ. eigenvalues --   -0.86907  -0.85896  -0.83074  -0.82177  -0.78085
 Alpha  occ. eigenvalues --   -0.77233  -0.72536  -0.71828  -0.71641  -0.71181
 Alpha  occ. eigenvalues --   -0.70936  -0.70224  -0.65742  -0.65509  -0.64745
 Alpha  occ. eigenvalues --   -0.64538  -0.62860  -0.61881  -0.55997  -0.55063
 Alpha  occ. eigenvalues --   -0.54018  -0.53597  -0.52763  -0.52405  -0.49309
 Alpha  occ. eigenvalues --   -0.49275  -0.48585  -0.48573  -0.45239  -0.44595
 Alpha  occ. eigenvalues --   -0.38231  -0.37377  -0.36825  -0.35908
 Alpha virt. eigenvalues --    0.04427   0.05310   0.10096   0.11909   0.15806
 Alpha virt. eigenvalues --    0.16795   0.20478   0.21927   0.26331   0.27378
 Alpha virt. eigenvalues --    0.27745   0.28851   0.30188   0.31235   0.32351

 Mulliken charges:
               1
     1  C   -0.169327
     2  C   -0.222741
     3  C   -0.175520
     4  C    0.160707
     5  C   -0.169755
     6  C   -0.214509
     7  H    0.222037
     8  H    0.224251
     9  H    0.271702
    10  H    0.276047
    11  H    0.224625
    12  N    0.488724
    13  O   -0.459133
    14  O   -0.463678
    15  C   -0.172144
    16  C   -0.220745
    17  C   -0.170790
    18  C    0.166651
    19  C   -0.177013
    20  C   -0.227871
    21  H    0.228975
    22  H    0.229096
    23  H    0.281783
    24  H    0.273257
    25  H    0.223831
    26  N    0.489287
    27  O   -0.462235
    28  O   -0.455511
 Sum of Mulliken charges =  -0.00000

 Dipole moment (field-independent basis, Debye):
    X=              4.6240    Y=              0.4013    Z=             -5.9716  Tot=              7.5633
 Quadrupole moment (field-independent basis, Debye-Ang):
   XX=           -109.8660   YY=           -101.3743   ZZ=           -106.7284
   XY=            -19.9832   XZ=             -3.5963   YZ=             -4.6526

 Normal termination of Gaussian 16 at Thu May  6 06:28:24 2021.
