 Gaussian 16, Revision A.03,
 Gaussian 16:  EM64L-G16RevA.03 25-Dec-2016

 -------------
 #p 6-31g* mp2
 -------------

 ------------------------------------------------------
 Input file generated by CHIRIPA (05-May-2021 14:51:13)
 ------------------------------------------------------
 Symbolic Z-matrix:
 Charge =  0 Multiplicity = 1

                         Standard orientation:
 ---------------------------------------------------------------------
 Center     Atomic      Atomic             Coordinates (Angstroms)
 Number     Number       Type             X           Y           Z
 ---------------------------------------------------------------------
      1          6           0       -2.457644   -0.396323    1.138691
      2          6           0       -1.098302    0.289068    1.281573
      3          6           0       -0.456863    0.050664    2.648875
      4          1           0       -3.129152   -0.033063    1.928668
      5          1           0       -2.335443   -1.475703    1.304219
      6          1           0       -1.222797    1.366653    1.114459
      7          1           0       -0.430012   -0.075724    0.491047
      8          1           0       -0.303808   -1.019599    2.821251
      9          1           0       -1.101098    0.430973    3.448204
     10          1           0        0.513985    0.549501    2.729339
     11          6           0       -3.111485   -0.167234   -0.222830
     12          6           0       -4.470826   -0.852624   -0.365713
     13          6           0       -5.112265   -0.614220   -1.733014
     14          1           0       -3.233686    0.912147   -0.388358
     15          1           0       -2.439977   -0.530494   -1.012807
     16          1           0       -5.139117   -0.487833    0.424813
     17          1           0       -4.346332   -1.930209   -0.198599
     18          1           0       -4.468031   -0.994530   -2.532344
     19          1           0       -5.265320    0.456042   -1.905390
     20          1           0       -6.083114   -1.113058   -1.813479
     21          6           0        2.964514   -0.396140   -0.760381
     22          6           0        3.939250   -1.203409    0.097635
     23          6           0        4.289660   -2.557183   -0.520672
     24          1           0        2.046686   -0.981041   -0.910135
     25          1           0        3.403478   -0.242961   -1.755993
     26          1           0        3.499169   -1.353834    1.091776
     27          1           0        4.854789   -0.616439    0.245524
     28          1           0        4.752097   -2.423481   -1.503970
     29          1           0        3.388775   -3.165065   -0.652910
     30          1           0        4.987640   -3.117584    0.109117
     31          6           0        2.604615    0.959697   -0.155480
     32          6           0        1.629878    1.766965   -1.013495
     33          6           0        1.279469    3.120739   -0.395188
     34          1           0        2.165651    0.806518    0.840132
     35          1           0        3.522443    1.544598   -0.005725
     36          1           0        0.714339    1.179995   -1.161384
     37          1           0        2.069960    1.917390   -2.007636
     38          1           0        2.180354    3.728621   -0.262950
     39          1           0        0.817031    2.987037    0.588110
     40          1           0        0.581488    3.681141   -1.024977
 ---------------------------------------------------------------------

 SCF Done:  E(RHF) =  -470.732245557     A.U. after   11 cycles
 E2 =    -0.1584957261D+01 EUMP2 =    -0.47231720281805D+03

 The electronic state is 1-A.
 Alpha  occ. eigenvalues --  -11.21652 -11.21642 -11.21597 -11.21496 -11.21463
 Alpha  occ. eigenvalues --  -11.21404 -11.21391 -11.21305 -11.21169 -11.21099
 Alpha  occ. eigenvalues --  -11.21075 -11.21012  -1.08525  -1.08377  -1.03638
 Alpha  occ. eigenvalues --   -1.03456  -0.96047  -0.95953  -0.87063  -0.86971
 Alpha  occ. eigenvalues --   -0.79694  -0.79546  -0.78330  -0.78212  -0.65274
 Alpha  occ. eigenvalues --   -0.64953  -0.61036  -0.60950  -0.59369  -0.59290
 Alpha  occ. eigenvalues --   -0.57630  -0.57557  -0.55409  -0.55178  -0.52752
 Alpha  occ. eigenvalues --   -0.52647  -0.52508  -0.52345  -0.50065  -0.49841
 Alpha  occ. eigenvalues --   -0.48086  -0.47812  -0.46845  -0.46483  -0.46024
 Alpha  occ. eigenvalues --   -0.45774  -0.45681  -0.45371  -0.43837  -0.43752
 Alpha virt. eigenvalues --    0.19957   0.23069   0.23494   0.24426   0.25101
 Alpha virt. eigenvalues --    0.26238   0.26559   0.27937   0.28854   0.29480
 Alpha virt. eigenvalues --    0.30690   0.31059   0.31470   0.31908   0.31998

 Mulliken charges:
               1
     1  C   -0.297778
     2  C   -0.307589
     3  C   -0.479647
     4  H    0.149872
     5  H    0.149378
     6  H    0.155149
     7  H    0.157998
     8  H    0.155397
     9  H    0.156006
    10  H    0.162446
    11  C   -0.298761
    12  C   -0.299621
    13  C   -0.475777
    14  H    0.149927
    15  H    0.149173
    16  H    0.152160
    17  H    0.151987
    18  H    0.155282
    19  H    0.155315
    20  H    0.160404
    21  C   -0.299025
    22  C   -0.299766
    23  C   -0.475654
    24  H    0.148881
    25  H    0.149796
    26  H    0.152206
    27  H    0.152064
    28  H    0.155203
    29  H    0.154839
    30  H    0.160301
    31  C   -0.305426
    32  C   -0.301402
    33  C   -0.478070
    34  H    0.156151
    35  H    0.149838
    36  H    0.155452
    37  H    0.151446
    38  H    0.154714
    39  H    0.157435
    40  H    0.159699
 Sum of Mulliken charges =  -0.00000

 Dipole moment (field-independent basis, Debye):
    X=             -0.0372    Y=             -0.0027    Z=              0.0184  Tot=              0.0416
 Quadrupole moment (field-independent basis, Debye-Ang):
   XX=            -84.4197   YY=            -84.9895   ZZ=            -85.4165
   XY=              0.2982   XZ=             -0.9702   YZ=             -0.1086

 Normal termination of Gaussian 16 at Thu May  6 05:33:13 2021.
