 Gaussian 16, Revision A.03,
 Gaussian 16:  EM64L-G16RevA.03 25-Dec-2016

 -------------
 #p 6-31g* mp2
 -------------

 ------------------------------------------------------
 Input file generated by CHIRIPA (05-May-2021 14:55:20)
 ------------------------------------------------------
 Symbolic Z-matrix:
 Charge =  0 Multiplicity = 1

                         Standard orientation:
 ---------------------------------------------------------------------
 Center     Atomic      Atomic             Coordinates (Angstroms)
 Number     Number       Type             X           Y           Z
 ---------------------------------------------------------------------
      1          6           0       -1.243230   -1.915070   -0.972531
      2          6           0       -0.804335   -0.601338   -0.777597
      3          6           0       -1.682899    0.377968   -0.304700
      4          6           0       -2.999457    0.006998   -0.035723
      5          6           0       -3.466780   -1.293400   -0.219745
      6          6           0       -2.570712   -2.256307   -0.693476
      7          1           0       -0.553942   -2.669449   -1.340213
      8          1           0        0.226046   -0.333464   -0.993478
      9          1           0       -1.369628    1.402521   -0.144791
     10          1           0       -4.499806   -1.530231    0.004279
     11          1           0       -2.914342   -3.275781   -0.843922
     12          7           0       -3.938819    1.035065    0.465353
     13          8           0       -5.093733    0.682744    0.694873
     14          8           0       -3.502389    2.173719    0.619088
     15          6           0        3.926079    0.831062   -0.186115
     16          6           0        3.094636    2.089769    0.063565
     17          6           0        3.677420    3.328075   -0.618164
     18          1           0        4.951251    0.999685    0.171005
     19          1           0        3.997028    0.655652   -1.268516
     20          1           0        3.024116    2.261975    1.145225
     21          1           0        2.071274    1.918062   -0.294017
     22          1           0        3.732342    3.181369   -1.701704
     23          1           0        4.690598    3.527236   -0.254285
     24          1           0        3.067408    4.216352   -0.426565
     25          6           0        3.356195   -0.415216    0.488978
     26          6           0        4.187639   -1.673924    0.239299
     27          6           0        3.604854   -2.912230    0.921027
     28          1           0        3.285247   -0.239806    1.571379
     29          1           0        2.331023   -0.583840    0.131858
     30          1           0        5.211001   -1.502217    0.596880
     31          1           0        4.258158   -1.846130   -0.842361
     32          1           0        2.591676   -3.111390    0.557149
     33          1           0        3.549932   -2.765524    2.004567
     34          1           0        4.214866   -3.800507    0.729428
 ---------------------------------------------------------------------

 SCF Done:  E(RHF) =  -669.535394961     A.U. after   15 cycles
 E2 =    -0.2091669758D+01 EUMP2 =    -0.67162706471918D+03

 The electronic state is 1-A.
 Alpha  occ. eigenvalues --  -20.60753 -20.60748 -15.85807 -11.31180 -11.27754
 Alpha  occ. eigenvalues --  -11.27747 -11.27505 -11.26769 -11.26749 -11.22385
 Alpha  occ. eigenvalues --  -11.22345 -11.22256 -11.22121 -11.21839 -11.21588
 Alpha  occ. eigenvalues --   -1.59829  -1.39382  -1.19355  -1.09219  -1.08750
 Alpha  occ. eigenvalues --   -1.04760  -1.04252  -0.96691  -0.95583  -0.87702
 Alpha  occ. eigenvalues --   -0.86162  -0.82417  -0.80317  -0.79042  -0.77457
 Alpha  occ. eigenvalues --   -0.72026  -0.71152  -0.70466  -0.65930  -0.65009
 Alpha  occ. eigenvalues --   -0.64732  -0.62109  -0.61656  -0.60052  -0.58297
 Alpha  occ. eigenvalues --   -0.56001  -0.55260  -0.53359  -0.53139  -0.53076
 Alpha  occ. eigenvalues --   -0.52840  -0.50635  -0.48790  -0.48780  -0.48625
 Alpha  occ. eigenvalues --   -0.47372  -0.46557  -0.46481  -0.44786  -0.44519
 Alpha  occ. eigenvalues --   -0.37335  -0.36353
 Alpha virt. eigenvalues --    0.05074   0.11205   0.16524   0.18608   0.22896
 Alpha virt. eigenvalues --    0.23031   0.24836   0.26335   0.26793   0.27525
 Alpha virt. eigenvalues --    0.29756   0.30769   0.31107   0.31366   0.32097

 Mulliken charges:
               1
     1  C   -0.172555
     2  C   -0.222659
     3  C   -0.172311
     4  C    0.158772
     5  C   -0.170810
     6  C   -0.218417
     7  H    0.225598
     8  H    0.230369
     9  H    0.276000
    10  H    0.275661
    11  H    0.223496
    12  N    0.488052
    13  O   -0.460511
    14  O   -0.460302
    15  C   -0.299237
    16  C   -0.299279
    17  C   -0.476412
    18  H    0.153783
    19  H    0.148520
    20  H    0.156561
    21  H    0.142486
    22  H    0.155370
    23  H    0.157610
    24  H    0.164168
    25  C   -0.302215
    26  C   -0.300310
    27  C   -0.474629
    28  H    0.154727
    29  H    0.141823
    30  H    0.155865
    31  H    0.150579
    32  H    0.148741
    33  H    0.158913
    34  H    0.162555
 Sum of Mulliken charges =  -0.00000

 Dipole moment (field-independent basis, Debye):
    X=              3.4920    Y=             -3.5662    Z=             -1.6806  Tot=              5.2665
 Quadrupole moment (field-independent basis, Debye-Ang):
   XX=           -111.1249   YY=            -93.3816   ZZ=            -94.9006
   XY=             13.8904   XZ=              5.9548   YZ=              0.5840

 Normal termination of Gaussian 16 at Wed May  5 17:23:03 2021.
