 Gaussian 16, Revision A.03,
 Gaussian 16:  EM64L-G16RevA.03 25-Dec-2016

 -------------
 #p 6-31g* mp2
 -------------

 ------------------------------------------------------
 Input file generated by CHIRIPA (05-May-2021 14:53:14)
 ------------------------------------------------------
 Symbolic Z-matrix:
 Charge =  0 Multiplicity = 1

                         Standard orientation:
 ---------------------------------------------------------------------
 Center     Atomic      Atomic             Coordinates (Angstroms)
 Number     Number       Type             X           Y           Z
 ---------------------------------------------------------------------
      1          6           0       -4.348089    0.814652   -0.043091
      2          6           0       -2.956993    0.948578    0.577313
      3          6           0       -2.346867    2.334690    0.366996
      4          1           0       -4.285213    1.029819   -1.118588
      5          1           0       -5.010079    1.577243    0.390060
      6          1           0       -2.298190    0.185068    0.144132
      7          1           0       -3.023155    0.732880    1.651423
      8          1           0       -2.980959    3.106692    0.814815
      9          1           0       -2.251875    2.555767   -0.701040
     10          1           0       -1.352571    2.408375    0.818445
     11          6           0       -4.971160   -0.565471    0.158824
     12          6           0       -6.362256   -0.699397   -0.461580
     13          6           0       -6.972382   -2.085509   -0.251263
     14          1           0       -4.309170   -1.328062   -0.274326
     15          1           0       -5.034036   -0.780638    1.234321
     16          1           0       -6.296094   -0.483699   -1.535690
     17          1           0       -7.021059    0.064113   -0.028399
     18          1           0       -7.067373   -2.306586    0.816774
     19          1           0       -6.338289   -2.857511   -0.699082
     20          1           0       -7.966678   -2.159194   -0.702712
     21          6           0        1.657037    1.458630   -0.152139
     22          6           0        2.944039    1.946937   -0.400539
     23          6           0        4.050254    1.093915   -0.344045
     24          6           0        3.832069   -0.247762   -0.034870
     25          6           0        2.562134   -0.764303    0.217599
     26          6           0        1.470521    0.106951    0.155595
     27          1           0        0.803373    2.128358   -0.198164
     28          1           0        3.091882    2.996202   -0.639767
     29          1           0        5.057494    1.445450   -0.531953
     30          1           0        2.446288   -1.815167    0.453565
     31          1           0        0.472159   -0.275051    0.348967
     32          7           0        4.995441   -1.160468    0.027853
     33          8           0        4.776599   -2.338345    0.302353
     34          8           0        6.104103   -0.680687   -0.198672
 ---------------------------------------------------------------------

 SCF Done:  E(RHF) =  -669.535511958     A.U. after   15 cycles
 E2 =    -0.2091312701D+01 EUMP2 =    -0.67162682465920D+03

 The electronic state is 1-A.
 Alpha  occ. eigenvalues --  -20.60717 -20.60711 -15.85770 -11.31123 -11.27692
 Alpha  occ. eigenvalues --  -11.27688 -11.27378 -11.26695 -11.26681 -11.22794
 Alpha  occ. eigenvalues --  -11.22424 -11.22265 -11.22163 -11.22068 -11.21521
 Alpha  occ. eigenvalues --   -1.59793  -1.39346  -1.19291  -1.09275  -1.08684
 Alpha  occ. eigenvalues --   -1.04695  -1.04403  -0.96856  -0.95521  -0.87876
 Alpha  occ. eigenvalues --   -0.86089  -0.82360  -0.80491  -0.79031  -0.77410
 Alpha  occ. eigenvalues --   -0.71988  -0.71116  -0.70416  -0.65905  -0.64941
 Alpha  occ. eigenvalues --   -0.64708  -0.62070  -0.61765  -0.60288  -0.58446
 Alpha  occ. eigenvalues --   -0.56132  -0.55230  -0.53524  -0.53250  -0.53016
 Alpha  occ. eigenvalues --   -0.52786  -0.50776  -0.48815  -0.48744  -0.48721
 Alpha  occ. eigenvalues --   -0.47507  -0.46580  -0.46468  -0.44755  -0.44639
 Alpha  occ. eigenvalues --   -0.37264  -0.36302
 Alpha virt. eigenvalues --    0.05117   0.11339   0.16585   0.18973   0.22492
 Alpha virt. eigenvalues --    0.23942   0.24871   0.26089   0.26317   0.27865
 Alpha virt. eigenvalues --    0.29202   0.29606   0.30671   0.31523   0.32098

 Mulliken charges:
               1
     1  C   -0.298877
     2  C   -0.302247
     3  C   -0.482758
     4  H    0.151372
     5  H    0.152495
     6  H    0.146932
     7  H    0.156309
     8  H    0.163033
     9  H    0.156537
    10  H    0.154388
    11  C   -0.299113
    12  C   -0.300334
    13  C   -0.476230
    14  H    0.149518
    15  H    0.151048
    16  H    0.152840
    17  H    0.152989
    18  H    0.156019
    19  H    0.155941
    20  H    0.162116
    21  C   -0.177064
    22  C   -0.219247
    23  C   -0.170936
    24  C    0.158508
    25  C   -0.171415
    26  C   -0.224235
    27  H    0.233553
    28  H    0.223511
    29  H    0.275281
    30  H    0.275540
    31  H    0.227761
    32  N    0.488026
    33  O   -0.460637
    34  O   -0.460626
 Sum of Mulliken charges =  -0.00000

 Dipole moment (field-independent basis, Debye):
    X=             -4.4025    Y=              3.2337    Z=             -0.2142  Tot=              5.4667
 Quadrupole moment (field-independent basis, Debye-Ang):
   XX=           -123.7501   YY=            -94.4096   ZZ=            -94.5400
   XY=             15.3345   XZ=             -1.9211   YZ=             -0.7159

 Normal termination of Gaussian 16 at Thu May  6 17:06:26 2021.
