 Gaussian 16, Revision A.03,
 Gaussian 16:  EM64L-G16RevA.03 25-Dec-2016

 -------------
 #p 6-31g* mp2
 -------------

 ------------------------------------------------------
 Input file generated by CHIRIPA (05-May-2021 14:51:14)
 ------------------------------------------------------
 Symbolic Z-matrix:
 Charge =  0 Multiplicity = 1

                         Standard orientation:
 ---------------------------------------------------------------------
 Center     Atomic      Atomic             Coordinates (Angstroms)
 Number     Number       Type             X           Y           Z
 ---------------------------------------------------------------------
      1          6           0        2.837619   -1.124748    0.339168
      2          6           0        1.487641   -1.412570   -0.318632
      3          6           0        0.726732   -2.548482    0.365850
      4          1           0        3.447879   -2.038147    0.323994
      5          1           0        2.676285   -0.874159    1.396793
      6          1           0        1.651352   -1.661191   -1.375042
      7          1           0        0.880596   -0.498328   -0.302063
      8          1           0        0.534297   -2.305411    1.415843
      9          1           0        1.309432   -3.474881    0.336768
     10          1           0       -0.235372   -2.737440   -0.120473
     11          6           0        3.610169    0.008340   -0.333891
     12          6           0        4.960148    0.296162    0.323909
     13          6           0        5.721057    1.432074   -0.360573
     14          1           0        3.771504   -0.242249   -1.391516
     15          1           0        2.999909    0.921739   -0.318718
     16          1           0        5.567192   -0.618080    0.307340
     17          1           0        4.796436    0.544783    1.380319
     18          1           0        5.138356    2.358473   -0.331491
     19          1           0        5.913491    1.189003   -1.410567
     20          1           0        6.683161    1.621033    0.125750
     21          6           0       -3.629353   -0.004614   -0.322439
     22          6           0       -3.359457   -1.375240    0.299273
     23          6           0       -4.177991   -2.490926   -0.351143
     24          1           0       -4.700005    0.225876   -0.235712
     25          1           0       -3.404723   -0.046602   -1.397229
     26          1           0       -3.583210   -1.330299    1.372834
     27          1           0       -2.289290   -1.602409    0.211228
     28          1           0       -3.948444   -2.564706   -1.419069
     29          1           0       -5.249715   -2.291050   -0.250863
     30          1           0       -3.969525   -3.462047    0.108558
     31          6           0       -2.818436    1.121022    0.317162
     32          6           0       -3.088331    2.491648   -0.304550
     33          6           0       -2.269797    3.607334    0.345866
     34          1           0       -3.043066    1.163010    1.391952
     35          1           0       -1.747783    0.890532    0.230435
     36          1           0       -4.158498    2.718817   -0.216505
     37          1           0       -2.864579    2.446707   -1.378110
     38          1           0       -1.198073    3.407457    0.245586
     39          1           0       -2.499345    3.681114    1.413793
     40          1           0       -2.478264    4.578456   -0.113834
 ---------------------------------------------------------------------

 SCF Done:  E(RHF) =  -470.733228844     A.U. after   11 cycles
 E2 =    -0.1583006658D+01 EUMP2 =    -0.47231623550213D+03

 The electronic state is 1-A.
 Alpha  occ. eigenvalues --  -11.21672 -11.21625 -11.21610 -11.21531 -11.21444
 Alpha  occ. eigenvalues --  -11.21404 -11.21384 -11.21338 -11.21106 -11.21091
 Alpha  occ. eigenvalues --  -11.21088 -11.21052  -1.08474  -1.08419  -1.03580
 Alpha  occ. eigenvalues --   -1.03512  -0.96023  -0.95971  -0.87048  -0.86979
 Alpha  occ. eigenvalues --   -0.79667  -0.79550  -0.78286  -0.78234  -0.65151
 Alpha  occ. eigenvalues --   -0.65017  -0.61009  -0.60916  -0.59463  -0.59265
 Alpha  occ. eigenvalues --   -0.57665  -0.57548  -0.55302  -0.55268  -0.52751
 Alpha  occ. eigenvalues --   -0.52652  -0.52459  -0.52383  -0.49994  -0.49879
 Alpha  occ. eigenvalues --   -0.48021  -0.47833  -0.46711  -0.46548  -0.45870
 Alpha  occ. eigenvalues --   -0.45780  -0.45745  -0.45626  -0.43813  -0.43753
 Alpha virt. eigenvalues --    0.20319   0.23169   0.23623   0.24312   0.25904
 Alpha virt. eigenvalues --    0.26870   0.27193   0.27260   0.27948   0.29118
 Alpha virt. eigenvalues --    0.30743   0.31528   0.31610   0.31837   0.32096

 Mulliken charges:
               1
     1  C   -0.298295
     2  C   -0.302905
     3  C   -0.479547
     4  H    0.150009
     5  H    0.149948
     6  H    0.152126
     7  H    0.153277
     8  H    0.156057
     9  H    0.155701
    10  H    0.163931
    11  C   -0.298276
    12  C   -0.299717
    13  C   -0.475749
    14  H    0.149559
    15  H    0.149420
    16  H    0.152016
    17  H    0.152100
    18  H    0.155258
    19  H    0.155182
    20  H    0.160378
    21  C   -0.297480
    22  C   -0.308367
    23  C   -0.475729
    24  H    0.149565
    25  H    0.149301
    26  H    0.151672
    27  H    0.161073
    28  H    0.154693
    29  H    0.155259
    30  H    0.160357
    31  C   -0.300917
    32  C   -0.299591
    33  C   -0.475591
    34  H    0.149555
    35  H    0.151351
    36  H    0.152128
    37  H    0.152082
    38  H    0.154600
    39  H    0.155176
    40  H    0.160392
 Sum of Mulliken charges =  -0.00000

 Dipole moment (field-independent basis, Debye):
    X=              0.0246    Y=             -0.0159    Z=              0.0085  Tot=              0.0305
 Quadrupole moment (field-independent basis, Debye-Ang):
   XX=            -84.7547   YY=            -85.7557   ZZ=            -84.2189
   XY=             -1.4759   XZ=             -0.7366   YZ=              0.4989

 Normal termination of Gaussian 16 at Wed May  5 16:53:56 2021.
