 Gaussian 16, Revision A.03,
 Gaussian 16:  EM64L-G16RevA.03 25-Dec-2016

 -------------
 #p 6-31g* mp2
 -------------

 ------------------------------------------------------
 Input file generated by CHIRIPA (05-May-2021 14:53:11)
 ------------------------------------------------------
 Symbolic Z-matrix:
 Charge =  0 Multiplicity = 1

                         Standard orientation:
 ---------------------------------------------------------------------
 Center     Atomic      Atomic             Coordinates (Angstroms)
 Number     Number       Type             X           Y           Z
 ---------------------------------------------------------------------
      1          6           0       -4.218686    0.306866   -0.089384
      2          6           0       -5.390899   -0.570466   -0.530054
      3          6           0       -6.395234    0.180513   -1.404775
      4          1           0       -4.605783    1.176839    0.458565
      5          1           0       -3.708846    0.699886   -0.979886
      6          1           0       -5.897537   -0.962830    0.361004
      7          1           0       -5.000955   -1.438551   -1.076852
      8          1           0       -5.910217    0.558371   -2.310636
      9          1           0       -6.811893    1.036794   -0.864610
     10          1           0       -7.224942   -0.465425   -1.708432
     11          6           0       -3.206117   -0.429759    0.785724
     12          6           0       -2.033903    0.447573    1.226393
     13          6           0       -1.029569   -0.303406    2.101115
     14          1           0       -3.715957   -0.822778    1.676225
     15          1           0       -2.819020   -1.299732    0.237774
     16          1           0       -2.423848    1.315658    1.773191
     17          1           0       -1.527266    0.839937    0.335335
     18          1           0       -0.612910   -1.159687    1.560949
     19          1           0       -1.514586   -0.681263    3.006975
     20          1           0       -0.199861    0.342533    2.404772
     21          6           0        2.543973    2.544922   -0.206073
     22          6           0        3.841335    2.022316   -0.190098
     23          6           0        4.050655    0.640497   -0.226292
     24          6           0        2.934763   -0.193387   -0.278382
     25          6           0        1.629904    0.296854   -0.295507
     26          6           0        1.444336    1.682045   -0.258634
     27          1           0        2.390594    3.619662   -0.177693
     28          1           0        4.697204    2.690050   -0.149305
     29          1           0        5.044205    0.209050   -0.214990
     30          1           0        0.796510   -0.393941   -0.336442
     31          1           0        0.435653    2.085092   -0.271152
     32          7           0        3.143788   -1.658043   -0.317058
     33          8           0        2.143987   -2.371450   -0.362721
     34          8           0        4.303463   -2.064897   -0.300977
 ---------------------------------------------------------------------

 SCF Done:  E(RHF) =  -669.534655411     A.U. after   15 cycles
 E2 =    -0.2093103153D+01 EUMP2 =    -0.67162775856358D+03

 The electronic state is 1-A.
 Alpha  occ. eigenvalues --  -20.60764 -20.60759 -15.85812 -11.31137 -11.27723
 Alpha  occ. eigenvalues --  -11.27682 -11.27459 -11.26725 -11.26680 -11.22339
 Alpha  occ. eigenvalues --  -11.21864 -11.21821 -11.21751 -11.21450 -11.21297
 Alpha  occ. eigenvalues --   -1.59834  -1.39390  -1.19320  -1.08876  -1.08719
 Alpha  occ. eigenvalues --   -1.04740  -1.03946  -0.96370  -0.95555  -0.87379
 Alpha  occ. eigenvalues --   -0.86117  -0.82403  -0.80042  -0.78678  -0.77452
 Alpha  occ. eigenvalues --   -0.72034  -0.71154  -0.70452  -0.65553  -0.64965
 Alpha  occ. eigenvalues --   -0.64738  -0.62323  -0.61126  -0.59725  -0.57976
 Alpha  occ. eigenvalues --   -0.55685  -0.55163  -0.53208  -0.52941  -0.52845
 Alpha  occ. eigenvalues --   -0.52702  -0.50271  -0.48794  -0.48788  -0.48322
 Alpha  occ. eigenvalues --   -0.47086  -0.46204  -0.46125  -0.44799  -0.44193
 Alpha  occ. eigenvalues --   -0.37305  -0.36285
 Alpha virt. eigenvalues --    0.05069   0.11311   0.16507   0.19811   0.22782
 Alpha virt. eigenvalues --    0.23949   0.25408   0.26235   0.27501   0.28229
 Alpha virt. eigenvalues --    0.29157   0.29532   0.31297   0.31495   0.32301

 Mulliken charges:
               1
     1  C   -0.298367
     2  C   -0.300304
     3  C   -0.475985
     4  H    0.149284
     5  H    0.146927
     6  H    0.153269
     7  H    0.154434
     8  H    0.154937
     9  H    0.154837
    10  H    0.161922
    11  C   -0.298557
    12  C   -0.305639
    13  C   -0.485308
    14  H    0.153324
    15  H    0.154153
    16  H    0.153790
    17  H    0.139345
    18  H    0.164572
    19  H    0.160521
    20  H    0.162004
    21  C   -0.170923
    22  C   -0.218968
    23  C   -0.170750
    24  C    0.156688
    25  C   -0.168905
    26  C   -0.224132
    27  H    0.225637
    28  H    0.223186
    29  H    0.275390
    30  H    0.279049
    31  H    0.228195
    32  N    0.488696
    33  O   -0.462117
    34  O   -0.460204
 Sum of Mulliken charges =  -0.00000

 Dipole moment (field-independent basis, Debye):
    X=             -0.8491    Y=              5.0556    Z=              0.2136  Tot=              5.1308
 Quadrupole moment (field-independent basis, Debye-Ang):
   XX=            -94.0821   YY=            -97.3558   ZZ=            -95.2388
   XY=             16.7035   XZ=             -0.2931   YZ=             -1.0458

 Normal termination of Gaussian 16 at Wed May  5 20:03:28 2021.
