 Gaussian 16, Revision A.03,
 Gaussian 16:  EM64L-G16RevA.03 25-Dec-2016

 -------------
 #p 6-31g* mp2
 -------------

 ------------------------------------------------------
 Input file generated by CHIRIPA (05-May-2021 14:57:24)
 ------------------------------------------------------
 Symbolic Z-matrix:
 Charge =  0 Multiplicity = 1

                         Standard orientation:
 ---------------------------------------------------------------------
 Center     Atomic      Atomic             Coordinates (Angstroms)
 Number     Number       Type             X           Y           Z
 ---------------------------------------------------------------------
      1          6           0       -4.561254    1.257070   -0.438094
      2          6           0       -4.867195    0.084103    0.259809
      3          6           0       -3.877787   -0.871134    0.511091
      4          6           0       -2.587168   -0.619896    0.047981
      5          6           0       -2.251130    0.538961   -0.650174
      6          6           0       -3.256498    1.480362   -0.890061
      7          1           0       -5.336049    1.993747   -0.628871
      8          1           0       -5.879621   -0.091969    0.611997
      9          1           0       -4.087088   -1.787853    1.048899
     10          1           0       -1.232790    0.686442   -0.988774
     11          1           0       -3.016013    2.390397   -1.432323
     12          7           0       -1.531278   -1.623839    0.307970
     13          8           0       -0.401926   -1.378829   -0.110565
     14          8           0       -1.853016   -2.636730    0.925363
     15          6           0        1.502742    2.521045    0.709955
     16          6           0        2.370766    1.885650    1.604007
     17          6           0        3.073196    0.739956    1.218613
     18          6           0        2.882853    0.254641   -0.074263
     19          6           0        2.025150    0.865261   -0.987927
     20          6           0        1.333005    2.009725   -0.580882
     21          1           0        0.961072    3.410570    1.017748
     22          1           0        2.504550    2.280516    2.607116
     23          1           0        3.751481    0.228252    1.890555
     24          1           0        1.912476    0.448124   -1.981263
     25          1           0        0.659545    2.501105   -1.277332
     26          7           0        3.621041   -0.957601   -0.493722
     27          8           0        3.435883   -1.365313   -1.638330
     28          8           0        4.370811   -1.477093    0.330055
 ---------------------------------------------------------------------

 SCF Done:  E(RHF) =  -868.335959709     A.U. after   16 cycles
 E2 =    -0.2602761200D+01 EUMP2 =    -0.87093872090863D+03

 The electronic state is 1-A.
 Alpha  occ. eigenvalues --  -20.60948 -20.60943 -20.59987 -20.59967 -15.86004
 Alpha  occ. eigenvalues --  -15.85049 -11.31496 -11.30589 -11.28091 -11.28068
 Alpha  occ. eigenvalues --  -11.27868 -11.27333 -11.27273 -11.27196 -11.27188
 Alpha  occ. eigenvalues --  -11.27100 -11.26477 -11.26323  -1.60016  -1.59035
 Alpha  occ. eigenvalues --   -1.39569  -1.38592  -1.19692  -1.18858  -1.09060
 Alpha  occ. eigenvalues --   -1.08233  -1.05131  -1.04353  -0.95875  -0.95025
 Alpha  occ. eigenvalues --   -0.86518  -0.85745  -0.82717  -0.81901  -0.77757
 Alpha  occ. eigenvalues --   -0.76866  -0.72246  -0.71342  -0.71293  -0.70809
 Alpha  occ. eigenvalues --   -0.70311  -0.70037  -0.65352  -0.65163  -0.64560
 Alpha  occ. eigenvalues --   -0.64433  -0.62515  -0.61679  -0.55620  -0.54900
 Alpha  occ. eigenvalues --   -0.53439  -0.53304  -0.52526  -0.52464  -0.48989
 Alpha  occ. eigenvalues --   -0.48959  -0.48059  -0.48014  -0.44940  -0.43965
 Alpha  occ. eigenvalues --   -0.37682  -0.36930  -0.36649  -0.35876
 Alpha virt. eigenvalues --    0.04803   0.05714   0.10841   0.11756   0.16263
 Alpha virt. eigenvalues --    0.16924   0.20102   0.22091   0.25691   0.27570
 Alpha virt. eigenvalues --    0.28483   0.29244   0.30678   0.31498   0.32731

 Mulliken charges:
               1
     1  C   -0.170401
     2  C   -0.218990
     3  C   -0.169672
     4  C    0.156303
     5  C   -0.171829
     6  C   -0.222110
     7  H    0.225832
     8  H    0.224617
     9  H    0.277243
    10  H    0.276869
    11  H    0.218390
    12  N    0.489831
    13  O   -0.462026
    14  O   -0.457928
    15  C   -0.169787
    16  C   -0.219440
    17  C   -0.166696
    18  C    0.167787
    19  C   -0.151932
    20  C   -0.229751
    21  H    0.220887
    22  H    0.221511
    23  H    0.276195
    24  H    0.275333
    25  H    0.210406
    26  N    0.490227
    27  O   -0.458887
    28  O   -0.461981
 Sum of Mulliken charges =  -0.00000

 Dipole moment (field-independent basis, Debye):
    X=             -6.2064    Y=              7.4375    Z=              0.6586  Tot=              9.7093
 Quadrupole moment (field-independent basis, Debye-Ang):
   XX=            -97.8895   YY=           -107.1258   ZZ=           -100.8284
   XY=              6.7007   XZ=              6.9618   YZ=             -0.9172

 Normal termination of Gaussian 16 at Fri May  7 03:26:34 2021.
