 Gaussian 16, Revision A.03,
 Gaussian 16:  EM64L-G16RevA.03 25-Dec-2016

 -------------
 #p 6-31g* mp2
 -------------

 ------------------------------------------------------
 Input file generated by CHIRIPA (05-May-2021 14:51:13)
 ------------------------------------------------------
 Symbolic Z-matrix:
 Charge =  0 Multiplicity = 1

                         Standard orientation:
 ---------------------------------------------------------------------
 Center     Atomic      Atomic             Coordinates (Angstroms)
 Number     Number       Type             X           Y           Z
 ---------------------------------------------------------------------
      1          6           0       -3.303836   -0.361176   -0.394747
      2          6           0       -4.564126   -1.165955   -0.075396
      3          6           0       -4.445709   -2.635443   -0.480830
      4          1           0       -3.095232   -0.430377   -1.471148
      5          1           0       -2.446286   -0.816491    0.119735
      6          1           0       -5.419280   -0.708444   -0.589215
      7          1           0       -4.769862   -1.094673    1.000340
      8          1           0       -3.610759   -3.113204    0.041860
      9          1           0       -4.263867   -2.724782   -1.556727
     10          1           0       -5.357654   -3.192127   -0.243514
     11          6           0       -3.406868    1.109715    0.004743
     12          6           0       -2.146579    1.914495   -0.314608
     13          6           0       -2.264996    3.383983    0.090827
     14          1           0       -4.264419    1.565031   -0.509738
     15          1           0       -3.615473    1.178917    1.081145
     16          1           0       -1.940842    1.843213   -1.390343
     17          1           0       -1.291424    1.456984    0.199211
     18          1           0       -2.446838    3.473321    1.166723
     19          1           0       -3.099945    3.861744   -0.431863
     20          1           0       -1.353050    3.940667   -0.146489
     21          6           0        2.750958   -0.834516    0.274455
     22          6           0        1.535331   -0.138630    0.887624
     23          6           0        0.334213   -1.072350    1.040192
     24          1           0        2.475142   -1.242903   -0.707426
     25          1           0        3.029405   -1.692001    0.902613
     26          1           0        1.260107    0.718110    0.259242
     27          1           0        1.814126    0.268314    1.868076
     28          1           0        0.585422   -1.921044    1.684563
     29          1           0        0.028257   -1.468692    0.066588
     30          1           0       -0.523576   -0.554389    1.480391
     31          6           0        3.959746    0.085977    0.115548
     32          6           0        5.175375   -0.609910   -0.497621
     33          6           0        6.376492    0.323811   -0.650189
     34          1           0        3.681299    0.943461   -0.512610
     35          1           0        4.235563    0.494363    1.097429
     36          1           0        4.896580   -1.016854   -1.478073
     37          1           0        5.450597   -1.466650    0.130761
     38          1           0        6.682448    0.720151    0.323416
     39          1           0        6.125282    1.172504   -1.294559
     40          1           0        7.234280   -0.194151   -1.090387
 ---------------------------------------------------------------------

 SCF Done:  E(RHF) =  -470.732019076     A.U. after   11 cycles
 E2 =    -0.1584166921D+01 EUMP2 =    -0.47231618599667D+03

 The electronic state is 1-A.
 Alpha  occ. eigenvalues --  -11.21660 -11.21623 -11.21534 -11.21518 -11.21443
 Alpha  occ. eigenvalues --  -11.21381 -11.21324 -11.21193 -11.21138 -11.21087
 Alpha  occ. eigenvalues --  -11.21042 -11.21010  -1.08481  -1.08351  -1.03588
 Alpha  occ. eigenvalues --   -1.03466  -0.96053  -0.95909  -0.87070  -0.86931
 Alpha  occ. eigenvalues --   -0.79687  -0.79512  -0.78281  -0.78170  -0.65189
 Alpha  occ. eigenvalues --   -0.64963  -0.61018  -0.60852  -0.59448  -0.59252
 Alpha  occ. eigenvalues --   -0.57643  -0.57537  -0.55374  -0.55181  -0.52810
 Alpha  occ. eigenvalues --   -0.52595  -0.52471  -0.52316  -0.50039  -0.49815
 Alpha  occ. eigenvalues --   -0.47964  -0.47872  -0.46775  -0.46466  -0.45880
 Alpha  occ. eigenvalues --   -0.45722  -0.45687  -0.45503  -0.43764  -0.43689
 Alpha virt. eigenvalues --    0.21326   0.23020   0.23771   0.24557   0.26241
 Alpha virt. eigenvalues --    0.26534   0.27195   0.27246   0.27968   0.29729
 Alpha virt. eigenvalues --    0.30282   0.31140   0.31718   0.31889   0.32337

 Mulliken charges:
               1
     1  C   -0.308066
     2  C   -0.298753
     3  C   -0.475820
     4  H    0.148017
     5  H    0.161757
     6  H    0.151323
     7  H    0.151281
     8  H    0.155448
     9  H    0.154760
    10  H    0.159938
    11  C   -0.297544
    12  C   -0.308873
    13  C   -0.475063
    14  H    0.149307
    15  H    0.148424
    16  H    0.151113
    17  H    0.161752
    18  H    0.154858
    19  H    0.155114
    20  H    0.159771
    21  C   -0.298610
    22  C   -0.303053
    23  C   -0.480882
    24  H    0.150178
    25  H    0.149665
    26  H    0.155259
    27  H    0.152022
    28  H    0.155855
    29  H    0.158400
    30  H    0.162061
    31  C   -0.298445
    32  C   -0.299697
    33  C   -0.475735
    34  H    0.149742
    35  H    0.149703
    36  H    0.152041
    37  H    0.151963
    38  H    0.155204
    39  H    0.155246
    40  H    0.160339
 Sum of Mulliken charges =  -0.00000

 Dipole moment (field-independent basis, Debye):
    X=              0.0751    Y=             -0.0279    Z=              0.0145  Tot=              0.0814
 Quadrupole moment (field-independent basis, Debye-Ang):
   XX=            -85.7530   YY=            -86.2436   ZZ=            -83.1447
   XY=             -0.7328   XZ=              0.7414   YZ=             -0.6212

 Normal termination of Gaussian 16 at Thu May  6 02:23:22 2021.
