 Gaussian 16, Revision A.03,
 Gaussian 16:  EM64L-G16RevA.03 25-Dec-2016

 -------------
 #p 6-31g* mp2
 -------------

 ------------------------------------------------------
 Input file generated by CHIRIPA (05-May-2021 14:53:16)
 ------------------------------------------------------
 Symbolic Z-matrix:
 Charge =  0 Multiplicity = 1

                         Standard orientation:
 ---------------------------------------------------------------------
 Center     Atomic      Atomic             Coordinates (Angstroms)
 Number     Number       Type             X           Y           Z
 ---------------------------------------------------------------------
      1          6           0       -2.347299    1.131689   -0.429438
      2          6           0       -1.202121    1.761640   -1.222983
      3          6           0       -1.173767    3.286242   -1.110833
      4          1           0       -3.301483    1.544684   -0.784281
      5          1           0       -2.254944    1.420936    0.626593
      6          1           0       -1.295822    1.470160   -2.276964
      7          1           0       -0.250565    1.346955   -0.866340
      8          1           0       -1.056614    3.593593   -0.066605
      9          1           0       -2.107810    3.717498   -1.485243
     10          1           0       -0.347373    3.715777   -1.685666
     11          6           0       -2.388891   -0.391972   -0.531696
     12          6           0       -3.534069   -1.021923    0.261849
     13          6           0       -3.562423   -2.546526    0.149699
     14          1           0       -2.481246   -0.681219   -1.587727
     15          1           0       -1.434707   -0.804967   -0.176853
     16          1           0       -4.485625   -0.607238   -0.094794
     17          1           0       -3.440368   -0.730443    1.315829
     18          1           0       -2.628380   -2.977781    0.524109
     19          1           0       -3.679576   -2.853877   -0.894529
     20          1           0       -4.388816   -2.976061    0.724532
     21          6           0        2.829801   -1.581412   -1.557328
     22          6           0        3.167979   -0.236983   -1.371141
     23          6           0        2.631172    0.488919   -0.303691
     24          6           0        1.755358   -0.164001    0.562296
     25          6           0        1.399097   -1.502320    0.403325
     26          6           0        1.947994   -2.208684   -0.671063
     27          1           0        3.251502   -2.137721   -2.389244
     28          1           0        3.852548    0.252750   -2.057853
     29          1           0        2.875927    1.530764   -0.136141
     30          1           0        0.714003   -1.963267    1.104462
     31          1           0        1.683572   -3.252678   -0.813203
     32          7           0        1.180664    0.594136    1.696031
     33          8           0        0.411335   -0.004088    2.444962
     34          8           0        1.510431    1.772235    1.814254
 ---------------------------------------------------------------------

 SCF Done:  E(RHF) =  -669.535041604     A.U. after   15 cycles
 E2 =    -0.2095567305D+01 EUMP2 =    -0.67163060890904D+03

 The electronic state is 1-A.
 Alpha  occ. eigenvalues --  -20.60978 -20.60971 -15.85993 -11.31287 -11.27865
 Alpha  occ. eigenvalues --  -11.27855 -11.27594 -11.26875 -11.26865 -11.21256
 Alpha  occ. eigenvalues --  -11.21200 -11.21041 -11.20984 -11.20868 -11.20557
 Alpha  occ. eigenvalues --   -1.60032  -1.39587  -1.19488  -1.08889  -1.08051
 Alpha  occ. eigenvalues --   -1.04877  -1.03186  -0.95729  -0.95636  -0.86661
 Alpha  occ. eigenvalues --   -0.86275  -0.82558  -0.79260  -0.77898  -0.77600
 Alpha  occ. eigenvalues --   -0.72219  -0.71395  -0.70586  -0.65133  -0.64890
 Alpha  occ. eigenvalues --   -0.64636  -0.62227  -0.60579  -0.59022  -0.57260
 Alpha  occ. eigenvalues --   -0.55374  -0.54927  -0.53272  -0.52960  -0.52335
 Alpha  occ. eigenvalues --   -0.52077  -0.49579  -0.48981  -0.48976  -0.47593
 Alpha  occ. eigenvalues --   -0.46319  -0.45416  -0.45294  -0.44938  -0.43426
 Alpha  occ. eigenvalues --   -0.37372  -0.36428
 Alpha virt. eigenvalues --    0.04878   0.11033   0.16387   0.20866   0.23005
 Alpha virt. eigenvalues --    0.24212   0.26204   0.27478   0.27807   0.28021
 Alpha virt. eigenvalues --    0.28836   0.30918   0.31295   0.32005   0.32306

 Mulliken charges:
               1
     1  C   -0.303038
     2  C   -0.302416
     3  C   -0.476253
     4  H    0.147971
     5  H    0.162191
     6  H    0.147463
     7  H    0.149665
     8  H    0.166747
     9  H    0.152790
    10  H    0.154875
    11  C   -0.299819
    12  C   -0.300718
    13  C   -0.473995
    14  H    0.144803
    15  H    0.148238
    16  H    0.150979
    17  H    0.160849
    18  H    0.148586
    19  H    0.152426
    20  H    0.161147
    21  C   -0.170597
    22  C   -0.216368
    23  C   -0.172428
    24  C    0.157768
    25  C   -0.172300
    26  C   -0.217763
    27  H    0.226280
    28  H    0.224148
    29  H    0.276060
    30  H    0.275882
    31  H    0.224503
    32  N    0.492280
    33  O   -0.460710
    34  O   -0.459247
 Sum of Mulliken charges =  -0.00000

 Dipole moment (field-independent basis, Debye):
    X=              2.1311    Y=             -2.6144    Z=             -3.8377  Tot=              5.1093
 Quadrupole moment (field-independent basis, Debye-Ang):
   XX=            -86.4085   YY=            -92.0701   ZZ=            -98.9611
   XY=             -3.2071   XZ=             -6.8316   YZ=             -1.9011

 Normal termination of Gaussian 16 at Thu May  6 18:54:49 2021.
