 Gaussian 16, Revision A.03,
 Gaussian 16:  EM64L-G16RevA.03 25-Dec-2016

 -------------
 #p 6-31g* mp2
 -------------

 ------------------------------------------------------
 Input file generated by CHIRIPA (05-May-2021 14:55:24)
 ------------------------------------------------------
 Symbolic Z-matrix:
 Charge =  0 Multiplicity = 1

                         Standard orientation:
 ---------------------------------------------------------------------
 Center     Atomic      Atomic             Coordinates (Angstroms)
 Number     Number       Type             X           Y           Z
 ---------------------------------------------------------------------
      1          6           0       -5.753652   -0.641057    0.295496
      2          6           0       -5.299064    0.578466    0.807974
      3          6           0       -4.007518    1.031290    0.522656
      4          6           0       -3.193565    0.235629   -0.282138
      5          6           0       -3.617558   -0.983959   -0.807614
      6          6           0       -4.912931   -1.417009   -0.509243
      7          1           0       -6.758443   -0.985141    0.522208
      8          1           0       -5.949789    1.183168    1.433224
      9          1           0       -3.630069    1.971392    0.906268
     10          1           0       -2.945806   -1.564769   -1.427959
     11          1           0       -5.263295   -2.364528   -0.908617
     12          7           0       -1.824237    0.704547   -0.591101
     13          8           0       -1.126626   -0.014994   -1.302605
     14          8           0       -1.474497    1.782746   -0.115912
     15          6           0        3.852163   -0.553912    0.726072
     16          6           0        2.433066   -0.031932    0.498725
     17          6           0        1.395059   -0.744379    1.366340
     18          1           0        3.876907   -1.632486    0.518679
     19          1           0        4.114220   -0.433400    1.786354
     20          1           0        2.174275   -0.152121   -0.561085
     21          1           0        2.411739    1.045561    0.706499
     22          1           0        1.625851   -0.613833    2.428552
     23          1           0        1.387037   -1.818320    1.153766
     24          1           0        0.387650   -0.355659    1.187781
     25          6           0        4.901108    0.148547   -0.134155
     26          6           0        6.320205   -0.373433    0.093192
     27          6           0        7.358212    0.339014   -0.774423
     28          1           0        4.639050    0.028036   -1.194437
     29          1           0        4.876363    1.227121    0.073239
     30          1           0        6.341532   -1.450926   -0.114582
     31          1           0        6.578996   -0.253244    1.153002
     32          1           0        7.366234    1.412955   -0.561848
     33          1           0        7.127419    0.208468   -1.836635
     34          1           0        8.365620   -0.049705   -0.595864
 ---------------------------------------------------------------------

 SCF Done:  E(RHF) =  -669.535997719     A.U. after   15 cycles
 E2 =    -0.2091510790D+01 EUMP2 =    -0.67162750850826D+03

 The electronic state is 1-A.
 Alpha  occ. eigenvalues --  -20.60956 -20.60946 -15.85967 -11.31290 -11.27853
 Alpha  occ. eigenvalues --  -11.27850 -11.27590 -11.26857 -11.26847 -11.20892
 Alpha  occ. eigenvalues --  -11.20484 -11.20463 -11.20325 -11.20128 -11.19803
 Alpha  occ. eigenvalues --   -1.60013  -1.39564  -1.19458  -1.08864  -1.07434
 Alpha  occ. eigenvalues --   -1.04852  -1.02499  -0.95707  -0.94996  -0.86253
 Alpha  occ. eigenvalues --   -0.86033  -0.82540  -0.78594  -0.77595  -0.77190
 Alpha  occ. eigenvalues --   -0.72188  -0.71357  -0.70567  -0.65112  -0.64855
 Alpha  occ. eigenvalues --   -0.64072  -0.62199  -0.59901  -0.58380  -0.56564
 Alpha  occ. eigenvalues --   -0.55354  -0.54311  -0.53187  -0.52944  -0.51703
 Alpha  occ. eigenvalues --   -0.51424  -0.48983  -0.48948  -0.48922  -0.46902
 Alpha  occ. eigenvalues --   -0.45632  -0.44971  -0.44752  -0.44629  -0.42774
 Alpha  occ. eigenvalues --   -0.37436  -0.36452
 Alpha virt. eigenvalues --    0.04906   0.11204   0.16394   0.21333   0.23797
 Alpha virt. eigenvalues --    0.25293   0.27256   0.27616   0.28158   0.28527
 Alpha virt. eigenvalues --    0.28898   0.30849   0.32339   0.32470   0.32699

 Mulliken charges:
               1
     1  C   -0.170461
     2  C   -0.218606
     3  C   -0.170718
     4  C    0.158116
     5  C   -0.170490
     6  C   -0.218609
     7  H    0.226017
     8  H    0.223841
     9  H    0.275902
    10  H    0.275909
    11  H    0.223841
    12  N    0.486279
    13  O   -0.458261
    14  O   -0.459023
    15  C   -0.298513
    16  C   -0.298236
    17  C   -0.473147
    18  H    0.145932
    19  H    0.145193
    20  H    0.164646
    21  H    0.154525
    22  H    0.146847
    23  H    0.148573
    24  H    0.164256
    25  C   -0.297610
    26  C   -0.298776
    27  C   -0.475167
    28  H    0.150464
    29  H    0.149601
    30  H    0.150232
    31  H    0.150149
    32  H    0.154728
    33  H    0.154887
    34  H    0.157677
 Sum of Mulliken charges =  -0.00000

 Dipole moment (field-independent basis, Debye):
    X=             -5.1204    Y=             -1.5634    Z=              0.9534  Tot=              5.4380
 Quadrupole moment (field-independent basis, Debye-Ang):
   XX=            -66.1419   YY=            -92.1825   ZZ=            -94.5593
   XY=              3.5117   XZ=             -2.4520   YZ=              4.2924

 Normal termination of Gaussian 16 at Thu May  6 19:20:26 2021.
