 Gaussian 16, Revision A.03,
 Gaussian 16:  EM64L-G16RevA.03 25-Dec-2016

 -------------
 #p 6-31g* mp2
 -------------

 ------------------------------------------------------
 Input file generated by CHIRIPA (05-May-2021 14:55:21)
 ------------------------------------------------------
 Symbolic Z-matrix:
 Charge =  0 Multiplicity = 1

                         Standard orientation:
 ---------------------------------------------------------------------
 Center     Atomic      Atomic             Coordinates (Angstroms)
 Number     Number       Type             X           Y           Z
 ---------------------------------------------------------------------
      1          6           0        0.784021   -2.119082    0.941661
      2          6           0        1.198421   -1.102015    1.807898
      3          6           0        2.073139   -0.105166    1.365509
      4          6           0        2.515777   -0.156272    0.044619
      5          6           0        2.121013   -1.156507   -0.842501
      6          6           0        1.245825   -2.143040   -0.378446
      7          1           0        0.104336   -2.889452    1.293735
      8          1           0        0.841394   -1.080890    2.833632
      9          1           0        2.409937    0.693768    2.014886
     10          1           0        2.493941   -1.151022   -1.859512
     11          1           0        0.925672   -2.931697   -1.053403
     12          7           0        3.442051    0.893587   -0.435187
     13          8           0        3.817641    0.826153   -1.603528
     14          8           0        3.774934    1.764021    0.366168
     15          6           0       -2.596208    1.053218   -0.132059
     16          6           0       -3.408810    2.328210    0.096107
     17          6           0       -2.537396    3.583565    0.146258
     18          1           0       -1.851315    0.952460    0.669144
     19          1           0       -2.034025    1.148213   -1.071379
     20          1           0       -3.970366    2.230277    1.034020
     21          1           0       -4.151982    2.425845   -0.705627
     22          1           0       -1.987963    3.708876   -0.792370
     23          1           0       -1.805314    3.512197    0.957161
     24          1           0       -3.138595    4.483317    0.310171
     25          6           0       -3.453369   -0.210207   -0.184604
     26          6           0       -2.640767   -1.485199   -0.412771
     27          6           0       -3.512181   -2.740554   -0.462922
     28          1           0       -4.015552   -0.305202    0.754715
     29          1           0       -4.198262   -0.109448   -0.985807
     30          1           0       -1.897594   -1.582833    0.388963
     31          1           0       -2.079211   -1.387265   -1.350684
     32          1           0       -4.244263   -2.669186   -1.273825
     33          1           0       -4.061614   -2.865865    0.475706
     34          1           0       -2.910982   -3.640306   -0.626835
 ---------------------------------------------------------------------

 SCF Done:  E(RHF) =  -669.534700530     A.U. after   15 cycles
 E2 =    -0.2093058696D+01 EUMP2 =    -0.67162775922592D+03

 The electronic state is 1-A.
 Alpha  occ. eigenvalues --  -20.60775 -20.60770 -15.85831 -11.31204 -11.27805
 Alpha  occ. eigenvalues --  -11.27783 -11.27531 -11.26816 -11.26779 -11.22133
 Alpha  occ. eigenvalues --  -11.21800 -11.21781 -11.21780 -11.21622 -11.21134
 Alpha  occ. eigenvalues --   -1.59851  -1.39405  -1.19394  -1.08848  -1.08741
 Alpha  occ. eigenvalues --   -1.04798  -1.03915  -0.96357  -0.95623  -0.87367
 Alpha  occ. eigenvalues --   -0.86196  -0.82455  -0.79992  -0.78583  -0.77488
 Alpha  occ. eigenvalues --   -0.72050  -0.71174  -0.70529  -0.65438  -0.65049
 Alpha  occ. eigenvalues --   -0.64801  -0.62146  -0.61322  -0.59770  -0.57967
 Alpha  occ. eigenvalues --   -0.55653  -0.55296  -0.53244  -0.53001  -0.52891
 Alpha  occ. eigenvalues --   -0.52758  -0.50288  -0.48810  -0.48803  -0.48292
 Alpha  occ. eigenvalues --   -0.47028  -0.46114  -0.46040  -0.44809  -0.44155
 Alpha  occ. eigenvalues --   -0.37258  -0.36393
 Alpha virt. eigenvalues --    0.05016   0.11192   0.16412   0.20482   0.22762
 Alpha virt. eigenvalues --    0.23995   0.26131   0.26714   0.27158   0.27630
 Alpha virt. eigenvalues --    0.28923   0.30454   0.31181   0.31275   0.31968

 Mulliken charges:
               1
     1  C   -0.169797
     2  C   -0.220201
     3  C   -0.170390
     4  C    0.158903
     5  C   -0.171489
     6  C   -0.214979
     7  H    0.226797
     8  H    0.223402
     9  H    0.275729
    10  H    0.275633
    11  H    0.223814
    12  N    0.488113
    13  O   -0.460518
    14  O   -0.460414
    15  C   -0.298535
    16  C   -0.300151
    17  C   -0.475736
    18  H    0.149050
    19  H    0.151683
    20  H    0.150619
    21  H    0.152412
    22  H    0.157976
    23  H    0.155126
    24  H    0.160958
    25  C   -0.298137
    26  C   -0.303268
    27  C   -0.476015
    28  H    0.148292
    29  H    0.150947
    30  H    0.150726
    31  H    0.151872
    32  H    0.159062
    33  H    0.155441
    34  H    0.153077
 Sum of Mulliken charges =  -0.00000

 Dipole moment (field-independent basis, Debye):
    X=             -3.2421    Y=             -3.6257    Z=              1.6583  Tot=              5.1388
 Quadrupole moment (field-independent basis, Debye-Ang):
   XX=           -112.3745   YY=            -94.2934   ZZ=            -89.6129
   XY=             -9.6076   XZ=              4.2051   YZ=              1.5661

 Normal termination of Gaussian 16 at Wed May  5 23:51:43 2021.
