 Gaussian 16, Revision A.03,
 Gaussian 16:  EM64L-G16RevA.03 25-Dec-2016

 -------------
 #p 6-31g* mp2
 -------------

 ------------------------------------------------------
 Input file generated by CHIRIPA (05-May-2021 14:55:22)
 ------------------------------------------------------
 Symbolic Z-matrix:
 Charge =  0 Multiplicity = 1

                         Standard orientation:
 ---------------------------------------------------------------------
 Center     Atomic      Atomic             Coordinates (Angstroms)
 Number     Number       Type             X           Y           Z
 ---------------------------------------------------------------------
      1          6           0       -3.802177    1.128303    1.225405
      2          6           0       -3.461541    1.345105   -0.113806
      3          6           0       -2.674307    0.419343   -0.805018
      4          6           0       -2.242983   -0.717427   -0.123106
      5          6           0       -2.565617   -0.961683    1.210887
      6          6           0       -3.353918   -0.022370    1.882319
      7          1           0       -4.414134    1.852721    1.754672
      8          1           0       -3.808251    2.237839   -0.626509
      9          1           0       -2.395818    0.562256   -1.842051
     10          1           0       -2.205101   -1.861032    1.695260
     11          1           0       -3.616912   -0.193354    2.922340
     12          7           0       -1.409009   -1.704663   -0.844391
     13          8           0       -1.041591   -2.698199   -0.221071
     14          8           0       -1.138549   -1.466229   -2.019396
     15          6           0        2.475092    0.878826   -0.471994
     16          6           0        1.681091    2.116700   -0.053408
     17          6           0        0.540439    2.441567   -1.018380
     18          1           0        2.879956    1.034731   -1.481313
     19          1           0        1.793416    0.019546   -0.537941
     20          1           0        2.364309    2.973093    0.013072
     21          1           0        1.278230    1.957907    0.955108
     22          1           0       -0.163746    1.605395   -1.077899
     23          1           0        0.928503    2.626349   -2.025286
     24          1           0       -0.013923    3.329966   -0.700121
     25          6           0        3.618813    0.541254    0.482822
     26          6           0        4.412816   -0.696620    0.064235
     27          6           0        5.553467   -1.021487    1.029206
     28          1           0        4.300490    1.400535    0.548768
     29          1           0        3.213950    0.385349    1.492141
     30          1           0        4.815675   -0.537828   -0.944280
     31          1           0        3.729597   -1.553013   -0.002245
     32          1           0        5.165402   -1.206269    2.036114
     33          1           0        6.257652   -0.185315    1.088726
     34          1           0        6.107828   -1.909886    0.710948
 ---------------------------------------------------------------------

 SCF Done:  E(RHF) =  -669.535064436     A.U. after   15 cycles
 E2 =    -0.2092904458D+01 EUMP2 =    -0.67162796889319D+03

 The electronic state is 1-A.
 Alpha  occ. eigenvalues --  -20.60900 -20.60876 -15.85933 -11.31261 -11.27836
 Alpha  occ. eigenvalues --  -11.27818 -11.27568 -11.26833 -11.26817 -11.21404
 Alpha  occ. eigenvalues --  -11.21084 -11.20990 -11.20938 -11.20922 -11.20654
 Alpha  occ. eigenvalues --   -1.59961  -1.39514  -1.19445  -1.08839  -1.08052
 Alpha  occ. eigenvalues --   -1.04842  -1.03201  -0.95715  -0.95631  -0.86702
 Alpha  occ. eigenvalues --   -0.86233  -0.82506  -0.79270  -0.77840  -0.77555
 Alpha  occ. eigenvalues --   -0.72145  -0.71290  -0.70555  -0.65091  -0.64847
 Alpha  occ. eigenvalues --   -0.64677  -0.62198  -0.60609  -0.59037  -0.57266
 Alpha  occ. eigenvalues --   -0.55354  -0.55014  -0.53175  -0.52932  -0.52375
 Alpha  occ. eigenvalues --   -0.52050  -0.49595  -0.48908  -0.48902  -0.47582
 Alpha  occ. eigenvalues --   -0.46299  -0.45403  -0.45315  -0.44859  -0.43448
 Alpha  occ. eigenvalues --   -0.37409  -0.36375
 Alpha virt. eigenvalues --    0.04958   0.11125   0.16454   0.21291   0.23141
 Alpha virt. eigenvalues --    0.24565   0.26716   0.27099   0.27700   0.28163
 Alpha virt. eigenvalues --    0.28761   0.30591   0.31610   0.31947   0.32240

 Mulliken charges:
               1
     1  C   -0.170772
     2  C   -0.216775
     3  C   -0.173621
     4  C    0.159912
     5  C   -0.171155
     6  C   -0.218477
     7  H    0.225999
     8  H    0.224371
     9  H    0.277282
    10  H    0.275632
    11  H    0.223676
    12  N    0.488230
    13  O   -0.460231
    14  O   -0.460137
    15  C   -0.299633
    16  C   -0.299153
    17  C   -0.479252
    18  H    0.151180
    19  H    0.156193
    20  H    0.150507
    21  H    0.149396
    22  H    0.157932
    23  H    0.156482
    24  H    0.153252
    25  C   -0.297899
    26  C   -0.300990
    27  C   -0.475509
    28  H    0.147105
    29  H    0.147563
    30  H    0.152091
    31  H    0.159135
    32  H    0.153983
    33  H    0.153057
    34  H    0.160623
 Sum of Mulliken charges =  -0.00000

 Dipole moment (field-independent basis, Debye):
    X=             -3.0205    Y=              3.3651    Z=              2.4961  Tot=              5.1650
 Quadrupole moment (field-independent basis, Debye-Ang):
   XX=            -82.6622   YY=            -98.7638   ZZ=            -92.2574
   XY=             -5.5996   XZ=             -6.3468   YZ=             -5.0179

 Normal termination of Gaussian 16 at Thu May  6 15:54:20 2021.
