 Gaussian 16, Revision A.03,
 Gaussian 16:  EM64L-G16RevA.03 25-Dec-2016

 -------------
 #p 6-31g* mp2
 -------------

 ------------------------------------------------------
 Input file generated by CHIRIPA (05-May-2021 14:51:08)
 ------------------------------------------------------
 Symbolic Z-matrix:
 Charge =  0 Multiplicity = 1

                         Standard orientation:
 ---------------------------------------------------------------------
 Center     Atomic      Atomic             Coordinates (Angstroms)
 Number     Number       Type             X           Y           Z
 ---------------------------------------------------------------------
      1          6           0       -2.843232   -0.243210   -0.192769
      2          6           0       -1.798977   -0.525214    0.887967
      3          6           0       -0.383541   -0.651546    0.323720
      4          1           0       -2.815234   -1.048343   -0.939711
      5          1           0       -2.573914    0.682210   -0.720462
      6          1           0       -2.070935   -1.449088    1.414382
      7          1           0       -1.829596    0.280586    1.632524
      8          1           0       -0.087659    0.271805   -0.184685
      9          1           0       -0.330369   -1.467695   -0.404067
     10          1           0        0.346950   -0.853067    1.113424
     11          6           0       -4.263166   -0.114268    0.355763
     12          6           0       -5.307421    0.167735   -0.724974
     13          6           0       -6.722857    0.294068   -0.160727
     14          1           0       -4.532484   -1.039689    0.883456
     15          1           0       -4.291164    0.690865    1.102704
     16          1           0       -5.276802   -0.638064   -1.469531
     17          1           0       -5.035463    1.091609   -1.251389
     18          1           0       -6.776029    1.110217    0.567060
     19          1           0       -7.018739   -0.629284    0.347678
     20          1           0       -7.453348    0.495588   -0.950431
     21          6           0        3.969768   -0.442113   -0.237843
     22          6           0        3.238440   -1.752582    0.055102
     23          6           0        4.084744   -2.985681   -0.262748
     24          1           0        4.265202   -0.423055   -1.295812
     25          1           0        4.899520   -0.410532    0.346931
     26          1           0        2.309661   -1.781063   -0.528999
     27          1           0        2.944544   -1.768438    1.112452
     28          1           0        5.005084   -2.984544    0.330188
     29          1           0        4.366594   -2.997241   -1.320590
     30          1           0        3.542644   -3.911417   -0.045954
     31          6           0        3.136630    0.799592    0.074849
     32          6           0        3.867959    2.110061   -0.218095
     33          6           0        3.021653    3.343160    0.099755
     34          1           0        2.206878    0.768011   -0.509924
     35          1           0        2.841196    0.780534    1.132819
     36          1           0        4.161854    2.125917   -1.275446
     37          1           0        4.796737    2.138542    0.366006
     38          1           0        2.739804    3.354719    1.157597
     39          1           0        2.101314    3.342022   -0.493181
     40          1           0        3.563755    4.268895   -0.117040
 ---------------------------------------------------------------------

 SCF Done:  E(RHF) =  -470.731801683     A.U. after   11 cycles
 E2 =    -0.1584022032D+01 EUMP2 =    -0.47231582371415D+03

 The electronic state is 1-A.
 Alpha  occ. eigenvalues --  -11.21594 -11.21544 -11.21543 -11.21477 -11.21389
 Alpha  occ. eigenvalues --  -11.21329 -11.21310 -11.21235 -11.21065 -11.21059
 Alpha  occ. eigenvalues --  -11.21004 -11.20966  -1.08423  -1.08345  -1.03514
 Alpha  occ. eigenvalues --   -1.03459  -0.95982  -0.95901  -0.86993  -0.86939
 Alpha  occ. eigenvalues --   -0.79667  -0.79505  -0.78294  -0.78046  -0.65053
 Alpha  occ. eigenvalues --   -0.64988  -0.60978  -0.60812  -0.59432  -0.59191
 Alpha  occ. eigenvalues --   -0.57583  -0.57534  -0.55353  -0.55120  -0.52830
 Alpha  occ. eigenvalues --   -0.52476  -0.52441  -0.52310  -0.50045  -0.49753
 Alpha  occ. eigenvalues --   -0.47951  -0.47827  -0.46731  -0.46425  -0.45934
 Alpha  occ. eigenvalues --   -0.45713  -0.45667  -0.45359  -0.43757  -0.43604
 Alpha virt. eigenvalues --    0.22079   0.23044   0.24011   0.24240   0.25209
 Alpha virt. eigenvalues --    0.26122   0.26612   0.27719   0.27931   0.29662
 Alpha virt. eigenvalues --    0.29887   0.30834   0.31846   0.32038   0.32181

 Mulliken charges:
               1
     1  C   -0.298540
     2  C   -0.300990
     3  C   -0.477688
     4  H    0.149339
     5  H    0.149182
     6  H    0.151457
     7  H    0.151696
     8  H    0.156403
     9  H    0.153405
    10  H    0.165339
    11  C   -0.298156
    12  C   -0.299591
    13  C   -0.475687
    14  H    0.149489
    15  H    0.149661
    16  H    0.151834
    17  H    0.151842
    18  H    0.155190
    19  H    0.155163
    20  H    0.160199
    21  C   -0.297857
    22  C   -0.303645
    23  C   -0.475491
    24  H    0.148911
    25  H    0.148749
    26  H    0.159641
    27  H    0.150518
    28  H    0.154669
    29  H    0.154751
    30  H    0.159732
    31  C   -0.302146
    32  C   -0.299333
    33  C   -0.475474
    34  H    0.156351
    35  H    0.148680
    36  H    0.151522
    37  H    0.151528
    38  H    0.155049
    39  H    0.154094
    40  H    0.160205
 Sum of Mulliken charges =  -0.00000

 Dipole moment (field-independent basis, Debye):
    X=             -0.0122    Y=             -0.0069    Z=             -0.0031  Tot=              0.0144
 Quadrupole moment (field-independent basis, Debye-Ang):
   XX=            -86.4017   YY=            -84.8738   ZZ=            -83.9567
   XY=              0.7533   XZ=              0.7197   YZ=             -0.0606

 Normal termination of Gaussian 16 at Wed May  5 18:07:09 2021.
