 Gaussian 16, Revision A.03,
 Gaussian 16:  EM64L-G16RevA.03 25-Dec-2016

 -------------
 #p 6-31g* mp2
 -------------

 ------------------------------------------------------
 Input file generated by CHIRIPA (05-May-2021 14:53:17)
 ------------------------------------------------------
 Symbolic Z-matrix:
 Charge =  0 Multiplicity = 1

                         Standard orientation:
 ---------------------------------------------------------------------
 Center     Atomic      Atomic             Coordinates (Angstroms)
 Number     Number       Type             X           Y           Z
 ---------------------------------------------------------------------
      1          6           0       -4.443789    0.074179    0.103072
      2          6           0       -5.561130    0.822959   -0.624158
      3          6           0       -6.625199    1.368008    0.328979
      4          1           0       -4.880182   -0.753063    0.679419
      5          1           0       -3.973612    0.748949    0.831780
      6          1           0       -6.028147    0.147392   -1.352252
      7          1           0       -5.122005    1.648398   -1.198994
      8          1           0       -6.178995    2.062960    1.047689
      9          1           0       -7.090285    0.553426    0.893561
     10          1           0       -7.414296    1.899607   -0.211936
     11          6           0       -3.372451   -0.476656   -0.836366
     12          6           0       -2.255110   -1.225436   -0.109135
     13          6           0       -1.191041   -1.770485   -1.062273
     14          1           0       -3.842628   -1.151426   -1.565073
     15          1           0       -2.936058    0.350586   -1.412713
     16          1           0       -2.694235   -2.050875    0.465700
     17          1           0       -1.788093   -0.549868    0.618958
     18          1           0       -0.725955   -0.955902   -1.626854
     19          1           0       -1.637245   -2.465437   -1.780983
     20          1           0       -0.401944   -2.302083   -0.521357
     21          6           0        4.841693    1.034689   -1.261887
     22          6           0        4.587214   -0.339031   -1.193669
     23          6           0        3.598641   -0.836425   -0.339344
     24          6           0        2.880316    0.072387    0.436130
     25          6           0        3.110427    1.446526    0.390517
     26          6           0        4.103789    1.921520   -0.470970
     27          1           0        5.611501    1.412376   -1.928329
     28          1           0        5.158720   -1.030090   -1.806746
     29          1           0        3.380954   -1.895089   -0.266808
     30          1           0        2.524282    2.110809    1.013880
     31          1           0        4.299254    2.988875   -0.521882
     32          7           0        1.831223   -0.442325    1.344357
     33          8           0        1.212255    0.379107    2.017235
     34          8           0        1.647777   -1.657442    1.366150
 ---------------------------------------------------------------------

 SCF Done:  E(RHF) =  -669.536532907     A.U. after   15 cycles
 E2 =    -0.2091454288D+01 EUMP2 =    -0.67162798719483D+03

 The electronic state is 1-A.
 Alpha  occ. eigenvalues --  -20.60974 -20.60966 -15.85990 -11.31286 -11.27850
 Alpha  occ. eigenvalues --  -11.27843 -11.27584 -11.26852 -11.26840 -11.21066
 Alpha  occ. eigenvalues --  -11.20682 -11.20605 -11.20589 -11.20484 -11.20045
 Alpha  occ. eigenvalues --   -1.60018  -1.39578  -1.19452  -1.08861  -1.07670
 Alpha  occ. eigenvalues --   -1.04846  -1.02750  -0.95709  -0.95227  -0.86257
 Alpha  occ. eigenvalues --   -0.86247  -0.82544  -0.78828  -0.77600  -0.77452
 Alpha  occ. eigenvalues --   -0.72215  -0.71330  -0.70564  -0.65110  -0.64851
 Alpha  occ. eigenvalues --   -0.64309  -0.62195  -0.60160  -0.58587  -0.56797
 Alpha  occ. eigenvalues --   -0.55354  -0.54548  -0.53178  -0.52939  -0.51908
 Alpha  occ. eigenvalues --   -0.51654  -0.49213  -0.48976  -0.48963  -0.47153
 Alpha  occ. eigenvalues --   -0.45879  -0.45069  -0.44984  -0.44817  -0.42966
 Alpha  occ. eigenvalues --   -0.37428  -0.36445
 Alpha virt. eigenvalues --    0.04884   0.11207   0.16351   0.21318   0.23566
 Alpha virt. eigenvalues --    0.25023   0.27235   0.27373   0.28030   0.28327
 Alpha virt. eigenvalues --    0.28773   0.30852   0.32028   0.32127   0.32539

 Mulliken charges:
               1
     1  C   -0.298203
     2  C   -0.298883
     3  C   -0.475307
     4  H    0.149567
     5  H    0.152004
     6  H    0.150339
     7  H    0.149943
     8  H    0.155287
     9  H    0.155052
    10  H    0.157975
    11  C   -0.297379
    12  C   -0.300775
    13  C   -0.485748
    14  H    0.146019
    15  H    0.145669
    16  H    0.152023
    17  H    0.164646
    18  H    0.145414
    19  H    0.148853
    20  H    0.178041
    21  C   -0.170509
    22  C   -0.218586
    23  C   -0.170148
    24  C    0.158899
    25  C   -0.170932
    26  C   -0.218621
    27  H    0.225999
    28  H    0.223927
    29  H    0.275876
    30  H    0.275589
    31  H    0.223743
    32  N    0.489224
    33  O   -0.459826
    34  O   -0.459171
 Sum of Mulliken charges =  -0.00000

 Dipole moment (field-independent basis, Debye):
    X=              3.9430    Y=              1.7911    Z=             -3.0294  Tot=              5.2851
 Quadrupole moment (field-independent basis, Debye-Ang):
   XX=            -74.9857   YY=            -89.6132   ZZ=            -98.3805
   XY=              5.4511   XZ=             -8.1149   YZ=              1.8148

 Normal termination of Gaussian 16 at Thu May  6 01:11:37 2021.
