 Gaussian 16, Revision A.03,
 Gaussian 16:  EM64L-G16RevA.03 25-Dec-2016

 -------------
 #p 6-31g* mp2
 -------------

 ------------------------------------------------------
 Input file generated by CHIRIPA (05-May-2021 14:51:10)
 ------------------------------------------------------
 Symbolic Z-matrix:
 Charge =  0 Multiplicity = 1

                         Standard orientation:
 ---------------------------------------------------------------------
 Center     Atomic      Atomic             Coordinates (Angstroms)
 Number     Number       Type             X           Y           Z
 ---------------------------------------------------------------------
      1          6           0        4.304411   -0.306915   -0.577599
      2          6           0        4.951403   -1.237007    0.449200
      3          6           0        5.905214   -2.248265   -0.187508
      4          1           0        3.760998   -0.909866   -1.317934
      5          1           0        5.092628    0.226502   -1.126757
      6          1           0        4.162166   -1.767486    0.997208
      7          1           0        5.493180   -0.631761    1.187287
      8          1           0        6.712883   -1.734438   -0.718784
      9          1           0        5.374306   -2.876616   -0.909942
     10          1           0        6.356530   -2.903037    0.564454
     11          6           0        3.348233    0.709709    0.043630
     12          6           0        2.701241    1.639801   -0.983169
     13          6           0        1.747430    2.651059   -0.346461
     14          1           0        2.560016    0.176291    0.592788
     15          1           0        3.891646    1.312660    0.783965
     16          1           0        2.159464    1.034555   -1.721256
     17          1           0        3.490478    2.170280   -1.531177
     18          1           0        2.278338    3.279410    0.375973
     19          1           0        0.939761    2.137232    0.184815
     20          1           0        1.296114    3.305831   -1.098423
     21          6           0       -3.128248   -0.413687    0.492943
     22          6           0       -2.299610    0.737417    1.064174
     23          6           0       -0.905554    0.296975    1.511848
     24          1           0       -3.217600   -1.204060    1.250749
     25          1           0       -2.591492   -0.855682   -0.357898
     26          1           0       -2.838410    1.177999    1.912818
     27          1           0       -2.212381    1.525225    0.304986
     28          1           0       -0.345645   -0.123573    0.670277
     29          1           0       -0.975231   -0.472771    2.287244
     30          1           0       -0.330391    1.135430    1.916867
     31          6           0       -4.524397    0.010893    0.041027
     32          6           0       -5.353035   -1.140211   -0.530204
     33          6           0       -6.747090   -0.699769   -0.977880
     34          1           0       -5.061152    0.452888    0.891866
     35          1           0       -4.435044    0.801266   -0.716780
     36          1           0       -5.440264   -1.928019    0.228983
     37          1           0       -4.814234   -1.580793   -1.378848
     38          1           0       -6.677413    0.069977   -1.753275
     39          1           0       -7.306999   -0.279221   -0.136308
     40          1           0       -7.322252   -1.538225   -1.382898
 ---------------------------------------------------------------------

 SCF Done:  E(RHF) =  -470.732787661     A.U. after   11 cycles
 E2 =    -0.1583050254D+01 EUMP2 =    -0.47231583791526D+03

 The electronic state is 1-A.
 Alpha  occ. eigenvalues --  -11.21664 -11.21627 -11.21564 -11.21543 -11.21446
 Alpha  occ. eigenvalues --  -11.21384 -11.21352 -11.21286 -11.21156 -11.21090
 Alpha  occ. eigenvalues --  -11.21044 -11.20923  -1.08476  -1.08376  -1.03597
 Alpha  occ. eigenvalues --   -1.03462  -0.96062  -0.95901  -0.87085  -0.86916
 Alpha  occ. eigenvalues --   -0.79673  -0.79515  -0.78286  -0.78185  -0.65149
 Alpha  occ. eigenvalues --   -0.64980  -0.61135  -0.60762  -0.59456  -0.59256
 Alpha  occ. eigenvalues --   -0.57722  -0.57471  -0.55450  -0.55084  -0.52803
 Alpha  occ. eigenvalues --   -0.52617  -0.52503  -0.52240  -0.50046  -0.49784
 Alpha  occ. eigenvalues --   -0.47972  -0.47824  -0.46726  -0.46513  -0.45846
 Alpha  occ. eigenvalues --   -0.45766  -0.45718  -0.45594  -0.43804  -0.43724
 Alpha virt. eigenvalues --    0.21223   0.23012   0.23599   0.25037   0.26106
 Alpha virt. eigenvalues --    0.26709   0.27041   0.27337   0.28019   0.29239
 Alpha virt. eigenvalues --    0.30862   0.31191   0.31600   0.31837   0.32489

 Mulliken charges:
               1
     1  C   -0.298087
     2  C   -0.299657
     3  C   -0.475662
     4  H    0.149193
     5  H    0.149391
     6  H    0.152131
     7  H    0.151883
     8  H    0.155093
     9  H    0.155052
    10  H    0.160151
    11  C   -0.301594
    12  C   -0.298533
    13  C   -0.485514
    14  H    0.153138
    15  H    0.149383
    16  H    0.150628
    17  H    0.151591
    18  H    0.154171
    19  H    0.167401
    20  H    0.159031
    21  C   -0.298483
    22  C   -0.301677
    23  C   -0.481286
    24  H    0.149823
    25  H    0.149534
    26  H    0.152612
    27  H    0.153655
    28  H    0.156092
    29  H    0.156675
    30  H    0.163381
    31  C   -0.298369
    32  C   -0.299695
    33  C   -0.475738
    34  H    0.149688
    35  H    0.149871
    36  H    0.151967
    37  H    0.151921
    38  H    0.155262
    39  H    0.155249
    40  H    0.160326
 Sum of Mulliken charges =  -0.00000

 Dipole moment (field-independent basis, Debye):
    X=             -0.0580    Y=             -0.0144    Z=              0.0382  Tot=              0.0709
 Quadrupole moment (field-independent basis, Debye-Ang):
   XX=            -85.7263   YY=            -85.0828   ZZ=            -84.1238
   XY=              1.2532   XZ=             -0.3686   YZ=             -0.2441

 Normal termination of Gaussian 16 at Wed May  5 18:10:57 2021.
