 Gaussian 16, Revision A.03,
 Gaussian 16:  EM64L-G16RevA.03 25-Dec-2016

 -------------
 #p 6-31g* mp2
 -------------

 ------------------------------------------------------
 Input file generated by CHIRIPA (05-May-2021 14:55:25)
 ------------------------------------------------------
 Symbolic Z-matrix:
 Charge =  0 Multiplicity = 1

                         Standard orientation:
 ---------------------------------------------------------------------
 Center     Atomic      Atomic             Coordinates (Angstroms)
 Number     Number       Type             X           Y           Z
 ---------------------------------------------------------------------
      1          6           0       -0.595401   -0.388003    1.054087
      2          6           0       -1.581040   -1.360885    1.250395
      3          6           0       -2.871709   -1.175899    0.745914
      4          6           0       -3.143277   -0.000867    0.046743
      5          6           0       -2.182803    0.986963   -0.165321
      6          6           0       -0.898893    0.780756    0.348101
      7          1           0        0.404597   -0.539947    1.449453
      8          1           0       -1.348193   -2.269536    1.798283
      9          1           0       -3.653767   -1.912727    0.883349
     10          1           0       -2.444942    1.882451   -0.715596
     11          1           0       -0.135425    1.538022    0.194122
     12          7           0       -4.506073    0.206202   -0.492061
     13          8           0       -4.719974    1.250103   -1.104559
     14          8           0       -5.334526   -0.679319   -0.291674
     15          6           0        3.418498   -0.646771   -0.106954
     16          6           0        4.283910   -1.768943   -0.681216
     17          6           0        3.635452   -3.146454   -0.540648
     18          1           0        3.218243   -0.852862    0.953408
     19          1           0        2.444205   -0.647984   -0.615034
     20          1           0        5.256784   -1.764733   -0.173166
     21          1           0        4.482289   -1.560058   -1.740286
     22          1           0        2.673657   -3.174585   -1.062913
     23          1           0        3.452553   -3.380422    0.513111
     24          1           0        4.271081   -3.933835   -0.957622
     25          6           0        4.053301    0.736357   -0.240040
     26          6           0        3.187889    1.858529    0.334222
     27          6           0        3.836347    3.236041    0.193655
     28          1           0        5.027594    0.737570    0.268040
     29          1           0        4.253557    0.942448   -1.300402
     30          1           0        2.989511    1.649645    1.393292
     31          1           0        2.215015    1.854319   -0.173828
     32          1           0        4.019246    3.470008   -0.860105
     33          1           0        4.798142    3.264171    0.715920
     34          1           0        3.200718    4.023421    0.610628
 ---------------------------------------------------------------------

 SCF Done:  E(RHF) =  -669.535651298     A.U. after   15 cycles
 E2 =    -0.2092115726D+01 EUMP2 =    -0.67162776702435D+03

 The electronic state is 1-A.
 Alpha  occ. eigenvalues --  -20.60705 -20.60700 -15.85758 -11.31103 -11.27675
 Alpha  occ. eigenvalues --  -11.27667 -11.27361 -11.26671 -11.26634 -11.22841
 Alpha  occ. eigenvalues --  -11.22507 -11.22435 -11.22387 -11.22005 -11.21847
 Alpha  occ. eigenvalues --   -1.59782  -1.39336  -1.19271  -1.09473  -1.08660
 Alpha  occ. eigenvalues --   -1.04675  -1.04501  -0.96922  -0.95501  -0.87938
 Alpha  occ. eigenvalues --   -0.86071  -0.82338  -0.80597  -0.79332  -0.77391
 Alpha  occ. eigenvalues --   -0.71976  -0.71105  -0.70354  -0.66108  -0.64916
 Alpha  occ. eigenvalues --   -0.64680  -0.62096  -0.61826  -0.60295  -0.58559
 Alpha  occ. eigenvalues --   -0.56193  -0.55155  -0.53603  -0.53344  -0.52999
 Alpha  occ. eigenvalues --   -0.52775  -0.50853  -0.48913  -0.48733  -0.48705
 Alpha  occ. eigenvalues --   -0.47615  -0.46821  -0.46745  -0.44767  -0.44746
 Alpha  occ. eigenvalues --   -0.37231  -0.36281
 Alpha virt. eigenvalues --    0.05129   0.11310   0.16599   0.19560   0.22497
 Alpha virt. eigenvalues --    0.23025   0.24442   0.25284   0.26887   0.27935
 Alpha virt. eigenvalues --    0.29541   0.30383   0.30684   0.31296   0.31619

 Mulliken charges:
               1
     1  C   -0.175061
     2  C   -0.219743
     3  C   -0.171082
     4  C    0.158618
     5  C   -0.171986
     6  C   -0.226070
     7  H    0.231474
     8  H    0.223298
     9  H    0.275222
    10  H    0.275478
    11  H    0.231529
    12  N    0.487996
    13  O   -0.460715
    14  O   -0.460720
    15  C   -0.304264
    16  C   -0.299802
    17  C   -0.477123
    18  H    0.143970
    19  H    0.151262
    20  H    0.154353
    21  H    0.155589
    22  H    0.156819
    23  H    0.152653
    24  H    0.164207
    25  C   -0.297370
    26  C   -0.307535
    27  C   -0.475728
    28  H    0.153522
    29  H    0.154026
    30  H    0.150133
    31  H    0.147632
    32  H    0.158706
    33  H    0.159111
    34  H    0.161602
 Sum of Mulliken charges =  -0.00000

 Dipole moment (field-independent basis, Debye):
    X=              5.0943    Y=             -0.7245    Z=              1.8226  Tot=              5.4588
 Quadrupole moment (field-independent basis, Debye-Ang):
   XX=           -124.0922   YY=            -91.7154   ZZ=            -93.7408
   XY=              3.4791   XZ=             -6.2596   YZ=             -1.9717

 Normal termination of Gaussian 16 at Thu May  6 20:57:29 2021.
