 Gaussian 16, Revision A.03,
 Gaussian 16:  EM64L-G16RevA.03 25-Dec-2016

 -------------
 #p 6-31g* mp2
 -------------

 ------------------------------------------------------
 Input file generated by CHIRIPA (05-May-2021 14:57:22)
 ------------------------------------------------------
 Symbolic Z-matrix:
 Charge =  0 Multiplicity = 1

                         Standard orientation:
 ---------------------------------------------------------------------
 Center     Atomic      Atomic             Coordinates (Angstroms)
 Number     Number       Type             X           Y           Z
 ---------------------------------------------------------------------
      1          6           0        1.851747   -2.171572    1.556021
      2          6           0        1.659130   -2.203950    0.170968
      3          6           0        1.927034   -1.075532   -0.609703
      4          6           0        2.388437    0.073632    0.030468
      5          6           0        2.590321    0.137114    1.408330
      6          6           0        2.315909   -1.003203    2.169200
      7          1           0        1.641105   -3.052776    2.154774
      8          1           0        1.298753   -3.109942   -0.307940
      9          1           0        1.786717   -1.073048   -1.683819
     10          1           0        2.950589    1.054782    1.857227
     11          1           0        2.466421   -0.975170    3.244656
     12          7           0        2.675499    1.274536   -0.785513
     13          8           0        3.081130    2.274683   -0.197458
     14          8           0        2.489432    1.192920   -1.997682
     15          6           0       -2.711503    2.281730    1.089719
     16          6           0       -3.327534    1.103946    1.525436
     17          6           0       -3.129437   -0.097199    0.838008
     18          6           0       -2.305319   -0.084282   -0.286248
     19          6           0       -1.677614    1.072735   -0.745147
     20          6           0       -1.889958    2.262401   -0.042186
     21          1           0       -2.870924    3.210350    1.629764
     22          1           0       -3.966075    1.115982    2.404166
     23          1           0       -3.594049   -1.023506    1.153458
     24          1           0       -1.046535    1.029379   -1.624508
     25          1           0       -1.410250    3.175563   -0.382862
     26          7           0       -2.088061   -1.349804   -1.022220
     27          8           0       -1.357412   -1.311949   -2.009820
     28          8           0       -2.652537   -2.355611   -0.597537
 ---------------------------------------------------------------------

 SCF Done:  E(RHF) =  -868.340889184     A.U. after   16 cycles
 E2 =    -0.2600718391D+01 EUMP2 =    -0.87094160757414D+03

 The electronic state is 1-A.
 Alpha  occ. eigenvalues --  -20.61156 -20.61145 -20.60814 -20.60804 -15.86172
 Alpha  occ. eigenvalues --  -15.85840 -11.31258 -11.30915 -11.27841 -11.27712
 Alpha  occ. eigenvalues --  -11.27539 -11.27496 -11.27323 -11.27168 -11.26807
 Alpha  occ. eigenvalues --  -11.26676 -11.26492 -11.26266  -1.60218  -1.59894
 Alpha  occ. eigenvalues --   -1.39780  -1.39449  -1.19408  -1.19078  -1.08859
 Alpha  occ. eigenvalues --   -1.08532  -1.04762  -1.04407  -0.95740  -0.95402
 Alpha  occ. eigenvalues --   -0.86175  -0.85824  -0.82581  -0.82222  -0.77659
 Alpha  occ. eigenvalues --   -0.77295  -0.72416  -0.72057  -0.71533  -0.71223
 Alpha  occ. eigenvalues --   -0.70508  -0.70160  -0.65063  -0.64759  -0.64707
 Alpha  occ. eigenvalues --   -0.64379  -0.62099  -0.61721  -0.55284  -0.54940
 Alpha  occ. eigenvalues --   -0.53159  -0.52845  -0.52752  -0.52466  -0.49172
 Alpha  occ. eigenvalues --   -0.49144  -0.48830  -0.48795  -0.45257  -0.44910
 Alpha  occ. eigenvalues --   -0.37390  -0.37113  -0.36325  -0.35974
 Alpha virt. eigenvalues --    0.04817   0.05165   0.11141   0.11768   0.16359
 Alpha virt. eigenvalues --    0.16723   0.21407   0.21936   0.27300   0.27749
 Alpha virt. eigenvalues --    0.28224   0.28919   0.31011   0.31392   0.32127

 Mulliken charges:
               1
     1  C   -0.171005
     2  C   -0.223462
     3  C   -0.170070
     4  C    0.153984
     5  C   -0.172008
     6  C   -0.219662
     7  H    0.226356
     8  H    0.235376
     9  H    0.285779
    10  H    0.272036
    11  H    0.220835
    12  N    0.486482
    13  O   -0.463967
    14  O   -0.461231
    15  C   -0.170526
    16  C   -0.219192
    17  C   -0.171922
    18  C    0.159233
    19  C   -0.175628
    20  C   -0.219971
    21  H    0.226723
    22  H    0.222426
    23  H    0.273103
    24  H    0.283193
    25  H    0.231494
    26  N    0.489028
    27  O   -0.464511
    28  O   -0.462891
 Sum of Mulliken charges =  -0.00000

 Dipole moment (field-independent basis, Debye):
    X=             -1.8417    Y=              0.1670    Z=              5.3432  Tot=              5.6542
 Quadrupole moment (field-independent basis, Debye-Ang):
   XX=           -105.7875   YY=           -104.2530   ZZ=           -101.3637
   XY=            -18.8045   XZ=             -0.1182   YZ=             -0.7831

 Normal termination of Gaussian 16 at Fri May  7 01:48:05 2021.
