 Gaussian 16, Revision A.03,
 Gaussian 16:  EM64L-G16RevA.03 25-Dec-2016

 -------------
 #p 6-31g* mp2
 -------------

 ------------------------------------------------------
 Input file generated by CHIRIPA (05-May-2021 14:57:22)
 ------------------------------------------------------
 Symbolic Z-matrix:
 Charge =  0 Multiplicity = 1

                         Standard orientation:
 ---------------------------------------------------------------------
 Center     Atomic      Atomic             Coordinates (Angstroms)
 Number     Number       Type             X           Y           Z
 ---------------------------------------------------------------------
      1          6           0        4.766803    2.297540   -0.418027
      2          6           0        5.570471    1.153628   -0.372148
      3          6           0        5.007088   -0.100127   -0.116717
      4          6           0        3.630323   -0.173789    0.089154
      5          6           0        2.803110    0.947575    0.049774
      6          6           0        3.388119    2.191051   -0.207291
      7          1           0        5.212853    3.267494   -0.617087
      8          1           0        6.641466    1.233329   -0.535430
      9          1           0        5.605878   -1.001891   -0.075614
     10          1           0        1.738556    0.836514    0.216528
     11          1           0        2.761529    3.077731   -0.242336
     12          7           0        3.022447   -1.495642    0.360432
     13          8           0        1.806927   -1.533850    0.538439
     14          8           0        3.773026   -2.468473    0.389917
     15          6           0       -5.391425    1.830254    0.262472
     16          6           0       -4.035807    2.045092    0.532042
     17          6           0       -3.106651    1.013840    0.365499
     18          6           0       -3.569937   -0.225271   -0.074115
     19          6           0       -4.914013   -0.470420   -0.350972
     20          6           0       -5.825435    0.575396   -0.177399
     21          1           0       -6.106327    2.637012    0.394576
     22          1           0       -3.695893    3.018602    0.873777
     23          1           0       -2.051392    1.152719    0.566889
     24          1           0       -5.222773   -1.451714   -0.690304
     25          1           0       -6.877619    0.405673   -0.387517
     26          7           0       -2.595668   -1.324720   -0.254147
     27          8           0       -3.029222   -2.407216   -0.642568
     28          8           0       -1.416931   -1.083154   -0.003426
 ---------------------------------------------------------------------

 SCF Done:  E(RHF) =  -868.334942380     A.U. after   16 cycles
 E2 =    -0.2600627527D+01 EUMP2 =    -0.87093556990667D+03

 The electronic state is 1-A.
 Alpha  occ. eigenvalues --  -20.60202 -20.60146 -20.59823 -20.59707 -15.85234
 Alpha  occ. eigenvalues --  -15.84817 -11.30937 -11.30574 -11.27588 -11.27517
 Alpha  occ. eigenvalues --  -11.27334 -11.27203 -11.27182 -11.27035 -11.26655
 Alpha  occ. eigenvalues --  -11.26602 -11.26324 -11.26296  -1.59248  -1.58850
 Alpha  occ. eigenvalues --   -1.38794  -1.38383  -1.19138  -1.18794  -1.08466
 Alpha  occ. eigenvalues --   -1.08122  -1.04595  -1.04257  -0.95246  -0.94882
 Alpha  occ. eigenvalues --   -0.85975  -0.85634  -0.82086  -0.81698  -0.77089
 Alpha  occ. eigenvalues --   -0.76674  -0.71496  -0.70926  -0.70596  -0.70245
 Alpha  occ. eigenvalues --   -0.70194  -0.69897  -0.64782  -0.64603  -0.64428
 Alpha  occ. eigenvalues --   -0.64273  -0.61948  -0.61596  -0.55077  -0.54756
 Alpha  occ. eigenvalues --   -0.52899  -0.52696  -0.52565  -0.52358  -0.48225
 Alpha  occ. eigenvalues --   -0.48188  -0.47817  -0.47751  -0.44131  -0.43696
 Alpha  occ. eigenvalues --   -0.37128  -0.36801  -0.36212  -0.35879
 Alpha virt. eigenvalues --    0.05469   0.05853   0.11439   0.11773   0.16906
 Alpha virt. eigenvalues --    0.17267   0.21115   0.21954   0.26339   0.27691
 Alpha virt. eigenvalues --    0.28086   0.29162   0.30495   0.31608   0.32189

 Mulliken charges:
               1
     1  C   -0.171799
     2  C   -0.218703
     3  C   -0.171307
     4  C    0.158508
     5  C   -0.171854
     6  C   -0.218591
     7  H    0.222639
     8  H    0.221431
     9  H    0.275176
    10  H    0.279448
    11  H    0.218271
    12  N    0.487220
    13  O   -0.444860
    14  O   -0.465991
    15  C   -0.171716
    16  C   -0.218128
    17  C   -0.170659
    18  C    0.159723
    19  C   -0.171024
    20  C   -0.218247
    21  H    0.224224
    22  H    0.220252
    23  H    0.270439
    24  H    0.276384
    25  H    0.222910
    26  N    0.488669
    27  O   -0.460569
    28  O   -0.451847
 Sum of Mulliken charges =  -0.00000

 Dipole moment (field-independent basis, Debye):
    X=             -1.4239    Y=              8.2722    Z=             -0.3007  Tot=              8.3993
 Quadrupole moment (field-independent basis, Debye-Ang):
   XX=            -59.9386   YY=           -106.8001   ZZ=           -106.4082
   XY=              3.8397   XZ=             -4.4091   YZ=              1.3345

 Normal termination of Gaussian 16 at Fri May  7 07:54:21 2021.
