 Gaussian 16, Revision A.03,
 Gaussian 16:  EM64L-G16RevA.03 25-Dec-2016

 -------------
 #p 6-31g* mp2
 -------------

 ------------------------------------------------------
 Input file generated by CHIRIPA (05-May-2021 14:55:21)
 ------------------------------------------------------
 Symbolic Z-matrix:
 Charge =  0 Multiplicity = 1

                         Standard orientation:
 ---------------------------------------------------------------------
 Center     Atomic      Atomic             Coordinates (Angstroms)
 Number     Number       Type             X           Y           Z
 ---------------------------------------------------------------------
      1          6           0        5.922188    1.396529    0.315614
      2          6           0        4.721502    1.964820   -0.122474
      3          6           0        3.598308    1.164022   -0.349862
      4          6           0        3.711680   -0.207561   -0.128055
      5          6           0        4.893957   -0.803476    0.308291
      6          6           0        6.004438    0.016627    0.529221
      7          1           0        6.789774    2.026106    0.489746
      8          1           0        4.654719    3.036169   -0.289195
      9          1           0        2.656428    1.577756   -0.689131
     10          1           0        4.929904   -1.874615    0.465731
     11          1           0        6.935612   -0.427463    0.869434
     12          7           0        2.529334   -1.065549   -0.365363
     13          8           0        2.655071   -2.271243   -0.162558
     14          8           0        1.499263   -0.516100   -0.749675
     15          6           0       -5.694403    0.045403    0.430420
     16          6           0       -6.817838    0.467377   -0.517111
     17          6           0       -8.200286    0.383436    0.130646
     18          1           0       -5.878694   -0.982097    0.772805
     19          1           0       -5.720317    0.682458    1.325342
     20          1           0       -6.788949   -0.169380   -1.410599
     21          1           0       -6.630751    1.493923   -0.857430
     22          1           0       -8.253266    1.032155    1.010962
     23          1           0       -8.412363   -0.640599    0.454650
     24          1           0       -8.988497    0.689511   -0.564265
     25          6           0       -4.306352    0.123952   -0.202724
     26          6           0       -3.182917   -0.298022    0.744807
     27          6           0       -1.800470   -0.214081    0.097050
     28          1           0       -4.280439   -0.513104   -1.097645
     29          1           0       -4.122063    1.151451   -0.545109
     30          1           0       -3.370004   -1.324569    1.085127
     31          1           0       -3.211807    0.338735    1.638296
     32          1           0       -1.588393    0.809953   -0.226954
     33          1           0       -1.747489   -0.862801   -0.783266
     34          1           0       -1.012259   -0.520156    0.791961
 ---------------------------------------------------------------------

 SCF Done:  E(RHF) =  -669.535556476     A.U. after   15 cycles
 E2 =    -0.2090892737D+01 EUMP2 =    -0.67162644921309D+03

 The electronic state is 1-A.
 Alpha  occ. eigenvalues --  -20.60856 -20.60833 -15.85880 -11.31241 -11.27810
 Alpha  occ. eigenvalues --  -11.27805 -11.27554 -11.26825 -11.26816 -11.21072
 Alpha  occ. eigenvalues --  -11.20725 -11.20638 -11.20544 -11.20467 -11.19462
 Alpha  occ. eigenvalues --   -1.59914  -1.39468  -1.19414  -1.08812  -1.07647
 Alpha  occ. eigenvalues --   -1.04816  -1.02652  -0.95652  -0.95060  -0.86217
 Alpha  occ. eigenvalues --   -0.86065  -0.82477  -0.78739  -0.77536  -0.77420
 Alpha  occ. eigenvalues --   -0.72093  -0.71234  -0.70522  -0.65067  -0.64819
 Alpha  occ. eigenvalues --   -0.64291  -0.62162  -0.60061  -0.58496  -0.56676
 Alpha  occ. eigenvalues --   -0.55319  -0.54366  -0.53148  -0.52908  -0.51722
 Alpha  occ. eigenvalues --   -0.51490  -0.49076  -0.48857  -0.48793  -0.47037
 Alpha  occ. eigenvalues --   -0.45805  -0.44972  -0.44893  -0.44869  -0.42847
 Alpha  occ. eigenvalues --   -0.37395  -0.36419
 Alpha virt. eigenvalues --    0.04988   0.11236   0.16470   0.21359   0.23580
 Alpha virt. eigenvalues --    0.25192   0.27249   0.27397   0.28095   0.28249
 Alpha virt. eigenvalues --    0.29016   0.30928   0.32167   0.32401   0.32663

 Mulliken charges:
               1
     1  C   -0.170726
     2  C   -0.218553
     3  C   -0.170870
     4  C    0.157831
     5  C   -0.170790
     6  C   -0.218579
     7  H    0.225773
     8  H    0.223631
     9  H    0.275972
    10  H    0.275722
    11  H    0.223605
    12  N    0.489822
    13  O   -0.460156
    14  O   -0.459213
    15  C   -0.297334
    16  C   -0.298980
    17  C   -0.475237
    18  H    0.149070
    19  H    0.147471
    20  H    0.151750
    21  H    0.150524
    22  H    0.154062
    23  H    0.154829
    24  H    0.158585
    25  C   -0.297192
    26  C   -0.302804
    27  C   -0.464870
    28  H    0.149699
    29  H    0.146761
    30  H    0.150139
    31  H    0.145736
    32  H    0.146824
    33  H    0.161534
    34  H    0.165967
 Sum of Mulliken charges =  -0.00000

 Dipole moment (field-independent basis, Debye):
    X=              4.4768    Y=              2.9549    Z=              0.7743  Tot=              5.4197
 Quadrupole moment (field-independent basis, Debye-Ang):
   XX=            -65.3753   YY=            -92.0703   ZZ=            -95.5785
   XY=              8.4120   XZ=              4.0521   YZ=             -1.4856

 Normal termination of Gaussian 16 at Thu May  6 19:08:35 2021.
