 Gaussian 16, Revision A.03,
 Gaussian 16:  EM64L-G16RevA.03 25-Dec-2016

 -------------
 #p 6-31g* mp2
 -------------

 ------------------------------------------------------
 Input file generated by CHIRIPA (05-May-2021 14:57:25)
 ------------------------------------------------------
 Symbolic Z-matrix:
 Charge =  0 Multiplicity = 1

                         Standard orientation:
 ---------------------------------------------------------------------
 Center     Atomic      Atomic             Coordinates (Angstroms)
 Number     Number       Type             X           Y           Z
 ---------------------------------------------------------------------
      1          6           0        1.431689   -1.297531    1.985131
      2          6           0        1.979154   -0.019984    2.142221
      3          6           0        2.685586    0.583143    1.097358
      4          6           0        2.826080   -0.123016   -0.096330
      5          6           0        2.292307   -1.397119   -0.283515
      6          6           0        1.589735   -1.980816    0.774898
      7          1           0        0.884415   -1.758508    2.802068
      8          1           0        1.857984    0.513012    3.080985
      9          1           0        3.119722    1.571073    1.191908
     10          1           0        2.429635   -1.903697   -1.231111
     11          1           0        1.165647   -2.973092    0.650063
     12          7           0        3.571905    0.505203   -1.209652
     13          8           0        3.681717   -0.137811   -2.251339
     14          8           0        4.032548    1.628720   -1.019506
     15          6           0       -3.233465   -2.158348   -0.717190
     16          6           0       -3.998493   -1.109901   -1.238738
     17          6           0       -3.713697    0.215370   -0.896546
     18          6           0       -2.651891    0.457117   -0.026249
     19          6           0       -1.871309   -0.565860    0.509939
     20          6           0       -2.174182   -1.883466    0.153947
     21          1           0       -3.461723   -3.184874   -0.988372
     22          1           0       -4.821739   -1.320407   -1.915492
     23          1           0       -4.289750    1.046117   -1.285700
     24          1           0       -1.056909   -0.324710    1.182261
     25          1           0       -1.578352   -2.695705    0.560520
     26          7           0       -2.340821    1.856065    0.343318
     27          8           0       -1.400089    2.042613    1.111993
     28          8           0       -3.043626    2.739524   -0.142689
 ---------------------------------------------------------------------

 SCF Done:  E(RHF) =  -868.336464643     A.U. after   16 cycles
 E2 =    -0.2603011842D+01 EUMP2 =    -0.87093947648428D+03

 The electronic state is 1-A.
 Alpha  occ. eigenvalues --  -20.61022 -20.60998 -20.60856 -20.60832 -15.86067
 Alpha  occ. eigenvalues --  -15.85903 -11.31442 -11.31412 -11.28074 -11.28014
 Alpha  occ. eigenvalues --  -11.27947 -11.27930 -11.27858 -11.27823 -11.27238
 Alpha  occ. eigenvalues --  -11.27118 -11.27018 -11.27017  -1.60082  -1.59915
 Alpha  occ. eigenvalues --   -1.39638  -1.39464  -1.19675  -1.19601  -1.09061
 Alpha  occ. eigenvalues --   -1.09028  -1.05095  -1.04996  -0.95887  -0.95807
 Alpha  occ. eigenvalues --   -0.86508  -0.86410  -0.82703  -0.82640  -0.77773
 Alpha  occ. eigenvalues --   -0.77610  -0.72296  -0.72124  -0.71402  -0.71234
 Alpha  occ. eigenvalues --   -0.70862  -0.70686  -0.65344  -0.65273  -0.65241
 Alpha  occ. eigenvalues --   -0.64918  -0.62509  -0.62300  -0.55636  -0.55588
 Alpha  occ. eigenvalues --   -0.53625  -0.53352  -0.53130  -0.52869  -0.49047
 Alpha  occ. eigenvalues --   -0.49037  -0.48896  -0.48862  -0.45045  -0.44829
 Alpha  occ. eigenvalues --   -0.37723  -0.37626  -0.36906  -0.36291
 Alpha virt. eigenvalues --    0.04701   0.04947   0.10835   0.11033   0.16078
 Alpha virt. eigenvalues --    0.16421   0.19403   0.22162   0.25415   0.27368
 Alpha virt. eigenvalues --    0.28182   0.29425   0.29942   0.31507   0.32180

 Mulliken charges:
               1
     1  C   -0.193097
     2  C   -0.209206
     3  C   -0.163805
     4  C    0.159562
     5  C   -0.169973
     6  C   -0.217315
     7  H    0.224867
     8  H    0.231053
     9  H    0.281412
    10  H    0.275960
    11  H    0.217199
    12  N    0.488067
    13  O   -0.461005
    14  O   -0.455984
    15  C   -0.170173
    16  C   -0.219195
    17  C   -0.168850
    18  C    0.156766
    19  C   -0.172406
    20  C   -0.222382
    21  H    0.225127
    22  H    0.224619
    23  H    0.276929
    24  H    0.282985
    25  H    0.212222
    26  N    0.488234
    27  O   -0.463412
    28  O   -0.458200
 Sum of Mulliken charges =  -0.00000

 Dipole moment (field-independent basis, Debye):
    X=             -3.4935    Y=             -6.7850    Z=              2.5778  Tot=              8.0552
 Quadrupole moment (field-independent basis, Debye-Ang):
   XX=           -111.1410   YY=           -106.2241   ZZ=           -103.0925
   XY=              6.4007   XZ=             18.3764   YZ=              1.1710

 Normal termination of Gaussian 16 at Thu May  6 01:58:12 2021.
