 Gaussian 16, Revision A.03,
 Gaussian 16:  EM64L-G16RevA.03 25-Dec-2016

 -------------
 #p 6-31g* mp2
 -------------

 ------------------------------------------------------
 Input file generated by CHIRIPA (05-May-2021 14:53:14)
 ------------------------------------------------------
 Symbolic Z-matrix:
 Charge =  0 Multiplicity = 1

                         Standard orientation:
 ---------------------------------------------------------------------
 Center     Atomic      Atomic             Coordinates (Angstroms)
 Number     Number       Type             X           Y           Z
 ---------------------------------------------------------------------
      1          6           0        4.333841   -0.385520   -0.421821
      2          6           0        5.254126    0.348850    0.553761
      3          6           0        6.665046    0.548122   -0.000666
      4          1           0        4.774187   -1.361658   -0.667168
      5          1           0        4.282627    0.179659   -1.362748
      6          1           0        5.302495   -0.216830    1.493060
      7          1           0        4.811444    1.323274    0.796964
      8          1           0        6.636299    1.131906   -0.926393
      9          1           0        7.130141   -0.416948   -0.226341
     10          1           0        7.306102    1.075058    0.712949
     11          6           0        2.919848   -0.592295    0.118175
     12          6           0        1.999563   -1.326665   -0.857407
     13          6           0        0.588643   -1.525937   -0.302980
     14          1           0        2.971063   -1.157474    1.059102
     15          1           0        2.479502    0.383843    0.363522
     16          1           0        2.442245   -2.301089   -1.100609
     17          1           0        1.951194   -0.760986   -1.796706
     18          1           0        0.123549   -0.560868   -0.077305
     19          1           0        0.617390   -2.109721    0.622747
     20          1           0       -0.052413   -2.052873   -1.016595
     21          6           0       -3.960106   -1.873840    0.207979
     22          6           0       -3.088308   -1.485796    1.230676
     23          6           0       -2.458515   -0.238247    1.191539
     24          6           0       -2.724554    0.600041    0.109972
     25          6           0       -3.588052    0.242070   -0.924202
     26          6           0       -4.206762   -1.010192   -0.864305
     27          1           0       -4.445040   -2.844797    0.246445
     28          1           0       -2.894876   -2.154464    2.064649
     29          1           0       -1.779100    0.087441    1.969832
     30          1           0       -3.761100    0.930253   -1.742662
     31          1           0       -4.883340   -1.308904   -1.659954
     32          7           0       -2.063686    1.923260    0.057550
     33          8           0       -2.314762    2.643539   -0.906191
     34          8           0       -1.307137    2.215064    0.981196
 ---------------------------------------------------------------------

 SCF Done:  E(RHF) =  -669.535064536     A.U. after   15 cycles
 E2 =    -0.2092683864D+01 EUMP2 =    -0.67162774840064D+03

 The electronic state is 1-A.
 Alpha  occ. eigenvalues --  -20.60850 -20.60834 -15.85878 -11.31154 -11.27759
 Alpha  occ. eigenvalues --  -11.27742 -11.27502 -11.26752 -11.26738 -11.21408
 Alpha  occ. eigenvalues --  -11.21296 -11.21113 -11.21050 -11.20996 -11.20804
 Alpha  occ. eigenvalues --   -1.59911  -1.39467  -1.19359  -1.08767  -1.08167
 Alpha  occ. eigenvalues --   -1.04757  -1.03310  -0.95782  -0.95601  -0.86803
 Alpha  occ. eigenvalues --   -0.86155  -0.82442  -0.79383  -0.77973  -0.77494
 Alpha  occ. eigenvalues --   -0.72100  -0.71239  -0.70479  -0.65017  -0.64797
 Alpha  occ. eigenvalues --   -0.64753  -0.62109  -0.60714  -0.59137  -0.57388
 Alpha  occ. eigenvalues --   -0.55278  -0.55093  -0.53274  -0.52851  -0.52386
 Alpha  occ. eigenvalues --   -0.52101  -0.49708  -0.48864  -0.48852  -0.47702
 Alpha  occ. eigenvalues --   -0.46408  -0.45529  -0.45434  -0.44845  -0.43548
 Alpha  occ. eigenvalues --   -0.37306  -0.36291
 Alpha virt. eigenvalues --    0.05027   0.11268   0.16503   0.21348   0.23113
 Alpha virt. eigenvalues --    0.24414   0.26885   0.27022   0.27794   0.28071
 Alpha virt. eigenvalues --    0.28620   0.30602   0.31679   0.31877   0.32110

 Mulliken charges:
               1
     1  C   -0.298171
     2  C   -0.300078
     3  C   -0.475660
     4  H    0.147492
     5  H    0.150804
     6  H    0.150413
     7  H    0.155469
     8  H    0.155766
     9  H    0.153731
    10  H    0.160008
    11  C   -0.300601
    12  C   -0.299687
    13  C   -0.476440
    14  H    0.146257
    15  H    0.158528
    16  H    0.149337
    17  H    0.153841
    18  H    0.158579
    19  H    0.148183
    20  H    0.158237
    21  C   -0.170756
    22  C   -0.216325
    23  C   -0.169019
    24  C    0.159299
    25  C   -0.170935
    26  C   -0.218972
    27  H    0.225597
    28  H    0.223420
    29  H    0.275698
    30  H    0.275406
    31  H    0.223241
    32  N    0.488445
    33  O   -0.459893
    34  O   -0.461213
 Sum of Mulliken charges =  -0.00000

 Dipole moment (field-independent basis, Debye):
    X=             -2.4026    Y=             -4.5833    Z=              0.1939  Tot=              5.1784
 Quadrupole moment (field-independent basis, Debye-Ang):
   XX=            -82.7903   YY=           -100.2625   ZZ=            -91.1048
   XY=             10.8423   XZ=              1.9288   YZ=             -1.7551

 Normal termination of Gaussian 16 at Thu May  6 04:12:27 2021.
