 Gaussian 16, Revision A.03,
 Gaussian 16:  EM64L-G16RevA.03 25-Dec-2016

 -------------
 #p 6-31g* mp2
 -------------

 ------------------------------------------------------
 Input file generated by CHIRIPA (05-May-2021 14:53:13)
 ------------------------------------------------------
 Symbolic Z-matrix:
 Charge =  0 Multiplicity = 1

                         Standard orientation:
 ---------------------------------------------------------------------
 Center     Atomic      Atomic             Coordinates (Angstroms)
 Number     Number       Type             X           Y           Z
 ---------------------------------------------------------------------
      1          6           0       -3.217110   -0.564311   -0.582590
      2          6           0       -2.577586   -1.905134   -0.220391
      3          6           0       -1.580935   -2.388600   -1.274308
      4          1           0       -3.723646   -0.657145   -1.553027
      5          1           0       -2.426617    0.187643   -0.713282
      6          1           0       -3.369138   -2.654009   -0.089065
      7          1           0       -2.072676   -1.809150    0.749387
      8          1           0       -0.771041   -1.662785   -1.400264
      9          1           0       -2.074869   -2.512444   -2.243480
     10          1           0       -1.135721   -3.348700   -0.995287
     11          6           0       -4.215809   -0.067798    0.461347
     12          6           0       -4.855334    1.273025    0.099148
     13          6           0       -5.851985    1.756491    1.153065
     14          1           0       -5.006302   -0.819752    0.592039
     15          1           0       -3.709273    0.025035    1.431784
     16          1           0       -5.360243    1.177041   -0.870630
     17          1           0       -4.063782    2.021900   -0.032178
     18          1           0       -5.358051    1.880334    2.122236
     19          1           0       -6.661878    1.030675    1.279021
     20          1           0       -6.297199    2.716591    0.874044
     21          6           0        2.962058   -2.145099    0.847828
     22          6           0        3.878609   -1.215941    1.350936
     23          6           0        3.855399    0.112071    0.914595
     24          6           0        2.897822    0.478168   -0.030025
     25          6           0        1.971306   -0.424230   -0.550155
     26          6           0        2.013004   -1.746980   -0.099442
     27          1           0        2.987269   -3.174687    1.192370
     28          1           0        4.616768   -1.522299    2.086675
     29          1           0        4.553199    0.851991    1.287434
     30          1           0        1.247180   -0.089057   -1.282765
     31          1           0        1.299964   -2.466418   -0.491907
     32          7           0        2.863463    1.881290   -0.499568
     33          8           0        2.009954    2.178681   -1.332465
     34          8           0        3.690694    2.657099   -0.025807
 ---------------------------------------------------------------------

 SCF Done:  E(RHF) =  -669.534863290     A.U. after   15 cycles
 E2 =    -0.2092051594D+01 EUMP2 =    -0.67162691488357D+03

 The electronic state is 1-A.
 Alpha  occ. eigenvalues --  -20.60756 -20.60751 -15.85807 -11.31159 -11.27715
 Alpha  occ. eigenvalues --  -11.27705 -11.27435 -11.26735 -11.26635 -11.22230
 Alpha  occ. eigenvalues --  -11.22087 -11.21731 -11.21656 -11.21567 -11.21091
 Alpha  occ. eigenvalues --   -1.59831  -1.39385  -1.19318  -1.08770  -1.08711
 Alpha  occ. eigenvalues --   -1.04726  -1.03927  -0.96414  -0.95557  -0.87451
 Alpha  occ. eigenvalues --   -0.86110  -0.82395  -0.80010  -0.78516  -0.77441
 Alpha  occ. eigenvalues --   -0.72026  -0.71154  -0.70439  -0.65424  -0.64966
 Alpha  occ. eigenvalues --   -0.64728  -0.62228  -0.61197  -0.59822  -0.57981
 Alpha  occ. eigenvalues --   -0.55727  -0.55181  -0.53230  -0.53048  -0.52840
 Alpha  occ. eigenvalues --   -0.52677  -0.50329  -0.48784  -0.48779  -0.48311
 Alpha  occ. eigenvalues --   -0.47005  -0.46073  -0.45953  -0.44795  -0.44157
 Alpha  occ. eigenvalues --   -0.37298  -0.36311
 Alpha virt. eigenvalues --    0.05075   0.11319   0.16533   0.20087   0.22872
 Alpha virt. eigenvalues --    0.23976   0.25201   0.26497   0.26758   0.28015
 Alpha virt. eigenvalues --    0.29243   0.30185   0.31308   0.31569   0.32197

 Mulliken charges:
               1
     1  C   -0.300296
     2  C   -0.299740
     3  C   -0.482318
     4  H    0.151261
     5  H    0.153420
     6  H    0.154568
     7  H    0.152906
     8  H    0.150132
     9  H    0.162574
    10  H    0.155366
    11  C   -0.298747
    12  C   -0.300789
    13  C   -0.476003
    14  H    0.149157
    15  H    0.150359
    16  H    0.152297
    17  H    0.156061
    18  H    0.155599
    19  H    0.154376
    20  H    0.161833
    21  C   -0.172274
    22  C   -0.218361
    23  C   -0.171429
    24  C    0.159500
    25  C   -0.177706
    26  C   -0.221806
    27  H    0.225508
    28  H    0.223194
    29  H    0.275345
    30  H    0.276600
    31  H    0.232377
    32  N    0.488573
    33  O   -0.461072
    34  O   -0.460464
 Sum of Mulliken charges =  -0.00000

 Dipole moment (field-independent basis, Debye):
    X=             -0.0597    Y=             -4.9099    Z=              1.6611  Tot=              5.1836
 Quadrupole moment (field-independent basis, Debye-Ang):
   XX=            -90.9370   YY=            -99.8920   ZZ=            -93.8050
   XY=            -12.7768   XZ=              8.5326   YZ=              1.5871

 Normal termination of Gaussian 16 at Thu May  6 01:00:52 2021.
