 Gaussian 16, Revision A.03,
 Gaussian 16:  EM64L-G16RevA.03 25-Dec-2016

 -------------
 #p 6-31g* mp2
 -------------

 ------------------------------------------------------
 Input file generated by CHIRIPA (05-May-2021 14:55:18)
 ------------------------------------------------------
 Symbolic Z-matrix:
 Charge =  0 Multiplicity = 1

                         Standard orientation:
 ---------------------------------------------------------------------
 Center     Atomic      Atomic             Coordinates (Angstroms)
 Number     Number       Type             X           Y           Z
 ---------------------------------------------------------------------
      1          6           0       -5.234127   -0.763950    0.566693
      2          6           0       -4.160063   -1.518927    1.049308
      3          6           0       -2.852223   -1.229957    0.648561
      4          6           0       -2.653839   -0.174272   -0.239957
      5          6           0       -3.703170    0.596271   -0.738413
      6          6           0       -5.002660    0.289383   -0.324057
      7          1           0       -6.246846   -0.995388    0.883289
      8          1           0       -4.336842   -2.337534    1.741172
      9          1           0       -2.002377   -1.798252    1.006642
     10          1           0       -3.495535    1.406234   -1.427084
     11          1           0       -5.834870    0.877404   -0.700491
     12          7           0       -1.273707    0.141132   -0.671413
     13          8           0       -1.125451    1.076314   -1.455054
     14          8           0       -0.366348   -0.552807   -0.217779
     15          6           0        4.157238   -0.266804    0.447896
     16          6           0        4.706444   -1.114335   -0.700167
     17          6           0        5.643472   -2.223286   -0.220584
     18          1           0        4.996106    0.174654    1.003198
     19          1           0        3.624081   -0.919011    1.153420
     20          1           0        5.237222   -0.460524   -1.404029
     21          1           0        3.866166   -1.553671   -1.252917
     22          1           0        5.121655   -2.898933    0.464842
     23          1           0        6.500500   -1.799574    0.312871
     24          1           0        6.024462   -2.816824   -1.057493
     25          6           0        3.218894    0.846015   -0.015647
     26          6           0        2.669688    1.693546    1.132415
     27          6           0        1.732659    2.802496    0.652832
     28          1           0        3.752051    1.498222   -0.721171
     29          1           0        2.380026    0.404557   -0.570950
     30          1           0        3.509966    2.132882    1.685166
     31          1           0        2.138910    1.039734    1.836278
     32          1           0        0.875632    2.378785    0.119378
     33          1           0        2.254477    3.478144   -0.032593
     34          1           0        1.351670    3.396035    1.489743
 ---------------------------------------------------------------------

 SCF Done:  E(RHF) =  -669.537182620     A.U. after   15 cycles
 E2 =    -0.2092464681D+01 EUMP2 =    -0.67162964730102D+03

 The electronic state is 1-A.
 Alpha  occ. eigenvalues --  -20.61253 -20.61246 -15.86227 -11.31452 -11.27997
 Alpha  occ. eigenvalues --  -11.27991 -11.27717 -11.26977 -11.26967 -11.20455
 Alpha  occ. eigenvalues --  -11.20186 -11.20067 -11.20043 -11.19557 -11.19423
 Alpha  occ. eigenvalues --   -1.60278  -1.39836  -1.19604  -1.09030  -1.06977
 Alpha  occ. eigenvalues --   -1.04983  -1.02177  -0.95886  -0.94625  -0.86388
 Alpha  occ. eigenvalues --   -0.85647  -0.82725  -0.78277  -0.77793  -0.76746
 Alpha  occ. eigenvalues --   -0.72440  -0.71583  -0.70712  -0.65261  -0.64988
 Alpha  occ. eigenvalues --   -0.63588  -0.62329  -0.59572  -0.58036  -0.56242
 Alpha  occ. eigenvalues --   -0.55492  -0.53903  -0.53314  -0.53072  -0.51396
 Alpha  occ. eigenvalues --   -0.51052  -0.49267  -0.49239  -0.48508  -0.46576
 Alpha  occ. eigenvalues --   -0.45404  -0.45133  -0.44323  -0.44048  -0.42401
 Alpha  occ. eigenvalues --   -0.37575  -0.36576
 Alpha virt. eigenvalues --    0.04683   0.11081   0.16200   0.21212   0.24276
 Alpha virt. eigenvalues --    0.25682   0.27154   0.27926   0.28283   0.29061
 Alpha virt. eigenvalues --    0.29289   0.30810   0.32329   0.32739   0.32917

 Mulliken charges:
               1
     1  C   -0.170105
     2  C   -0.218636
     3  C   -0.170513
     4  C    0.159230
     5  C   -0.170235
     6  C   -0.218662
     7  H    0.226641
     8  H    0.224407
     9  H    0.275977
    10  H    0.276444
    11  H    0.224468
    12  N    0.488230
    13  O   -0.457373
    14  O   -0.459234
    15  C   -0.296562
    16  C   -0.299418
    17  C   -0.474730
    18  H    0.143186
    19  H    0.148156
    20  H    0.149350
    21  H    0.155943
    22  H    0.153109
    23  H    0.152497
    24  H    0.156764
    25  C   -0.307682
    26  C   -0.294895
    27  C   -0.485062
    28  H    0.142206
    29  H    0.178939
    30  H    0.142912
    31  H    0.149673
    32  H    0.175699
    33  H    0.150328
    34  H    0.148950
 Sum of Mulliken charges =  -0.00000

 Dipole moment (field-independent basis, Debye):
    X=             -5.4151    Y=             -1.2516    Z=              1.3396  Tot=              5.7170
 Quadrupole moment (field-independent basis, Debye-Ang):
   XX=            -70.1359   YY=            -93.0784   ZZ=            -94.7388
   XY=              3.2779   XZ=             -2.4504   YZ=             -2.8477

 Normal termination of Gaussian 16 at Thu May  6 19:01:47 2021.
