 Gaussian 16, Revision A.03,
 Gaussian 16:  EM64L-G16RevA.03 25-Dec-2016

 -------------
 #p 6-31g* mp2
 -------------

 ------------------------------------------------------
 Input file generated by CHIRIPA (05-May-2021 14:51:08)
 ------------------------------------------------------
 Symbolic Z-matrix:
 Charge =  0 Multiplicity = 1

                         Standard orientation:
 ---------------------------------------------------------------------
 Center     Atomic      Atomic             Coordinates (Angstroms)
 Number     Number       Type             X           Y           Z
 ---------------------------------------------------------------------
      1          6           0       -3.367275   -0.128009   -0.077599
      2          6           0       -4.787934   -0.470223    0.372517
      3          6           0       -5.714225    0.746203    0.381920
      4          1           0       -2.954817    0.643606    0.586806
      5          1           0       -3.404998    0.313082   -1.083288
      6          1           0       -4.747413   -0.911810    1.376497
      7          1           0       -5.196988   -1.241251   -0.292920
      8          1           0       -5.784358    1.184755   -0.618757
      9          1           0       -5.332229    1.516067    1.060145
     10          1           0       -6.724617    0.478913    0.706766
     11          6           0       -2.429417   -1.333802   -0.092215
     12          6           0       -1.008759   -0.991589   -0.542330
     13          6           0       -0.082468   -2.208014   -0.551733
     14          1           0       -2.391695   -1.774893    0.913475
     15          1           0       -2.841875   -2.105417   -0.756619
     16          1           0       -0.599705   -0.220561    0.123107
     17          1           0       -1.049280   -0.550001   -1.546310
     18          1           0       -0.464464   -2.977878   -1.229958
     19          1           0       -0.012335   -2.646566    0.448944
     20          1           0        0.927924   -1.940724   -0.876579
     21          6           0        3.425113    0.260416   -0.205933
     22          6           0        3.947326   -0.762997    0.802979
     23          6           0        5.000493   -1.697099    0.206247
     24          1           0        3.000296   -0.269364   -1.069535
     25          1           0        4.268555    0.852903   -0.586671
     26          1           0        3.102965   -1.352453    1.182732
     27          1           0        4.370777   -0.230721    1.664367
     28          1           0        5.861211   -1.125744   -0.156133
     29          1           0        4.586196   -2.253848   -0.640504
     30          1           0        5.360064   -2.420534    0.944630
     31          6           0        2.371580    1.201395    0.375747
     32          6           0        1.849367    2.224809   -0.633166
     33          6           0        0.796200    3.158910   -0.036434
     34          1           0        1.528137    0.608908    0.756483
     35          1           0        2.796396    1.731175    1.239349
     36          1           0        1.425915    1.692533   -1.494553
     37          1           0        2.693727    2.814264   -1.012918
     38          1           0        1.210497    3.715660    0.810317
     39          1           0       -0.064519    2.587555    0.325946
     40          1           0        0.436628    3.882345   -0.774817
 ---------------------------------------------------------------------

 SCF Done:  E(RHF) =  -470.732960841     A.U. after   11 cycles
 E2 =    -0.1584465805D+01 EUMP2 =    -0.47231742664586D+03

 The electronic state is 1-A.
 Alpha  occ. eigenvalues --  -11.21684 -11.21636 -11.21572 -11.21564 -11.21464
 Alpha  occ. eigenvalues --  -11.21403 -11.21381 -11.21311 -11.21172 -11.21090
 Alpha  occ. eigenvalues --  -11.21051 -11.21048  -1.08511  -1.08392  -1.03600
 Alpha  occ. eigenvalues --   -1.03500  -0.96054  -0.95945  -0.87067  -0.86965
 Alpha  occ. eigenvalues --   -0.79672  -0.79560  -0.78342  -0.78193  -0.65291
 Alpha  occ. eigenvalues --   -0.64947  -0.61042  -0.60856  -0.59398  -0.59317
 Alpha  occ. eigenvalues --   -0.57654  -0.57565  -0.55366  -0.55198  -0.52741
 Alpha  occ. eigenvalues --   -0.52645  -0.52468  -0.52376  -0.50027  -0.49869
 Alpha  occ. eigenvalues --   -0.48070  -0.47814  -0.46890  -0.46493  -0.46032
 Alpha  occ. eigenvalues --   -0.45806  -0.45730  -0.45324  -0.43834  -0.43757
 Alpha virt. eigenvalues --    0.19441   0.22270   0.23449   0.24884   0.25477
 Alpha virt. eigenvalues --    0.26198   0.26792   0.27436   0.28696   0.29782
 Alpha virt. eigenvalues --    0.30510   0.31260   0.31774   0.31782   0.32561

 Mulliken charges:
               1
     1  C   -0.298855
     2  C   -0.299705
     3  C   -0.475786
     4  H    0.149731
     5  H    0.149877
     6  H    0.152027
     7  H    0.152085
     8  H    0.155302
     9  H    0.155426
    10  H    0.160363
    11  C   -0.297872
    12  C   -0.306980
    13  C   -0.480597
    14  H    0.149635
    15  H    0.149970
    16  H    0.158326
    17  H    0.152296
    18  H    0.155959
    19  H    0.155374
    20  H    0.164328
    21  C   -0.299943
    22  C   -0.301358
    23  C   -0.475643
    24  H    0.150489
    25  H    0.149811
    26  H    0.153772
    27  H    0.151857
    28  H    0.155086
    29  H    0.155021
    30  H    0.160279
    31  C   -0.303822
    32  C   -0.299978
    33  C   -0.477444
    34  H    0.155098
    35  H    0.149473
    36  H    0.153229
    37  H    0.151846
    38  H    0.154843
    39  H    0.156138
    40  H    0.160342
 Sum of Mulliken charges =  -0.00000

 Dipole moment (field-independent basis, Debye):
    X=             -0.0323    Y=             -0.0152    Z=             -0.0033  Tot=              0.0358
 Quadrupole moment (field-independent basis, Debye-Ang):
   XX=            -85.4056   YY=            -85.5230   ZZ=            -83.8259
   XY=              1.7193   XZ=              0.7414   YZ=              0.1089

 Normal termination of Gaussian 16 at Thu May  6 03:41:47 2021.
