 Gaussian 16, Revision A.03,
 Gaussian 16:  EM64L-G16RevA.03 25-Dec-2016

 -------------
 #p 6-31g* mp2
 -------------

 ------------------------------------------------------
 Input file generated by CHIRIPA (05-May-2021 14:55:25)
 ------------------------------------------------------
 Symbolic Z-matrix:
 Charge =  0 Multiplicity = 1

                         Standard orientation:
 ---------------------------------------------------------------------
 Center     Atomic      Atomic             Coordinates (Angstroms)
 Number     Number       Type             X           Y           Z
 ---------------------------------------------------------------------
      1          6           0       -2.282650    2.905316    0.041702
      2          6           0       -1.816608    2.196605    1.153931
      3          6           0       -1.901235    0.801677    1.193464
      4          6           0       -2.460168    0.144599    0.098416
      5          6           0       -2.933262    0.822483   -1.024057
      6          6           0       -2.838510    2.217207   -1.041832
      7          1           0       -2.212977    3.988850    0.019443
      8          1           0       -1.384447    2.728363    1.996852
      9          1           0       -1.548174    0.228113    2.041869
     10          1           0       -3.359075    0.264622   -1.849219
     11          1           0       -3.201254    2.764991   -1.906929
     12          7           0       -2.555118   -1.332041    0.128750
     13          8           0       -3.051750   -1.887475   -0.848740
     14          8           0       -2.131111   -1.906036    1.129442
     15          6           0        2.806688   -1.115466    0.191166
     16          6           0        1.630394   -1.658878   -0.620635
     17          6           0        0.996100   -2.897007    0.013795
     18          1           0        3.564789   -1.903284    0.298730
     19          1           0        2.461905   -0.872826    1.205881
     20          1           0        1.976984   -1.899123   -1.633933
     21          1           0        0.875090   -0.869615   -0.726441
     22          1           0        0.623354   -2.667577    1.017301
     23          1           0        1.731509   -3.702935    0.104652
     24          1           0        0.157301   -3.268814   -0.582892
     25          6           0        3.451282    0.122270   -0.430311
     26          6           0        4.627575    0.665682    0.381490
     27          6           0        5.261870    1.903812   -0.252940
     28          1           0        3.796066   -0.120369   -1.445026
     29          1           0        2.693181    0.910089   -0.537875
     30          1           0        5.382879   -0.123581    0.487296
     31          1           0        4.280986    0.905927    1.394788
     32          1           0        4.526461    2.709739   -0.343798
     33          1           0        5.634615    1.674381   -1.256446
     34          1           0        6.100669    2.275618    0.343748
 ---------------------------------------------------------------------

 SCF Done:  E(RHF) =  -669.535859030     A.U. after   15 cycles
 E2 =    -0.2092481955D+01 EUMP2 =    -0.67162834098498D+03

 The electronic state is 1-A.
 Alpha  occ. eigenvalues --  -20.60916 -20.60897 -15.85933 -11.31301 -11.27865
 Alpha  occ. eigenvalues --  -11.27849 -11.27592 -11.26868 -11.26855 -11.21561
 Alpha  occ. eigenvalues --  -11.21236 -11.21116 -11.21071 -11.21011 -11.19901
 Alpha  occ. eigenvalues --   -1.59964  -1.39521  -1.19463  -1.08859  -1.08156
 Alpha  occ. eigenvalues --   -1.04860  -1.03152  -0.95707  -0.95552  -0.86570
 Alpha  occ. eigenvalues --   -0.86259  -0.82529  -0.79242  -0.77947  -0.77580
 Alpha  occ. eigenvalues --   -0.72163  -0.71295  -0.70566  -0.65118  -0.64861
 Alpha  occ. eigenvalues --   -0.64796  -0.62207  -0.60552  -0.58986  -0.57167
 Alpha  occ. eigenvalues --   -0.55360  -0.54853  -0.53198  -0.52951  -0.52205
 Alpha  occ. eigenvalues --   -0.51987  -0.49536  -0.48922  -0.48898  -0.47536
 Alpha  occ. eigenvalues --   -0.46336  -0.45487  -0.45446  -0.44779  -0.43390
 Alpha  occ. eigenvalues --   -0.37427  -0.36460
 Alpha virt. eigenvalues --    0.04929   0.11175   0.16389   0.21266   0.22995
 Alpha virt. eigenvalues --    0.24517   0.26718   0.27226   0.27634   0.28078
 Alpha virt. eigenvalues --    0.28708   0.30850   0.31653   0.31874   0.32317

 Mulliken charges:
               1
     1  C   -0.170671
     2  C   -0.218584
     3  C   -0.171495
     4  C    0.159361
     5  C   -0.171073
     6  C   -0.218421
     7  H    0.226069
     8  H    0.223811
     9  H    0.275452
    10  H    0.276080
    11  H    0.223964
    12  N    0.489160
    13  O   -0.460206
    14  O   -0.458119
    15  C   -0.296813
    16  C   -0.300810
    17  C   -0.479472
    18  H    0.150199
    19  H    0.146330
    20  H    0.150092
    21  H    0.144125
    22  H    0.166508
    23  H    0.148702
    24  H    0.171086
    25  C   -0.297585
    26  C   -0.299034
    27  C   -0.475140
    28  H    0.149630
    29  H    0.146486
    30  H    0.152945
    31  H    0.149682
    32  H    0.152422
    33  H    0.155679
    34  H    0.159638
 Sum of Mulliken charges =  -0.00000

 Dipole moment (field-independent basis, Debye):
    X=              0.1348    Y=              5.1173    Z=             -0.0756  Tot=              5.1197
 Quadrupole moment (field-independent basis, Debye-Ang):
   XX=            -96.4604   YY=            -94.0405   ZZ=            -90.6496
   XY=            -13.8050   XZ=              2.4243   YZ=              0.9806

 Normal termination of Gaussian 16 at Thu May  6 03:13:44 2021.
