 Gaussian 16, Revision A.03,
 Gaussian 16:  EM64L-G16RevA.03 25-Dec-2016

 -------------
 #p 6-31g* mp2
 -------------

 ------------------------------------------------------
 Input file generated by CHIRIPA (05-May-2021 14:53:15)
 ------------------------------------------------------
 Symbolic Z-matrix:
 Charge =  0 Multiplicity = 1

                         Standard orientation:
 ---------------------------------------------------------------------
 Center     Atomic      Atomic             Coordinates (Angstroms)
 Number     Number       Type             X           Y           Z
 ---------------------------------------------------------------------
      1          6           0        4.047342    0.785421    0.059694
      2          6           0        2.919994    1.587693    0.710412
      3          6           0        3.101830    3.097634    0.552907
      4          1           0        5.006615    1.088669    0.501033
      5          1           0        4.100109    1.039926   -1.007938
      6          1           0        2.868470    1.330719    1.776211
      7          1           0        1.963274    1.282362    0.267608
      8          1           0        3.131307    3.373710   -0.506109
      9          1           0        4.041647    3.422342    1.011066
     10          1           0        2.284821    3.651834    1.025367
     11          6           0        3.879682   -0.725673    0.208731
     12          6           0        5.007029   -1.527944   -0.441987
     13          6           0        4.825194   -3.037885   -0.284482
     14          1           0        3.826914   -0.980178    1.276363
     15          1           0        2.920408   -1.028921   -0.232608
     16          1           0        5.963750   -1.222614    0.000817
     17          1           0        5.058554   -1.270971   -1.507786
     18          1           0        3.885377   -3.362594   -0.742641
     19          1           0        4.795716   -3.313962    0.774534
     20          1           0        5.642203   -3.592086   -0.756942
     21          6           0       -1.283116    1.629367   -0.693198
     22          6           0       -2.618589    2.042696   -0.646370
     23          6           0       -3.631603    1.135596   -0.321530
     24          6           0       -3.271804   -0.183116   -0.047975
     25          6           0       -1.950364   -0.625391   -0.086420
     26          6           0       -0.953847    0.298988   -0.413567
     27          1           0       -0.502591    2.340736   -0.946437
     28          1           0       -2.877240    3.075259   -0.863069
     29          1           0       -4.673531    1.428701   -0.278033
     30          1           0       -1.723459   -1.661306    0.134514
     31          1           0        0.082455   -0.024827   -0.449175
     32          7           0       -4.335504   -1.152570    0.297140
     33          8           0       -3.992407   -2.308780    0.533989
     34          8           0       -5.492188   -0.737859    0.324255
 ---------------------------------------------------------------------

 SCF Done:  E(RHF) =  -669.535331495     A.U. after   15 cycles
 E2 =    -0.2091711869D+01 EUMP2 =    -0.67162704336420D+03

 The electronic state is 1-A.
 Alpha  occ. eigenvalues --  -20.60740 -20.60735 -15.85793 -11.31158 -11.27728
 Alpha  occ. eigenvalues --  -11.27720 -11.27464 -11.26743 -11.26716 -11.22696
 Alpha  occ. eigenvalues --  -11.22309 -11.22267 -11.22220 -11.22076 -11.21596
 Alpha  occ. eigenvalues --   -1.59815  -1.39369  -1.19330  -1.09315  -1.08725
 Alpha  occ. eigenvalues --   -1.04735  -1.04366  -0.96799  -0.95560  -0.87814
 Alpha  occ. eigenvalues --   -0.86139  -0.82392  -0.80448  -0.79121  -0.77439
 Alpha  occ. eigenvalues --   -0.72012  -0.71138  -0.70441  -0.66002  -0.64982
 Alpha  occ. eigenvalues --   -0.64728  -0.62132  -0.61717  -0.60175  -0.58407
 Alpha  occ. eigenvalues --   -0.56087  -0.55226  -0.53491  -0.53217  -0.53061
 Alpha  occ. eigenvalues --   -0.52840  -0.50745  -0.48811  -0.48767  -0.48706
 Alpha  occ. eigenvalues --   -0.47483  -0.46645  -0.46556  -0.44775  -0.44625
 Alpha  occ. eigenvalues --   -0.37305  -0.36332
 Alpha virt. eigenvalues --    0.05093   0.11255   0.16583   0.18761   0.22645
 Alpha virt. eigenvalues --    0.23122   0.24386   0.26121   0.26593   0.28580
 Alpha virt. eigenvalues --    0.29118   0.30795   0.31005   0.31259   0.31474

 Mulliken charges:
               1
     1  C   -0.298858
     2  C   -0.303744
     3  C   -0.477490
     4  H    0.154002
     5  H    0.149633
     6  H    0.157665
     7  H    0.142792
     8  H    0.153765
     9  H    0.160749
    10  H    0.160426
    11  C   -0.299447
    12  C   -0.300304
    13  C   -0.476273
    14  H    0.152930
    15  H    0.142826
    16  H    0.154390
    17  H    0.152706
    18  H    0.154965
    19  H    0.156875
    20  H    0.162914
    21  C   -0.172814
    22  C   -0.218659
    23  C   -0.171110
    24  C    0.158668
    25  C   -0.171807
    26  C   -0.222772
    27  H    0.227010
    28  H    0.223357
    29  H    0.275509
    30  H    0.275826
    31  H    0.229180
    32  N    0.488014
    33  O   -0.460407
    34  O   -0.460517
 Sum of Mulliken charges =  -0.00000

 Dipole moment (field-independent basis, Debye):
    X=              3.9821    Y=              3.4113    Z=             -1.1500  Tot=              5.3681
 Quadrupole moment (field-independent basis, Debye-Ang):
   XX=           -115.8756   YY=            -94.6990   ZZ=            -94.6252
   XY=            -14.8276   XZ=              4.9060   YZ=             -0.2218

 Normal termination of Gaussian 16 at Thu May  6 07:26:31 2021.
