 Gaussian 16, Revision A.03,
 Gaussian 16:  EM64L-G16RevA.03 25-Dec-2016

 -------------
 #p 6-31g* mp2
 -------------

 ------------------------------------------------------
 Input file generated by CHIRIPA (05-May-2021 14:53:16)
 ------------------------------------------------------
 Symbolic Z-matrix:
 Charge =  0 Multiplicity = 1

                         Standard orientation:
 ---------------------------------------------------------------------
 Center     Atomic      Atomic             Coordinates (Angstroms)
 Number     Number       Type             X           Y           Z
 ---------------------------------------------------------------------
      1          6           0        3.042893   -0.751028   -0.062476
      2          6           0        3.144729   -1.355866    1.338162
      3          6           0        3.186039   -2.884191    1.320529
      4          1           0        2.141606   -1.137927   -0.557385
      5          1           0        3.898734   -1.088713   -0.663226
      6          1           0        2.289686   -1.016030    1.936517
      7          1           0        4.045777   -0.967334    1.829865
      8          1           0        4.048020   -3.239675    0.746751
      9          1           0        2.281951   -3.288648    0.854008
     10          1           0        3.258882   -3.295532    2.332138
     11          6           0        3.000618    0.776041   -0.061320
     12          6           0        2.898782    1.380879   -1.461957
     13          6           0        2.857473    2.909204   -1.444324
     14          1           0        2.144778    1.113726    0.539430
     15          1           0        3.901906    1.162941    0.433589
     16          1           0        1.997735    0.992347   -1.953661
     17          1           0        3.753826    1.041043   -2.060312
     18          1           0        3.761560    3.313661   -0.977804
     19          1           0        1.995492    3.264688   -0.870546
     20          1           0        2.784629    3.320545   -2.455933
     21          6           0       -2.125874    1.855063    1.731555
     22          6           0       -0.985586    1.236239    1.208757
     23          6           0       -1.103779    0.201956    0.275569
     24          6           0       -2.383453   -0.190056   -0.114368
     25          6           0       -3.538573    0.406860    0.388303
     26          6           0       -3.396489    1.439132    1.320385
     27          1           0       -2.024780    2.657736    2.456049
     28          1           0        0.002460    1.557184    1.526254
     29          1           0       -0.237790   -0.294440   -0.145228
     30          1           0       -4.510126    0.065107    0.052585
     31          1           0       -4.283812    1.917903    1.724713
     32          7           0       -2.521226   -1.283940   -1.101707
     33          8           0       -3.659916   -1.610882   -1.429014
     34          8           0       -1.487913   -1.793670   -1.529579
 ---------------------------------------------------------------------

 SCF Done:  E(RHF) =  -669.535285001     A.U. after   15 cycles
 E2 =    -0.2093007584D+01 EUMP2 =    -0.67162829258480D+03

 The electronic state is 1-A.
 Alpha  occ. eigenvalues --  -20.60806 -20.60800 -15.85857 -11.31206 -11.27778
 Alpha  occ. eigenvalues --  -11.27764 -11.27515 -11.26790 -11.26766 -11.22111
 Alpha  occ. eigenvalues --  -11.22032 -11.22006 -11.21821 -11.21524 -11.21194
 Alpha  occ. eigenvalues --   -1.59879  -1.39434  -1.19380  -1.08952  -1.08776
 Alpha  occ. eigenvalues --   -1.04783  -1.03926  -0.96385  -0.95614  -0.87389
 Alpha  occ. eigenvalues --   -0.86184  -0.82455  -0.79996  -0.78765  -0.77506
 Alpha  occ. eigenvalues --   -0.72078  -0.71201  -0.70505  -0.65683  -0.65014
 Alpha  occ. eigenvalues --   -0.64801  -0.62086  -0.61322  -0.59743  -0.57986
 Alpha  occ. eigenvalues --   -0.55706  -0.55246  -0.53110  -0.53039  -0.52911
 Alpha  occ. eigenvalues --   -0.52772  -0.50314  -0.48835  -0.48832  -0.48297
 Alpha  occ. eigenvalues --   -0.47041  -0.46279  -0.46205  -0.44843  -0.44222
 Alpha  occ. eigenvalues --   -0.37359  -0.36381
 Alpha virt. eigenvalues --    0.05018   0.11248   0.16474   0.18347   0.22959
 Alpha virt. eigenvalues --    0.23768   0.24739   0.25456   0.27414   0.28412
 Alpha virt. eigenvalues --    0.30559   0.31075   0.31469   0.31576   0.31742

 Mulliken charges:
               1
     1  C   -0.307100
     2  C   -0.299536
     3  C   -0.477223
     4  H    0.157289
     5  H    0.155670
     6  H    0.145444
     7  H    0.152584
     8  H    0.156945
     9  H    0.162145
    10  H    0.160598
    11  C   -0.304030
    12  C   -0.301329
    13  C   -0.475535
    14  H    0.138495
    15  H    0.153227
    16  H    0.156160
    17  H    0.156535
    18  H    0.155585
    19  H    0.150622
    20  H    0.164156
    21  C   -0.170435
    22  C   -0.227227
    23  C   -0.178484
    24  C    0.157613
    25  C   -0.169858
    26  C   -0.218945
    27  H    0.226188
    28  H    0.229679
    29  H    0.285751
    30  H    0.275696
    31  H    0.223585
    32  N    0.487463
    33  O   -0.459980
    34  O   -0.461749
 Sum of Mulliken charges =  -0.00000

 Dipole moment (field-independent basis, Debye):
    X=              0.6069    Y=              3.7594    Z=              3.3661  Tot=              5.0825
 Quadrupole moment (field-independent basis, Debye-Ang):
   XX=            -90.3419   YY=            -97.8705   ZZ=            -96.2212
   XY=            -10.0573   XZ=             -9.1594   YZ=             -0.9200

 Normal termination of Gaussian 16 at Thu May  6 18:55:39 2021.
