 Gaussian 16, Revision A.03,
 Gaussian 16:  EM64L-G16RevA.03 25-Dec-2016

 -------------
 #p 6-31g* mp2
 -------------

 ------------------------------------------------------
 Input file generated by CHIRIPA (05-May-2021 14:51:10)
 ------------------------------------------------------
 Symbolic Z-matrix:
 Charge =  0 Multiplicity = 1

                         Standard orientation:
 ---------------------------------------------------------------------
 Center     Atomic      Atomic             Coordinates (Angstroms)
 Number     Number       Type             X           Y           Z
 ---------------------------------------------------------------------
      1          6           0        2.860871    0.959700    0.330779
      2          6           0        1.900853    1.822904   -0.488507
      3          6           0        0.989710    2.685791    0.385013
      4          1           0        2.280117    0.315802    1.005365
      5          1           0        3.473308    1.610476    0.970159
      6          1           0        1.291365    1.170790   -1.127168
      7          1           0        2.483953    2.464685   -1.161357
      8          1           0        1.582502    3.359782    1.011857
      9          1           0        0.383138    2.058536    1.046241
     10          1           0        0.311667    3.294731   -0.221048
     11          6           0        3.778276    0.091420   -0.528399
     12          6           0        4.738294   -0.771784    0.290887
     13          6           0        5.649438   -1.634671   -0.582633
     14          1           0        3.165840   -0.559356   -1.167779
     15          1           0        4.359030    0.735318   -1.202984
     16          1           0        4.155194   -1.413565    0.963738
     17          1           0        5.347783   -0.119670    0.929548
     18          1           0        6.256010   -1.007416   -1.243861
     19          1           0        5.056645   -2.308662   -1.209477
     20          1           0        6.327480   -2.243611    0.023428
     21          6           0       -3.890781   -0.443786   -0.401657
     22          6           0       -5.221547   -0.071069    0.252659
     23          6           0       -6.354572    0.088993   -0.761455
     24          1           0       -3.621502    0.328007   -1.135666
     25          1           0       -4.015938   -1.379619   -0.963749
     26          1           0       -5.093561    0.863054    0.814487
     27          1           0       -5.487593   -0.843742    0.985333
     28          1           0       -6.511091   -0.842817   -1.314477
     29          1           0       -6.114820    0.873676   -1.486293
     30          1           0       -7.296626    0.355452   -0.272173
     31          6           0       -2.748366   -0.607335    0.599277
     32          6           0       -1.417601   -0.980051   -0.055039
     33          6           0       -0.284575   -1.140113    0.959074
     34          1           0       -2.623210    0.328499    1.161369
     35          1           0       -3.017645   -1.379128    1.333286
     36          1           0       -1.151554   -0.207379   -0.787713
     37          1           0       -1.545586   -1.914173   -0.616868
     38          1           0       -0.524328   -1.924796    1.683914
     39          1           0       -0.128057   -0.208303    1.512097
     40          1           0        0.657478   -1.406571    0.469793
 ---------------------------------------------------------------------

 SCF Done:  E(RHF) =  -470.731872135     A.U. after   11 cycles
 E2 =    -0.1584687773D+01 EUMP2 =    -0.47231655990844D+03

 The electronic state is 1-A.
 Alpha  occ. eigenvalues --  -11.21678 -11.21622 -11.21573 -11.21564 -11.21449
 Alpha  occ. eigenvalues --  -11.21386 -11.21345 -11.21212 -11.21152 -11.21086
 Alpha  occ. eigenvalues --  -11.21074 -11.21051  -1.08496  -1.08368  -1.03631
 Alpha  occ. eigenvalues --   -1.03464  -0.96047  -0.95953  -0.87084  -0.86959
 Alpha  occ. eigenvalues --   -0.79717  -0.79523  -0.78317  -0.78154  -0.65326
 Alpha  occ. eigenvalues --   -0.64895  -0.61337  -0.60569  -0.59406  -0.59323
 Alpha  occ. eigenvalues --   -0.57696  -0.57526  -0.55405  -0.55167  -0.52765
 Alpha  occ. eigenvalues --   -0.52657  -0.52481  -0.52331  -0.50033  -0.49890
 Alpha  occ. eigenvalues --   -0.48023  -0.47808  -0.46952  -0.46430  -0.45876
 Alpha  occ. eigenvalues --   -0.45823  -0.45676  -0.45409  -0.43787  -0.43737
 Alpha virt. eigenvalues --    0.19858   0.22566   0.23611   0.25511   0.25682
 Alpha virt. eigenvalues --    0.26101   0.26485   0.27950   0.28088   0.29423
 Alpha virt. eigenvalues --    0.30543   0.30675   0.31874   0.31894   0.32619

 Mulliken charges:
               1
     1  C   -0.304535
     2  C   -0.301612
     3  C   -0.479722
     4  H    0.158362
     5  H    0.148726
     6  H    0.153829
     7  H    0.152033
     8  H    0.155535
     9  H    0.157996
    10  H    0.159645
    11  C   -0.299207
    12  C   -0.299797
    13  C   -0.475618
    14  H    0.148776
    15  H    0.149574
    16  H    0.151966
    17  H    0.152064
    18  H    0.155151
    19  H    0.154954
    20  H    0.160191
    21  C   -0.298403
    22  C   -0.299746
    23  C   -0.475746
    24  H    0.149936
    25  H    0.149555
    26  H    0.152192
    27  H    0.151949
    28  H    0.155173
    29  H    0.155272
    30  H    0.160362
    31  C   -0.298907
    32  C   -0.302624
    33  C   -0.482352
    34  H    0.149997
    35  H    0.149869
    36  H    0.154846
    37  H    0.152267
    38  H    0.155803
    39  H    0.159160
    40  H    0.163088
 Sum of Mulliken charges =  -0.00000

 Dipole moment (field-independent basis, Debye):
    X=             -0.0401    Y=             -0.0217    Z=              0.0211  Tot=              0.0503
 Quadrupole moment (field-independent basis, Debye-Ang):
   XX=            -85.7104   YY=            -83.8005   ZZ=            -85.3960
   XY=              1.3571   XZ=             -0.1939   YZ=             -0.3692

 Normal termination of Gaussian 16 at Wed May  5 18:10:56 2021.
