 Gaussian 16, Revision A.03,
 Gaussian 16:  EM64L-G16RevA.03 25-Dec-2016

 -------------
 #p 6-31g* mp2
 -------------

 ------------------------------------------------------
 Input file generated by CHIRIPA (05-May-2021 14:51:08)
 ------------------------------------------------------
 Symbolic Z-matrix:
 Charge =  0 Multiplicity = 1

                         Standard orientation:
 ---------------------------------------------------------------------
 Center     Atomic      Atomic             Coordinates (Angstroms)
 Number     Number       Type             X           Y           Z
 ---------------------------------------------------------------------
      1          6           0        3.935794   -0.254066   -0.374042
      2          6           0        4.988814    0.438929    0.491344
      3          6           0        6.224749    0.859240   -0.304644
      4          1           0        4.384632   -1.136559   -0.850166
      5          1           0        3.636965    0.421803   -1.187243
      6          1           0        5.284557   -0.237521    1.303481
      7          1           0        4.537364    1.319768    0.965615
      8          1           0        5.949689    1.553833   -1.104947
      9          1           0        6.701127   -0.012305   -0.765161
     10          1           0        6.964549    1.352631    0.333415
     11          6           0        2.694280   -0.680190    0.407488
     12          6           0        1.641261   -1.373185   -0.457898
     13          6           0        0.405326   -1.793495    0.338091
     14          1           0        2.993110   -1.356059    1.220690
     15          1           0        2.245442    0.202304    0.883612
     16          1           0        2.092711   -2.254023   -0.932169
     17          1           0        1.345518   -0.696734   -1.270035
     18          1           0       -0.071053   -0.921951    0.798607
     19          1           0        0.680385   -2.488088    1.138393
     20          1           0       -0.334475   -2.286886   -0.299969
     21          6           0       -3.379272   -0.207614    0.335454
     22          6           0       -3.888922   -1.322524   -0.578449
     23          6           0       -4.012103   -2.666293    0.140511
     24          1           0       -2.401955   -0.496510    0.745742
     25          1           0       -4.059935   -0.105215    1.191963
     26          1           0       -3.208257   -1.421857   -1.433694
     27          1           0       -4.865052   -1.030856   -0.986760
     28          1           0       -4.706953   -2.590111    0.983115
     29          1           0       -3.040745   -2.983333    0.533641
     30          1           0       -4.378045   -3.448990   -0.531301
     31          6           0       -3.250802    1.141870   -0.368900
     32          6           0       -2.741153    2.256780    0.545004
     33          6           0       -2.617972    3.600548   -0.173958
     34          1           0       -2.570139    1.039470   -1.225409
     35          1           0       -4.228119    1.430766   -0.779188
     36          1           0       -1.765023    1.965112    0.953313
     37          1           0       -3.421817    2.356113    1.400248
     38          1           0       -3.589330    3.917588   -0.567087
     39          1           0       -1.923121    3.524366   -1.016561
     40          1           0       -2.252029    4.383245    0.497854
 ---------------------------------------------------------------------

 SCF Done:  E(RHF) =  -470.733049945     A.U. after   11 cycles
 E2 =    -0.1583265275D+01 EUMP2 =    -0.47231631522046D+03

 The electronic state is 1-A.
 Alpha  occ. eigenvalues --  -11.21693 -11.21639 -11.21611 -11.21542 -11.21468
 Alpha  occ. eigenvalues --  -11.21405 -11.21350 -11.21242 -11.21185 -11.21100
 Alpha  occ. eigenvalues --  -11.21082 -11.21005  -1.08497  -1.08382  -1.03605
 Alpha  occ. eigenvalues --   -1.03493  -0.96057  -0.95940  -0.87082  -0.86953
 Alpha  occ. eigenvalues --   -0.79684  -0.79550  -0.78318  -0.78180  -0.65193
 Alpha  occ. eigenvalues --   -0.64975  -0.61024  -0.60897  -0.59414  -0.59296
 Alpha  occ. eigenvalues --   -0.57679  -0.57541  -0.55466  -0.55122  -0.52752
 Alpha  occ. eigenvalues --   -0.52644  -0.52507  -0.52340  -0.50108  -0.49791
 Alpha  occ. eigenvalues --   -0.47992  -0.47878  -0.46770  -0.46582  -0.45922
 Alpha  occ. eigenvalues --   -0.45789  -0.45710  -0.45449  -0.43834  -0.43741
 Alpha virt. eigenvalues --    0.20524   0.22969   0.23558   0.24734   0.25539
 Alpha virt. eigenvalues --    0.26768   0.26788   0.27673   0.27778   0.29365
 Alpha virt. eigenvalues --    0.30221   0.31473   0.31735   0.31878   0.32191

 Mulliken charges:
               1
     1  C   -0.298330
     2  C   -0.299718
     3  C   -0.475753
     4  H    0.149827
     5  H    0.149590
     6  H    0.152034
     7  H    0.152054
     8  H    0.155258
     9  H    0.155239
    10  H    0.160415
    11  C   -0.298688
    12  C   -0.299673
    13  C   -0.482290
    14  H    0.149849
    15  H    0.149700
    16  H    0.152454
    17  H    0.151835
    18  H    0.158503
    19  H    0.156088
    20  H    0.162849
    21  C   -0.305771
    22  C   -0.299165
    23  C   -0.478316
    24  H    0.159053
    25  H    0.148796
    26  H    0.151314
    27  H    0.151636
    28  H    0.155069
    29  H    0.157948
    30  H    0.159712
    31  C   -0.297979
    32  C   -0.299832
    33  C   -0.475627
    34  H    0.149065
    35  H    0.149527
    36  H    0.150647
    37  H    0.152239
    38  H    0.155433
    39  H    0.154892
    40  H    0.160116
 Sum of Mulliken charges =  -0.00000

 Dipole moment (field-independent basis, Debye):
    X=              0.0503    Y=             -0.0193    Z=              0.0139  Tot=              0.0556
 Quadrupole moment (field-independent basis, Debye-Ang):
   XX=            -84.6811   YY=            -85.1268   ZZ=            -85.0369
   XY=             -1.1551   XZ=              0.2754   YZ=              0.4066

 Normal termination of Gaussian 16 at Thu May  6 10:01:39 2021.
