 Gaussian 16, Revision A.03,
 Gaussian 16:  EM64L-G16RevA.03 25-Dec-2016

 -------------
 #p 6-31g* mp2
 -------------

 ------------------------------------------------------
 Input file generated by CHIRIPA (05-May-2021 14:57:23)
 ------------------------------------------------------
 Symbolic Z-matrix:
 Charge =  0 Multiplicity = 1

                         Standard orientation:
 ---------------------------------------------------------------------
 Center     Atomic      Atomic             Coordinates (Angstroms)
 Number     Number       Type             X           Y           Z
 ---------------------------------------------------------------------
      1          6           0        5.680424    1.125302    0.051304
      2          6           0        5.397387    0.225931    1.084524
      3          6           0        4.204274   -0.502787    1.084571
      4          6           0        3.312752   -0.306483    0.031033
      5          6           0        3.566133    0.582170   -1.012703
      6          6           0        4.765507    1.300243   -0.992172
      7          1           0        6.609695    1.687254    0.059261
      8          1           0        6.106071    0.088035    1.896187
      9          1           0        3.959906   -1.205591    1.871825
     10          1           0        2.840158    0.698185   -1.808266
     11          1           0        4.982671    1.998020   -1.795908
     12          7           0        2.046343   -1.072309    0.020190
     13          8           0        1.277394   -0.881258   -0.919414
     14          8           0        1.846660   -1.849114    0.951499
     15          6           0       -3.653473    2.669225    0.359070
     16          6           0       -4.664467    1.830379    0.839432
     17          6           0       -4.601708    0.449813    0.628129
     18          6           0       -3.508711   -0.060358   -0.070706
     19          6           0       -2.485714    0.749377   -0.561721
     20          6           0       -2.569234    2.127003   -0.338743
     21          1           0       -3.710289    3.740540    0.527749
     22          1           0       -5.507679    2.248696    1.381695
     23          1           0       -5.370516   -0.222560    0.989053
     24          1           0       -1.657577    0.303085   -1.098779
     25          1           0       -1.782629    2.776055   -0.712948
     26          7           0       -3.431281   -1.520344   -0.300582
     27          8           0       -2.457863   -1.945075   -0.919209
     28          8           0       -4.345476   -2.212307    0.142220
 ---------------------------------------------------------------------

 SCF Done:  E(RHF) =  -868.336972049     A.U. after   16 cycles
 E2 =    -0.2599655044D+01 EUMP2 =    -0.87093662709260D+03

 The electronic state is 1-A.
 Alpha  occ. eigenvalues --  -20.60797 -20.60752 -20.59623 -20.59527 -15.85833
 Alpha  occ. eigenvalues --  -15.84635 -11.31297 -11.30216 -11.27900 -11.27851
 Alpha  occ. eigenvalues --  -11.27626 -11.26921 -11.26898 -11.26888 -11.26719
 Alpha  occ. eigenvalues --  -11.26711 -11.25967 -11.25918  -1.59835  -1.58657
 Alpha  occ. eigenvalues --   -1.39392  -1.38196  -1.19475  -1.18444  -1.08846
 Alpha  occ. eigenvalues --   -1.07817  -1.04893  -1.03879  -0.95663  -0.94599
 Alpha  occ. eigenvalues --   -0.86285  -0.85270  -0.82498  -0.81425  -0.77536
 Alpha  occ. eigenvalues --   -0.76409  -0.72034  -0.71174  -0.70847  -0.70580
 Alpha  occ. eigenvalues --   -0.69988  -0.69558  -0.65126  -0.64892  -0.64097
 Alpha  occ. eigenvalues --   -0.63903  -0.62241  -0.61197  -0.55382  -0.54420
 Alpha  occ. eigenvalues --   -0.53217  -0.52985  -0.52212  -0.51976  -0.48782
 Alpha  occ. eigenvalues --   -0.48773  -0.47654  -0.47572  -0.44778  -0.43550
 Alpha  occ. eigenvalues --   -0.37459  -0.36503  -0.36476  -0.35496
 Alpha virt. eigenvalues --    0.04979   0.06121   0.11149   0.12152   0.16438
 Alpha virt. eigenvalues --    0.17537   0.21263   0.22225   0.27179   0.27907
 Alpha virt. eigenvalues --    0.28276   0.29217   0.30833   0.31712   0.32378

 Mulliken charges:
               1
     1  C   -0.171122
     2  C   -0.218436
     3  C   -0.170810
     4  C    0.158492
     5  C   -0.172187
     6  C   -0.218505
     7  H    0.225673
     8  H    0.224043
     9  H    0.277002
    10  H    0.273004
    11  H    0.222774
    12  N    0.488947
    13  O   -0.462544
    14  O   -0.453846
    15  C   -0.171470
    16  C   -0.219619
    17  C   -0.171197
    18  C    0.156860
    19  C   -0.173841
    20  C   -0.220924
    21  H    0.220996
    22  H    0.219723
    23  H    0.273592
    24  H    0.292915
    25  H    0.218564
    26  N    0.486690
    27  O   -0.447516
    28  O   -0.467257
 Sum of Mulliken charges =  -0.00000

 Dipole moment (field-independent basis, Debye):
    X=              4.5036    Y=              7.5784    Z=              0.8072  Tot=              8.8525
 Quadrupole moment (field-independent basis, Debye-Ang):
   XX=            -71.3309   YY=           -107.6573   ZZ=           -100.9323
   XY=            -10.2061   XZ=             -3.2791   YZ=             -2.9131

 Normal termination of Gaussian 16 at Fri May  7 09:27:50 2021.
