 Gaussian 16, Revision A.03,
 Gaussian 16:  EM64L-G16RevA.03 25-Dec-2016

 -------------
 #p 6-31g* mp2
 -------------

 ------------------------------------------------------
 Input file generated by CHIRIPA (05-May-2021 14:57:24)
 ------------------------------------------------------
 Symbolic Z-matrix:
 Charge =  0 Multiplicity = 1

                         Standard orientation:
 ---------------------------------------------------------------------
 Center     Atomic      Atomic             Coordinates (Angstroms)
 Number     Number       Type             X           Y           Z
 ---------------------------------------------------------------------
      1          6           0        2.792164    2.682812   -0.261364
      2          6           0        3.988340    2.194811   -0.797590
      3          6           0        4.342723    0.851980   -0.637068
      4          6           0        3.473499    0.021373    0.068503
      5          6           0        2.274812    0.477721    0.614565
      6          6           0        1.940719    1.824224    0.441762
      7          1           0        2.524752    3.727381   -0.390831
      8          1           0        4.651518    2.859306   -1.344113
      9          1           0        5.262667    0.447838   -1.041779
     10          1           0        1.634099   -0.208875    1.154465
     11          1           0        1.011114    2.200450    0.859295
     12          7           0        3.837929   -1.402165    0.244941
     13          8           0        3.054939   -2.113505    0.870688
     14          8           0        4.899658   -1.779640   -0.245855
     15          6           0       -5.033521    1.666982    0.168989
     16          6           0       -3.697702    1.832724    0.549307
     17          6           0       -2.791256    0.774164    0.438170
     18          6           0       -3.256813   -0.441895   -0.059573
     19          6           0       -4.581509   -0.638193   -0.446793
     20          6           0       -5.470389    0.434226   -0.326973
     21          1           0       -5.730847    2.494680    0.258695
     22          1           0       -3.355622    2.788974    0.934811
     23          1           0       -1.751629    0.874977    0.725276
     24          1           0       -4.892988   -1.603288   -0.827571
     25          1           0       -6.507229    0.302626   -0.623101
     26          7           0       -2.306497   -1.569881   -0.181823
     27          8           0       -2.741580   -2.631219   -0.623301
     28          8           0       -1.144551   -1.371300    0.166146
 ---------------------------------------------------------------------

 SCF Done:  E(RHF) =  -868.336719043     A.U. after   16 cycles
 E2 =    -0.2600037412D+01 EUMP2 =    -0.87093675645545D+03

 The electronic state is 1-A.
 Alpha  occ. eigenvalues --  -20.61060 -20.61036 -20.60043 -20.59983 -15.86112
 Alpha  occ. eigenvalues --  -15.85077 -11.31589 -11.30611 -11.28259 -11.28114
 Alpha  occ. eigenvalues --  -11.27900 -11.27291 -11.27246 -11.27169 -11.27150
 Alpha  occ. eigenvalues --  -11.27141 -11.26398 -11.26338  -1.60110  -1.59091
 Alpha  occ. eigenvalues --   -1.39668  -1.38634  -1.19762  -1.18852  -1.09126
 Alpha  occ. eigenvalues --   -1.08234  -1.05194  -1.04292  -0.95949  -0.95019
 Alpha  occ. eigenvalues --   -0.86582  -0.85690  -0.82791  -0.81859  -0.77837
 Alpha  occ. eigenvalues --   -0.76842  -0.72327  -0.71434  -0.71296  -0.70876
 Alpha  occ. eigenvalues --   -0.70416  -0.69973  -0.65420  -0.65202  -0.64517
 Alpha  occ. eigenvalues --   -0.64341  -0.62563  -0.61614  -0.55669  -0.54842
 Alpha  occ. eigenvalues --   -0.53497  -0.53298  -0.52607  -0.52404  -0.49078
 Alpha  occ. eigenvalues --   -0.49060  -0.48085  -0.48025  -0.45046  -0.44000
 Alpha  occ. eigenvalues --   -0.37727  -0.36881  -0.36796  -0.35889
 Alpha virt. eigenvalues --    0.04728   0.05701   0.10858   0.11749   0.16210
 Alpha virt. eigenvalues --    0.17059   0.19261   0.22023   0.24896   0.27270
 Alpha virt. eigenvalues --    0.28554   0.29173   0.30800   0.31148   0.32948

 Mulliken charges:
               1
     1  C   -0.170616
     2  C   -0.219590
     3  C   -0.170114
     4  C    0.156608
     5  C   -0.166099
     6  C   -0.220909
     7  H    0.221233
     8  H    0.221155
     9  H    0.274887
    10  H    0.289884
    11  H    0.211799
    12  N    0.487620
    13  O   -0.451937
    14  O   -0.464579
    15  C   -0.170701
    16  C   -0.218083
    17  C   -0.170600
    18  C    0.159785
    19  C   -0.170007
    20  C   -0.218121
    21  H    0.226493
    22  H    0.220506
    23  H    0.267280
    24  H    0.277803
    25  H    0.225229
    26  N    0.491149
    27  O   -0.455147
    28  O   -0.464928
 Sum of Mulliken charges =  -0.00000

 Dipole moment (field-independent basis, Debye):
    X=             -4.8592    Y=              8.6544    Z=             -0.2086  Tot=              9.9274
 Quadrupole moment (field-independent basis, Debye-Ang):
   XX=            -85.8046   YY=           -107.6435   ZZ=           -104.4418
   XY=              8.8592   XZ=             -4.1478   YZ=              0.5850

 Normal termination of Gaussian 16 at Thu May  6 14:41:14 2021.
