 Gaussian 16, Revision A.03,
 Gaussian 16:  EM64L-G16RevA.03 25-Dec-2016

 -------------
 #p 6-31g* mp2
 -------------

 ------------------------------------------------------
 Input file generated by CHIRIPA (05-May-2021 14:51:14)
 ------------------------------------------------------
 Symbolic Z-matrix:
 Charge =  0 Multiplicity = 1

                         Standard orientation:
 ---------------------------------------------------------------------
 Center     Atomic      Atomic             Coordinates (Angstroms)
 Number     Number       Type             X           Y           Z
 ---------------------------------------------------------------------
      1          6           0       -3.903889    0.772247   -0.162952
      2          6           0       -2.806720    1.705667   -0.675721
      3          6           0       -3.151629    3.183218   -0.486838
      4          1           0       -4.843718    1.000387   -0.684122
      5          1           0       -4.080036    0.975315    0.902473
      6          1           0       -2.631728    1.499948   -1.739523
      7          1           0       -1.869348    1.475150   -0.153408
      8          1           0       -3.306052    3.410336    0.572960
      9          1           0       -4.072764    3.435275   -1.022167
     10          1           0       -2.353703    3.832651   -0.860214
     11          6           0       -3.573692   -0.708167   -0.344809
     12          6           0       -4.670860   -1.641588    0.167961
     13          6           0       -4.325951   -3.119138   -0.020923
     14          1           0       -3.397544   -0.911236   -1.410234
     15          1           0       -2.633862   -0.936307    0.176361
     16          1           0       -5.608232   -1.411070   -0.354353
     17          1           0       -4.845852   -1.435868    1.231762
     18          1           0       -3.404816   -3.371196    0.514406
     19          1           0       -4.171528   -3.346257   -1.080721
     20          1           0       -5.123878   -3.768571    0.352453
     21          6           0        4.497835    0.053231    0.250410
     22          6           0        5.193248   -0.750182   -0.849097
     23          6           0        6.711479   -0.569257   -0.843146
     24          1           0        4.742199    1.117360    0.128500
     25          1           0        4.900342   -0.250034    1.226838
     26          1           0        4.788563   -0.446477   -1.823062
     27          1           0        4.947045   -1.812499   -0.724670
     28          1           0        7.133979   -0.890553    0.114383
     29          1           0        6.974597    0.483230   -0.990251
     30          1           0        7.188386   -1.152357   -1.637133
     31          6           0        2.979745   -0.117311    0.257351
     32          6           0        2.284333    0.686102    1.356857
     33          6           0        0.766101    0.505178    1.350907
     34          1           0        2.577238    0.185955   -0.719077
     35          1           0        2.735381   -1.181439    0.379261
     36          1           0        2.530535    1.748419    1.232430
     37          1           0        2.689017    0.382397    2.330823
     38          1           0        0.502983   -0.547311    1.498012
     39          1           0        0.343601    0.826473    0.393378
     40          1           0        0.289194    1.088278    2.144893
 ---------------------------------------------------------------------

 SCF Done:  E(RHF) =  -470.733261666     A.U. after   11 cycles
 E2 =    -0.1582640651D+01 EUMP2 =    -0.47231590231716D+03

 The electronic state is 1-A.
 Alpha  occ. eigenvalues --  -11.21649 -11.21616 -11.21555 -11.21497 -11.21430
 Alpha  occ. eigenvalues --  -11.21370 -11.21336 -11.21277 -11.21137 -11.21082
 Alpha  occ. eigenvalues --  -11.21038 -11.21023  -1.08460  -1.08365  -1.03569
 Alpha  occ. eigenvalues --   -1.03471  -0.96020  -0.95925  -0.87047  -0.86936
 Alpha  occ. eigenvalues --   -0.79670  -0.79507  -0.78283  -0.78163  -0.65105
 Alpha  occ. eigenvalues --   -0.64986  -0.61039  -0.60811  -0.59383  -0.59298
 Alpha  occ. eigenvalues --   -0.57628  -0.57537  -0.55343  -0.55183  -0.52727
 Alpha  occ. eigenvalues --   -0.52626  -0.52452  -0.52345  -0.50058  -0.49803
 Alpha  occ. eigenvalues --   -0.48031  -0.47802  -0.46785  -0.46435  -0.45894
 Alpha  occ. eigenvalues --   -0.45750  -0.45686  -0.45471  -0.43814  -0.43724
 Alpha virt. eigenvalues --    0.21920   0.22948   0.23878   0.24543   0.25521
 Alpha virt. eigenvalues --    0.26576   0.27095   0.27588   0.27990   0.29326
 Alpha virt. eigenvalues --    0.30157   0.31503   0.31706   0.31827   0.32222

 Mulliken charges:
               1
     1  C   -0.297267
     2  C   -0.309334
     3  C   -0.474976
     4  H    0.149210
     5  H    0.149308
     6  H    0.150831
     7  H    0.162475
     8  H    0.154982
     9  H    0.154916
    10  H    0.159531
    11  C   -0.299673
    12  C   -0.299592
    13  C   -0.475605
    14  H    0.149084
    15  H    0.151560
    16  H    0.151781
    17  H    0.151860
    18  H    0.155011
    19  H    0.155080
    20  H    0.160054
    21  C   -0.298344
    22  C   -0.299689
    23  C   -0.475728
    24  H    0.149711
    25  H    0.149559
    26  H    0.152022
    27  H    0.152006
    28  H    0.155194
    29  H    0.155204
    30  H    0.160328
    31  C   -0.298634
    32  C   -0.299625
    33  C   -0.481124
    34  H    0.149996
    35  H    0.149742
    36  H    0.152263
    37  H    0.152040
    38  H    0.155247
    39  H    0.160442
    40  H    0.160153
 Sum of Mulliken charges =  -0.00000

 Dipole moment (field-independent basis, Debye):
    X=              0.0450    Y=             -0.0049    Z=              0.0113  Tot=              0.0467
 Quadrupole moment (field-independent basis, Debye-Ang):
   XX=            -85.9535   YY=            -85.4555   ZZ=            -83.5641
   XY=              0.0381   XZ=              0.5675   YZ=             -0.5811

 Normal termination of Gaussian 16 at Wed May  5 20:00:58 2021.
