 Gaussian 16, Revision A.03,
 Gaussian 16:  EM64L-G16RevA.03 25-Dec-2016

 -------------
 #p 6-31g* mp2
 -------------

 ------------------------------------------------------
 Input file generated by CHIRIPA (05-May-2021 14:57:26)
 ------------------------------------------------------
 Symbolic Z-matrix:
 Charge =  0 Multiplicity = 1

                         Standard orientation:
 ---------------------------------------------------------------------
 Center     Atomic      Atomic             Coordinates (Angstroms)
 Number     Number       Type             X           Y           Z
 ---------------------------------------------------------------------
      1          6           0        1.986351    0.789303    1.065886
      2          6           0        2.009725    0.309726   -0.247879
      3          6           0        3.203908   -0.141485   -0.817865
      4          6           0        4.361270   -0.098760   -0.041992
      5          6           0        4.370224    0.373394    1.269603
      6          6           0        3.164597    0.819553    1.819107
      7          1           0        1.054236    1.137852    1.500710
      8          1           0        1.096215    0.285069   -0.835191
      9          1           0        3.250455   -0.517753   -1.832594
     10          1           0        5.296991    0.385707    1.830290
     11          1           0        3.149427    1.191475    2.839640
     12          7           0        5.631555   -0.573762   -0.634569
     13          8           0        6.637571   -0.525765    0.069893
     14          8           0        5.597137   -0.985072   -1.792272
     15          6           0       -3.042280    2.251760   -0.450641
     16          6           0       -4.355180    2.036676   -0.882560
     17          6           0       -4.979969    0.804356   -0.669079
     18          6           0       -4.259187   -0.195239   -0.017488
     19          6           0       -2.949961   -0.011573    0.424650
     20          6           0       -2.345089    1.228752    0.200438
     21          1           0       -2.564664    3.212165   -0.620645
     22          1           0       -4.899045    2.829339   -1.388464
     23          1           0       -5.995357    0.610822   -0.993039
     24          1           0       -2.433299   -0.820891    0.926129
     25          1           0       -1.325369    1.392956    0.536963
     26          7           0       -4.910080   -1.504079    0.214195
     27          8           0       -4.253549   -2.368554    0.790638
     28          8           0       -6.064456   -1.640689   -0.185043
 ---------------------------------------------------------------------

 SCF Done:  E(RHF) =  -868.336427026     A.U. after   16 cycles
 E2 =    -0.2599838461D+01 EUMP2 =    -0.87093626548702D+03

 The electronic state is 1-A.
 Alpha  occ. eigenvalues --  -20.61380 -20.61372 -20.61152 -20.61147 -15.86442
 Alpha  occ. eigenvalues --  -15.86210 -11.31963 -11.31718 -11.28640 -11.28536
 Alpha  occ. eigenvalues --  -11.28370 -11.28296 -11.28277 -11.28209 -11.27773
 Alpha  occ. eigenvalues --  -11.27545 -11.27414 -11.27368  -1.60452  -1.60224
 Alpha  occ. eigenvalues --   -1.40001  -1.39773  -1.20177  -1.19916  -1.09539
 Alpha  occ. eigenvalues --   -1.09317  -1.05623  -1.05330  -0.96338  -0.96124
 Alpha  occ. eigenvalues --   -0.87017  -0.86739  -0.83186  -0.82938  -0.78208
 Alpha  occ. eigenvalues --   -0.77931  -0.72655  -0.72428  -0.71779  -0.71547
 Alpha  occ. eigenvalues --   -0.71270  -0.71124  -0.65834  -0.65745  -0.65561
 Alpha  occ. eigenvalues --   -0.65296  -0.62982  -0.62649  -0.56135  -0.55923
 Alpha  occ. eigenvalues --   -0.53922  -0.53722  -0.53659  -0.53424  -0.49428
 Alpha  occ. eigenvalues --   -0.49400  -0.49199  -0.49171  -0.45372  -0.45146
 Alpha  occ. eigenvalues --   -0.38155  -0.37950  -0.37230  -0.36917
 Alpha virt. eigenvalues --    0.04362   0.04590   0.10383   0.10718   0.15749
 Alpha virt. eigenvalues --    0.16034   0.17479   0.21994   0.24567   0.26793
 Alpha virt. eigenvalues --    0.27556   0.28728   0.29861   0.31401   0.31659

 Mulliken charges:
               1
     1  C   -0.175223
     2  C   -0.220397
     3  C   -0.169653
     4  C    0.159381
     5  C   -0.170080
     6  C   -0.217379
     7  H    0.219102
     8  H    0.221822
     9  H    0.278025
    10  H    0.277714
    11  H    0.225441
    12  N    0.487900
    13  O   -0.458732
    14  O   -0.458675
    15  C   -0.171189
    16  C   -0.218368
    17  C   -0.169042
    18  C    0.159111
    19  C   -0.171946
    20  C   -0.225292
    21  H    0.227822
    22  H    0.226624
    23  H    0.278597
    24  H    0.276163
    25  H    0.217313
    26  N    0.488086
    27  O   -0.459198
    28  O   -0.457927
 Sum of Mulliken charges =  -0.00000

 Dipole moment (field-independent basis, Debye):
    X=             -2.2404    Y=              6.2304    Z=              1.1911  Tot=              6.7273
 Quadrupole moment (field-independent basis, Debye-Ang):
   XX=           -157.1965   YY=           -107.4355   ZZ=           -101.0614
   XY=            -13.6601   XZ=             17.5490   YZ=             -0.1307

 Normal termination of Gaussian 16 at Wed May  5 21:12:44 2021.
