 Gaussian 16, Revision A.03,
 Gaussian 16:  EM64L-G16RevA.03 25-Dec-2016

 -------------
 #p 6-31g* mp2
 -------------

 ------------------------------------------------------
 Input file generated by CHIRIPA (05-May-2021 14:55:23)
 ------------------------------------------------------
 Symbolic Z-matrix:
 Charge =  0 Multiplicity = 1

                         Standard orientation:
 ---------------------------------------------------------------------
 Center     Atomic      Atomic             Coordinates (Angstroms)
 Number     Number       Type             X           Y           Z
 ---------------------------------------------------------------------
      1          6           0       -1.728114    0.063069   -0.326128
      2          6           0       -2.423897    1.271053   -0.440933
      3          6           0       -3.810576    1.310966   -0.267509
      4          6           0       -4.472678    0.118651    0.021097
      5          6           0       -3.807630   -1.100542    0.141800
      6          6           0       -2.420980   -1.116794   -0.035640
      7          1           0       -0.650919    0.041253   -0.462408
      8          1           0       -1.888418    2.188903   -0.666455
      9          1           0       -4.374090    2.232341   -0.350811
     10          1           0       -4.368921   -1.999137    0.367405
     11          1           0       -1.883232   -2.056378    0.054104
     12          7           0       -5.940678    0.148380    0.206819
     13          8           0       -6.500775   -0.915866    0.460411
     14          8           0       -6.503403    1.235366    0.095279
     15          6           0        5.923674    0.359833    0.275926
     16          6           0        7.364838    0.030655   -0.114809
     17          6           0        8.370130    1.050935    0.420177
     18          1           0        5.668068    1.360162   -0.099512
     19          1           0        5.850159    0.408836    1.371184
     20          1           0        7.435311   -0.019077   -1.208965
     21          1           0        7.616979   -0.969085    0.261438
     22          1           0        8.329133    1.095457    1.513309
     23          1           0        8.146431    2.050862    0.034553
     24          1           0        9.394016    0.796315    0.129167
     25          6           0        4.907006   -0.651036   -0.251574
     26          6           0        3.465842   -0.321857    0.139161
     27          6           0        2.460550   -1.342138   -0.395825
     28          1           0        4.980520   -0.700039   -1.346832
     29          1           0        5.162611   -1.651364    0.123864
     30          1           0        3.213700    0.677882   -0.237086
     31          1           0        3.395370   -0.272126    1.233316
     32          1           0        2.684248   -2.342065   -0.010201
     33          1           0        2.501547   -1.386659   -1.488957
     34          1           0        1.436664   -1.087517   -0.104815
 ---------------------------------------------------------------------

 SCF Done:  E(RHF) =  -669.535512031     A.U. after   15 cycles
 E2 =    -0.2090653749D+01 EUMP2 =    -0.67162616577919D+03

 The electronic state is 1-A.
 Alpha  occ. eigenvalues --  -20.60729 -20.60724 -15.85783 -11.31142 -11.27713
 Alpha  occ. eigenvalues --  -11.27709 -11.27429 -11.26725 -11.26712 -11.22582
 Alpha  occ. eigenvalues --  -11.22328 -11.22147 -11.22110 -11.21985 -11.21499
 Alpha  occ. eigenvalues --   -1.59805  -1.39359  -1.19314  -1.09162  -1.08709
 Alpha  occ. eigenvalues --   -1.04718  -1.04301  -0.96766  -0.95546  -0.87786
 Alpha  occ. eigenvalues --   -0.86114  -0.82381  -0.80370  -0.78930  -0.77427
 Alpha  occ. eigenvalues --   -0.72001  -0.71128  -0.70446  -0.65784  -0.64967
 Alpha  occ. eigenvalues --   -0.64725  -0.62067  -0.61685  -0.60211  -0.58372
 Alpha  occ. eigenvalues --   -0.56034  -0.55256  -0.53449  -0.53164  -0.53045
 Alpha  occ. eigenvalues --   -0.52808  -0.50685  -0.48763  -0.48756  -0.48678
 Alpha  occ. eigenvalues --   -0.47383  -0.46483  -0.46376  -0.44765  -0.44549
 Alpha  occ. eigenvalues --   -0.37292  -0.36324
 Alpha virt. eigenvalues --    0.05107   0.11329   0.16592   0.19554   0.22379
 Alpha virt. eigenvalues --    0.23727   0.25918   0.25979   0.26801   0.27375
 Alpha virt. eigenvalues --    0.28573   0.30596   0.30681   0.31387   0.32096

 Mulliken charges:
               1
     1  C   -0.176912
     2  C   -0.219663
     3  C   -0.170754
     4  C    0.158264
     5  C   -0.170970
     6  C   -0.220981
     7  H    0.234895
     8  H    0.223734
     9  H    0.275376
    10  H    0.275515
    11  H    0.223551
    12  N    0.488031
    13  O   -0.460545
    14  O   -0.460553
    15  C   -0.298827
    16  C   -0.300209
    17  C   -0.476082
    18  H    0.149887
    19  H    0.150633
    20  H    0.152558
    21  H    0.152843
    22  H    0.155870
    23  H    0.155543
    24  H    0.161787
    25  C   -0.299086
    26  C   -0.299642
    27  C   -0.480831
    28  H    0.150732
    29  H    0.151578
    30  H    0.150524
    31  H    0.154642
    32  H    0.160604
    33  H    0.158442
    34  H    0.150047
 Sum of Mulliken charges =  -0.00000

 Dipole moment (field-independent basis, Debye):
    X=              5.4377    Y=             -0.1273    Z=             -0.6507  Tot=              5.4780
 Quadrupole moment (field-independent basis, Debye-Ang):
   XX=           -141.3866   YY=            -89.9521   ZZ=            -94.8789
   XY=              0.3807   XZ=              2.9034   YZ=             -1.7432

 Normal termination of Gaussian 16 at Thu May  6 14:16:20 2021.
