 Gaussian 16, Revision A.03,
 Gaussian 16:  EM64L-G16RevA.03 25-Dec-2016

 -------------
 #p 6-31g* mp2
 -------------

 ------------------------------------------------------
 Input file generated by CHIRIPA (05-May-2021 14:53:18)
 ------------------------------------------------------
 Symbolic Z-matrix:
 Charge =  0 Multiplicity = 1

                         Standard orientation:
 ---------------------------------------------------------------------
 Center     Atomic      Atomic             Coordinates (Angstroms)
 Number     Number       Type             X           Y           Z
 ---------------------------------------------------------------------
      1          6           0        3.851929    0.567869    0.188595
      2          6           0        3.256673    1.828738   -0.438992
      3          6           0        1.973388    2.285478    0.255531
      4          1           0        3.106875   -0.238700    0.152712
      5          1           0        4.056589    0.757276    1.251438
      6          1           0        3.054481    1.637450   -1.500662
      7          1           0        4.003298    2.632344   -0.401783
      8          1           0        2.163464    2.503540    1.311429
      9          1           0        1.209256    1.502994    0.206307
     10          1           0        1.564897    3.188292   -0.209144
     11          6           0        5.135182    0.098872   -0.494802
     12          6           0        5.730438   -1.161997    0.132785
     13          6           0        7.013723   -1.618737   -0.561738
     14          1           0        4.930522   -0.090536   -1.557644
     15          1           0        5.880236    0.905440   -0.458919
     16          1           0        4.983813   -1.965603    0.095577
     17          1           0        5.932630   -0.970710    1.194455
     18          1           0        7.777854   -0.836253   -0.512514
     19          1           0        6.823647   -1.836799   -1.617636
     20          1           0        7.422214   -2.521551   -0.097063
     21          6           0       -5.797350   -0.043391   -0.924197
     22          6           0       -5.250543   -1.310000   -0.693490
     23          6           0       -3.984352   -1.442221   -0.115714
     24          6           0       -3.289515   -0.281430    0.220524
     25          6           0       -3.807358    0.994466    0.003225
     26          6           0       -5.075286    1.102779   -0.575718
     27          1           0       -6.781633    0.050034   -1.373480
     28          1           0       -5.809035   -2.201873   -0.963109
     29          1           0       -3.537247   -2.410484    0.073974
     30          1           0       -3.226676    1.865174    0.282677
     31          1           0       -5.497450    2.087732   -0.753726
     32          7           0       -1.948135   -0.408750    0.832806
     33          8           0       -1.356203    0.629404    1.120014
     34          8           0       -1.514093   -1.544288    1.013912
 ---------------------------------------------------------------------

 SCF Done:  E(RHF) =  -669.536095098     A.U. after   15 cycles
 E2 =    -0.2090722156D+01 EUMP2 =    -0.67162681725437D+03

 The electronic state is 1-A.
 Alpha  occ. eigenvalues --  -20.60952 -20.60940 -15.85975 -11.31293 -11.27857
 Alpha  occ. eigenvalues --  -11.27850 -11.27594 -11.26863 -11.26852 -11.20877
 Alpha  occ. eigenvalues --  -11.20573 -11.20527 -11.20489 -11.20321 -11.19591
 Alpha  occ. eigenvalues --   -1.60011  -1.39565  -1.19461  -1.08868  -1.07511
 Alpha  occ. eigenvalues --   -1.04856  -1.02582  -0.95710  -0.95010  -0.86257
 Alpha  occ. eigenvalues --   -0.86020  -0.82541  -0.78661  -0.77596  -0.77293
 Alpha  occ. eigenvalues --   -0.72195  -0.71325  -0.70570  -0.65116  -0.64859
 Alpha  occ. eigenvalues --   -0.64148  -0.62203  -0.59982  -0.58429  -0.56622
 Alpha  occ. eigenvalues --   -0.55363  -0.54289  -0.53189  -0.52948  -0.51729
 Alpha  occ. eigenvalues --   -0.51417  -0.49098  -0.48957  -0.48794  -0.46952
 Alpha  occ. eigenvalues --   -0.45724  -0.45006  -0.44819  -0.44671  -0.42850
 Alpha  occ. eigenvalues --   -0.37441  -0.36457
 Alpha virt. eigenvalues --    0.04905   0.11198   0.16388   0.21333   0.23748
 Alpha virt. eigenvalues --    0.25299   0.27254   0.27573   0.28163   0.28436
 Alpha virt. eigenvalues --    0.29069   0.30893   0.32309   0.32493   0.32687

 Mulliken charges:
               1
     1  C   -0.298637
     2  C   -0.299348
     3  C   -0.481832
     4  H    0.156435
     5  H    0.149192
     6  H    0.147080
     7  H    0.146405
     8  H    0.153460
     9  H    0.179022
    10  H    0.150553
    11  C   -0.297550
    12  C   -0.299306
    13  C   -0.475186
    14  H    0.147212
    15  H    0.146974
    16  H    0.153508
    17  H    0.151629
    18  H    0.153695
    19  H    0.153801
    20  H    0.158649
    21  C   -0.170571
    22  C   -0.218605
    23  C   -0.170729
    24  C    0.157843
    25  C   -0.170810
    26  C   -0.218587
    27  H    0.225992
    28  H    0.223780
    29  H    0.275766
    30  H    0.276357
    31  H    0.223905
    32  N    0.488815
    33  O   -0.459472
    34  O   -0.459440
 Sum of Mulliken charges =  -0.00000

 Dipole moment (field-independent basis, Debye):
    X=             -5.0584    Y=              0.3480    Z=             -2.0751  Tot=              5.4786
 Quadrupole moment (field-independent basis, Debye-Ang):
   XX=            -65.9436   YY=            -90.3606   ZZ=            -96.4080
   XY=              0.6886   XZ=              7.3202   YZ=              1.2812

 Normal termination of Gaussian 16 at Thu May  6 06:01:38 2021.
