 Gaussian 16, Revision A.03,
 Gaussian 16:  EM64L-G16RevA.03 25-Dec-2016

 -------------
 #p 6-31g* mp2
 -------------

 ------------------------------------------------------
 Input file generated by CHIRIPA (05-May-2021 14:51:08)
 ------------------------------------------------------
 Symbolic Z-matrix:
 Charge =  0 Multiplicity = 1

                         Standard orientation:
 ---------------------------------------------------------------------
 Center     Atomic      Atomic             Coordinates (Angstroms)
 Number     Number       Type             X           Y           Z
 ---------------------------------------------------------------------
      1          6           0        3.045455    0.652455   -0.213326
      2          6           0        4.298214    1.157330    0.503390
      3          6           0        4.457896    2.675443    0.416046
      4          1           0        3.085647    0.958288   -1.267743
      5          1           0        2.161631    1.140587    0.220236
      6          1           0        5.179298    0.667354    0.069534
      7          1           0        4.255127    0.850095    1.556179
      8          1           0        3.597016    3.179911    0.866599
      9          1           0        4.526437    2.996131   -0.628493
     10          1           0        5.359786    3.014776    0.934994
     11          6           0        2.871993   -0.863289   -0.134841
     12          6           0        1.619234   -1.368163   -0.851557
     13          6           0        1.459552   -2.886276   -0.764213
     14          1           0        3.755818   -1.351420   -0.568403
     15          1           0        2.831802   -1.169121    0.919576
     16          1           0        1.662321   -1.060928   -1.904346
     17          1           0        0.738150   -0.878187   -0.417701
     18          1           0        1.391011   -3.206965    0.280326
     19          1           0        2.320433   -3.390744   -1.214766
     20          1           0        0.557662   -3.225609   -1.283161
     21          6           0       -3.350219    0.594747   -0.262632
     22          6           0       -3.291188    2.037462    0.240432
     23          6           0       -4.079162    3.004519   -0.643700
     24          1           0       -2.961314    0.554946   -1.289332
     25          1           0       -4.399998    0.274150   -0.313389
     26          1           0       -2.241753    2.354779    0.291543
     27          1           0       -3.680101    2.073802    1.266124
     28          1           0       -5.134219    2.715266   -0.685987
     29          1           0       -3.687699    2.997840   -1.666106
     30          1           0       -4.023457    4.030161   -0.265788
     31          6           0       -2.567230   -0.383914    0.610799
     32          6           0       -2.626260   -1.826628    0.107735
     33          6           0       -1.838286   -2.793686    0.991867
     34          1           0       -1.517451   -0.063316    0.661557
     35          1           0       -2.956134   -0.344113    1.637499
     36          1           0       -2.237348   -1.862968   -0.917956
     37          1           0       -3.675695   -2.143945    0.056625
     38          1           0       -2.229748   -2.787007    2.014273
     39          1           0       -0.783230   -2.504433    1.034154
     40          1           0       -1.893992   -3.819327    0.613955
 ---------------------------------------------------------------------

 SCF Done:  E(RHF) =  -470.732350305     A.U. after   11 cycles
 E2 =    -0.1584180045D+01 EUMP2 =    -0.47231653035020D+03

 The electronic state is 1-A.
 Alpha  occ. eigenvalues --  -11.21662 -11.21633 -11.21608 -11.21584 -11.21454
 Alpha  occ. eigenvalues --  -11.21414 -11.21395 -11.21353 -11.21096 -11.21072
 Alpha  occ. eigenvalues --  -11.21065 -11.20958  -1.08497  -1.08415  -1.03629
 Alpha  occ. eigenvalues --   -1.03465  -0.96091  -0.95893  -0.87111  -0.86903
 Alpha  occ. eigenvalues --   -0.79653  -0.79565  -0.78309  -0.78235  -0.65315
 Alpha  occ. eigenvalues --   -0.64915  -0.61340  -0.60623  -0.59385  -0.59296
 Alpha  occ. eigenvalues --   -0.57640  -0.57555  -0.55626  -0.54938  -0.52754
 Alpha  occ. eigenvalues --   -0.52592  -0.52450  -0.52372  -0.50212  -0.49622
 Alpha  occ. eigenvalues --   -0.48020  -0.47838  -0.46692  -0.46580  -0.45987
 Alpha  occ. eigenvalues --   -0.45792  -0.45758  -0.45490  -0.43839  -0.43754
 Alpha virt. eigenvalues --    0.19895   0.23214   0.23390   0.25130   0.25330
 Alpha virt. eigenvalues --    0.26537   0.26733   0.27801   0.28936   0.29331
 Alpha virt. eigenvalues --    0.29783   0.31091   0.31245   0.32054   0.32422

 Mulliken charges:
               1
     1  C   -0.298285
     2  C   -0.299705
     3  C   -0.475764
     4  H    0.149736
     5  H    0.148863
     6  H    0.152094
     7  H    0.152149
     8  H    0.155233
     9  H    0.155187
    10  H    0.160424
    11  C   -0.297773
    12  C   -0.308534
    13  C   -0.478217
    14  H    0.150070
    15  H    0.149594
    16  H    0.152362
    17  H    0.157540
    18  H    0.156117
    19  H    0.155853
    20  H    0.162883
    21  C   -0.298143
    22  C   -0.299638
    23  C   -0.475718
    24  H    0.149986
    25  H    0.149646
    26  H    0.151689
    27  H    0.151870
    28  H    0.155193
    29  H    0.155330
    30  H    0.160254
    31  C   -0.302170
    32  C   -0.300694
    33  C   -0.480071
    34  H    0.151515
    35  H    0.149868
    36  H    0.152508
    37  H    0.152081
    38  H    0.153889
    39  H    0.163092
    40  H    0.159686
 Sum of Mulliken charges =  -0.00000

 Dipole moment (field-independent basis, Debye):
    X=              0.0247    Y=             -0.0132    Z=             -0.0092  Tot=              0.0295
 Quadrupole moment (field-independent basis, Debye-Ang):
   XX=            -84.1502   YY=            -86.5646   ZZ=            -84.0153
   XY=              0.1935   XZ=             -1.1922   YZ=              0.4336

 Normal termination of Gaussian 16 at Wed May  5 22:54:57 2021.
