 Gaussian 16, Revision A.03,
 Gaussian 16:  EM64L-G16RevA.03 25-Dec-2016

 -------------
 #p 6-31g* mp2
 -------------

 ------------------------------------------------------
 Input file generated by CHIRIPA (05-May-2021 14:51:08)
 ------------------------------------------------------
 Symbolic Z-matrix:
 Charge =  0 Multiplicity = 1

                         Standard orientation:
 ---------------------------------------------------------------------
 Center     Atomic      Atomic             Coordinates (Angstroms)
 Number     Number       Type             X           Y           Z
 ---------------------------------------------------------------------
      1          6           0       -2.239089    1.157995    0.282526
      2          6           0       -1.827412    2.319022   -0.623301
      3          6           0       -0.554828    3.019070   -0.145538
      4          1           0       -2.386878    1.533161    1.304462
      5          1           0       -1.416366    0.431325    0.332256
      6          1           0       -2.651198    3.042611   -0.672411
      7          1           0       -1.680772    1.941082   -1.643239
      8          1           0        0.283222    2.315321   -0.113746
      9          1           0       -0.692718    3.423109    0.862599
     10          1           0       -0.278711    3.845754   -0.807515
     11          6           0       -3.509552    0.448183   -0.182038
     12          6           0       -3.921229   -0.712844    0.723789
     13          6           0       -5.193813   -1.412892    0.246026
     14          1           0       -4.332275    1.174852   -0.231768
     15          1           0       -3.361763    0.073017   -1.203974
     16          1           0       -4.067869   -0.334905    1.743727
     17          1           0       -3.097443   -1.436433    0.772899
     18          1           0       -5.055923   -1.816931   -0.762111
     19          1           0       -6.031863   -0.709143    0.214234
     20          1           0       -5.469930   -2.239577    0.908002
     21          6           0        2.515169   -1.470277   -0.146689
     22          6           0        1.003389   -1.325050   -0.323930
     23          6           0        0.298926   -2.668446   -0.515792
     24          1           0        2.933167   -1.983155   -1.023717
     25          1           0        2.715403   -2.117232    0.718615
     26          1           0        0.806076   -0.677440   -1.187808
     27          1           0        0.588968   -0.812288    0.553537
     28          1           0        0.466393   -3.318264    0.349247
     29          1           0        0.684735   -3.182650   -1.401991
     30          1           0       -0.780943   -2.541280   -0.640582
     31          6           0        3.233472   -0.135901    0.046201
     32          6           0        4.745253   -0.281128    0.223441
     33          6           0        5.449715    1.062269    0.415305
     34          1           0        3.033238    0.511054   -0.819102
     35          1           0        2.815473    0.376977    0.923230
     36          1           0        5.159673   -0.793891   -0.654024
     37          1           0        4.942564   -0.928738    1.087320
     38          1           0        5.063906    1.576472    1.301504
     39          1           0        5.282248    1.712086   -0.449735
     40          1           0        6.529583    0.935103    0.540094
 ---------------------------------------------------------------------

 SCF Done:  E(RHF) =  -470.733131216     A.U. after   11 cycles
 E2 =    -0.1584012283D+01 EUMP2 =    -0.47231714349829D+03

 The electronic state is 1-A.
 Alpha  occ. eigenvalues --  -11.21708 -11.21642 -11.21583 -11.21536 -11.21475
 Alpha  occ. eigenvalues --  -11.21414 -11.21341 -11.21241 -11.21187 -11.21087
 Alpha  occ. eigenvalues --  -11.21055 -11.20992  -1.08514  -1.08368  -1.03609
 Alpha  occ. eigenvalues --   -1.03480  -0.96053  -0.95923  -0.87068  -0.86941
 Alpha  occ. eigenvalues --   -0.79714  -0.79526  -0.78402  -0.78107  -0.65154
 Alpha  occ. eigenvalues --   -0.65008  -0.61002  -0.60884  -0.59424  -0.59294
 Alpha  occ. eigenvalues --   -0.57704  -0.57510  -0.55335  -0.55203  -0.52755
 Alpha  occ. eigenvalues --   -0.52622  -0.52484  -0.52345  -0.50004  -0.49867
 Alpha  occ. eigenvalues --   -0.48108  -0.47802  -0.46799  -0.46573  -0.46095
 Alpha  occ. eigenvalues --   -0.45786  -0.45709  -0.45214  -0.43850  -0.43729
 Alpha virt. eigenvalues --    0.20098   0.22431   0.23521   0.24444   0.25713
 Alpha virt. eigenvalues --    0.26327   0.26564   0.27308   0.28786   0.29404
 Alpha virt. eigenvalues --    0.30624   0.31065   0.31743   0.31928   0.32583

 Mulliken charges:
               1
     1  C   -0.308962
     2  C   -0.298538
     3  C   -0.478930
     4  H    0.148554
     5  H    0.161985
     6  H    0.151510
     7  H    0.151120
     8  H    0.158519
     9  H    0.154589
    10  H    0.159710
    11  C   -0.297367
    12  C   -0.302522
    13  C   -0.475510
    14  H    0.149352
    15  H    0.149013
    16  H    0.151963
    17  H    0.153661
    18  H    0.155004
    19  H    0.155254
    20  H    0.160210
    21  C   -0.297318
    22  C   -0.305181
    23  C   -0.479051
    24  H    0.149885
    25  H    0.149893
    26  H    0.152557
    27  H    0.155700
    28  H    0.155978
    29  H    0.155992
    30  H    0.162156
    31  C   -0.299948
    32  C   -0.299751
    33  C   -0.475806
    34  H    0.150155
    35  H    0.150652
    36  H    0.152061
    37  H    0.152102
    38  H    0.155530
    39  H    0.155429
    40  H    0.160349
 Sum of Mulliken charges =  -0.00000

 Dipole moment (field-independent basis, Debye):
    X=              0.0665    Y=             -0.0392    Z=              0.0089  Tot=              0.0777
 Quadrupole moment (field-independent basis, Debye-Ang):
   XX=            -85.7408   YY=            -85.5978   ZZ=            -83.4894
   XY=             -1.4563   XZ=             -0.7479   YZ=              0.0325

 Normal termination of Gaussian 16 at Thu May  6 14:52:16 2021.
