 Gaussian 16, Revision A.03,
 Gaussian 16:  EM64L-G16RevA.03 25-Dec-2016

 -------------
 #p 6-31g* mp2
 -------------

 ------------------------------------------------------
 Input file generated by CHIRIPA (05-May-2021 14:57:25)
 ------------------------------------------------------
 Symbolic Z-matrix:
 Charge =  0 Multiplicity = 1

                         Standard orientation:
 ---------------------------------------------------------------------
 Center     Atomic      Atomic             Coordinates (Angstroms)
 Number     Number       Type             X           Y           Z
 ---------------------------------------------------------------------
      1          6           0        2.676165    2.466911    0.129136
      2          6           0        2.254055    1.654157    1.186384
      3          6           0        2.419863    0.267295    1.125796
      4          6           0        3.014299   -0.275711   -0.012220
      5          6           0        3.445228    0.507495   -1.081883
      6          6           0        3.269359    1.892000   -0.999633
      7          1           0        2.543454    3.543343    0.184615
      8          1           0        1.793057    2.097885    2.064240
      9          1           0        2.102230   -0.385349    1.929900
     10          1           0        3.901438    0.036130   -1.943918
     11          1           0        3.598134    2.520739   -1.822214
     12          7           0        3.195158   -1.742671   -0.087827
     13          8           0        3.721672   -2.196547   -1.101443
     14          8           0        2.806977   -2.410822    0.867958
     15          6           0       -2.367692    2.480145    0.039170
     16          6           0       -1.487893    1.527853    0.564158
     17          6           0       -1.819238    0.169734    0.547632
     18          6           0       -3.044121   -0.202552   -0.004051
     19          6           0       -3.941913    0.722395   -0.534835
     20          6           0       -3.589740    2.075092   -0.507687
     21          1           0       -2.102206    3.533057    0.056133
     22          1           0       -0.538157    1.839530    0.989487
     23          1           0       -1.156856   -0.588537    0.947246
     24          1           0       -4.881516    0.381218   -0.952161
     25          1           0       -4.274966    2.812449   -0.916115
     26          7           0       -3.405926   -1.637461   -0.027169
     27          8           0       -4.491077   -1.939711   -0.518828
     28          8           0       -2.597506   -2.432723    0.446807
 ---------------------------------------------------------------------

 SCF Done:  E(RHF) =  -868.335723477     A.U. after   16 cycles
 E2 =    -0.2601986342D+01 EUMP2 =    -0.87093770981933D+03

 The electronic state is 1-A.
 Alpha  occ. eigenvalues --  -20.61148 -20.61139 -20.60704 -20.60681 -15.86212
 Alpha  occ. eigenvalues --  -15.85752 -11.31898 -11.31272 -11.28566 -11.28460
 Alpha  occ. eigenvalues --  -11.28340 -11.27848 -11.27842 -11.27675 -11.27667
 Alpha  occ. eigenvalues --  -11.27525 -11.26918 -11.26866  -1.60214  -1.59770
 Alpha  occ. eigenvalues --   -1.39760  -1.39318  -1.20119  -1.19458  -1.09455
 Alpha  occ. eigenvalues --   -1.08838  -1.05585  -1.04878  -0.96226  -0.95645
 Alpha  occ. eigenvalues --   -0.86971  -0.86276  -0.83067  -0.82468  -0.78058
 Alpha  occ. eigenvalues --   -0.77480  -0.72422  -0.71965  -0.71543  -0.71210
 Alpha  occ. eigenvalues --   -0.71098  -0.70596  -0.65766  -0.65664  -0.65113
 Alpha  occ. eigenvalues --   -0.64865  -0.62935  -0.62211  -0.56060  -0.55437
 Alpha  occ. eigenvalues --   -0.53948  -0.53684  -0.53197  -0.52859  -0.49206
 Alpha  occ. eigenvalues --   -0.49160  -0.48741  -0.48713  -0.45093  -0.44689
 Alpha  occ. eigenvalues --   -0.38110  -0.37468  -0.37195  -0.36446
 Alpha virt. eigenvalues --    0.04479   0.05051   0.10253   0.11187   0.15828
 Alpha virt. eigenvalues --    0.16495   0.19712   0.21937   0.25551   0.26791
 Alpha virt. eigenvalues --    0.28278   0.28808   0.29490   0.31322   0.31729

 Mulliken charges:
               1
     1  C   -0.171025
     2  C   -0.229690
     3  C   -0.174390
     4  C    0.161206
     5  C   -0.168097
     6  C   -0.217105
     7  H    0.225363
     8  H    0.221600
     9  H    0.278469
    10  H    0.279513
    11  H    0.226327
    12  N    0.488165
    13  O   -0.457086
    14  O   -0.456141
    15  C   -0.173789
    16  C   -0.217882
    17  C   -0.175201
    18  C    0.159330
    19  C   -0.171063
    20  C   -0.218180
    21  H    0.221353
    22  H    0.221383
    23  H    0.276947
    24  H    0.276259
    25  H    0.222931
    26  N    0.487690
    27  O   -0.460765
    28  O   -0.456121
 Sum of Mulliken charges =  -0.00000

 Dipole moment (field-independent basis, Debye):
    X=              0.8914    Y=              9.9702    Z=              0.1911  Tot=             10.0118
 Quadrupole moment (field-independent basis, Debye-Ang):
   XX=           -111.7794   YY=           -110.7192   ZZ=           -100.5745
   XY=             -0.7298   XZ=              0.3081   YZ=             -1.5412

 Normal termination of Gaussian 16 at Fri May  7 01:56:32 2021.
