 Gaussian 16, Revision A.03,
 Gaussian 16:  EM64L-G16RevA.03 25-Dec-2016

 -------------
 #p 6-31g* mp2
 -------------

 ------------------------------------------------------
 Input file generated by CHIRIPA (05-May-2021 14:53:17)
 ------------------------------------------------------
 Symbolic Z-matrix:
 Charge =  0 Multiplicity = 1

                         Standard orientation:
 ---------------------------------------------------------------------
 Center     Atomic      Atomic             Coordinates (Angstroms)
 Number     Number       Type             X           Y           Z
 ---------------------------------------------------------------------
      1          6           0       -5.376050   -0.152928    0.465882
      2          6           0       -6.806404   -0.200816   -0.072430
      3          6           0       -7.736195   -1.050294    0.794559
      4          1           0       -4.982412   -1.176299    0.534479
      5          1           0       -5.390169    0.245816    1.489698
      6          1           0       -6.789444   -0.598056   -1.095430
      7          1           0       -7.196615    0.822803   -0.139934
      8          1           0       -7.782830   -0.652659    1.813535
      9          1           0       -7.373346   -2.081590    0.852610
     10          1           0       -8.753529   -1.070766    0.391481
     11          6           0       -4.434598    0.692480   -0.390086
     12          6           0       -3.004245    0.740369    0.148226
     13          6           0       -2.074454    1.589847   -0.718763
     14          1           0       -4.420480    0.293736   -1.413902
     15          1           0       -4.828236    1.715852   -0.458682
     16          1           0       -2.614034   -0.283250    0.215730
     17          1           0       -3.021204    1.137609    1.171226
     18          1           0       -2.437302    2.621143   -0.776814
     19          1           0       -2.027818    1.192211   -1.737739
     20          1           0       -1.057120    1.610319   -0.315684
     21          6           0        6.141190    0.482170    0.715188
     22          6           0        5.135331    1.442980    0.568174
     23          6           0        3.852380    1.070461    0.156084
     24          6           0        3.609068   -0.277753   -0.101612
     25          6           0        4.590179   -1.258502    0.035661
     26          6           0        5.865890   -0.863131    0.448932
     27          1           0        7.135005    0.780428    1.035769
     28          1           0        5.346267    2.488486    0.774251
     29          1           0        3.055102    1.793577    0.034151
     30          1           0        4.349718   -2.293057   -0.177155
     31          1           0        6.645106   -1.611479    0.562255
     32          7           0        2.254698   -0.684217   -0.538498
     33          8           0        2.065827   -1.878460   -0.759291
     34          8           0        1.407661    0.199135   -0.651865
 ---------------------------------------------------------------------

 SCF Done:  E(RHF) =  -669.535907787     A.U. after   15 cycles
 E2 =    -0.2090610466D+01 EUMP2 =    -0.67162651825349D+03

 The electronic state is 1-A.
 Alpha  occ. eigenvalues --  -20.60901 -20.60894 -15.85946 -11.31276 -11.27842
 Alpha  occ. eigenvalues --  -11.27838 -11.27581 -11.26852 -11.26843 -11.20974
 Alpha  occ. eigenvalues --  -11.20612 -11.20545 -11.20442 -11.20368 -11.19550
 Alpha  occ. eigenvalues --   -1.59968  -1.39524  -1.19447  -1.08848  -1.07546
 Alpha  occ. eigenvalues --   -1.04845  -1.02576  -0.95691  -0.95015  -0.86246
 Alpha  occ. eigenvalues --   -0.86038  -0.82523  -0.78676  -0.77574  -0.77334
 Alpha  occ. eigenvalues --   -0.72173  -0.71285  -0.70556  -0.65103  -0.64848
 Alpha  occ. eigenvalues --   -0.64184  -0.62193  -0.59977  -0.58418  -0.56602
 Alpha  occ. eigenvalues --   -0.55349  -0.54318  -0.53176  -0.52938  -0.51674
 Alpha  occ. eigenvalues --   -0.51451  -0.49028  -0.48919  -0.48866  -0.46974
 Alpha  occ. eigenvalues --   -0.45729  -0.44939  -0.44870  -0.44788  -0.42814
 Alpha  occ. eigenvalues --   -0.37426  -0.36447
 Alpha virt. eigenvalues --    0.04953   0.11207   0.16443   0.21312   0.23699
 Alpha virt. eigenvalues --    0.25286   0.27236   0.27494   0.28023   0.28361
 Alpha virt. eigenvalues --    0.29067   0.30817   0.32154   0.32317   0.32596

 Mulliken charges:
               1
     1  C   -0.297717
     2  C   -0.298979
     3  C   -0.475249
     4  H    0.150359
     5  H    0.147323
     6  H    0.151672
     7  H    0.150347
     8  H    0.153950
     9  H    0.155060
    10  H    0.158313
    11  C   -0.297615
    12  C   -0.299831
    13  C   -0.477998
    14  H    0.149484
    15  H    0.146097
    16  H    0.158366
    17  H    0.145774
    18  H    0.143734
    19  H    0.156514
    20  H    0.177977
    21  C   -0.170664
    22  C   -0.218519
    23  C   -0.170631
    24  C    0.157579
    25  C   -0.170685
    26  C   -0.218563
    27  H    0.225924
    28  H    0.223804
    29  H    0.275524
    30  H    0.275804
    31  H    0.223741
    32  N    0.494066
    33  O   -0.459528
    34  O   -0.465435
 Sum of Mulliken charges =  -0.00000

 Dipole moment (field-independent basis, Debye):
    X=              5.1032    Y=              1.3565    Z=              1.5120  Tot=              5.4926
 Quadrupole moment (field-independent basis, Debye-Ang):
   XX=            -62.2589   YY=            -90.9521   ZZ=            -96.0129
   XY=              1.9172   XZ=              5.5418   YZ=              0.5509

 Normal termination of Gaussian 16 at Wed May  5 20:22:54 2021.
