 Gaussian 16, Revision A.03,
 Gaussian 16:  EM64L-G16RevA.03 25-Dec-2016

 -------------
 #p 6-31g* mp2
 -------------

 ------------------------------------------------------
 Input file generated by CHIRIPA (05-May-2021 14:53:16)
 ------------------------------------------------------
 Symbolic Z-matrix:
 Charge =  0 Multiplicity = 1

                         Standard orientation:
 ---------------------------------------------------------------------
 Center     Atomic      Atomic             Coordinates (Angstroms)
 Number     Number       Type             X           Y           Z
 ---------------------------------------------------------------------
      1          6           0       -4.030842   -0.001284    0.003164
      2          6           0       -3.043722   -0.132318    1.163512
      3          6           0       -1.586499   -0.149355    0.700904
      4          1           0       -3.876597   -0.833797   -0.696890
      5          1           0       -3.811156    0.920151   -0.553694
      6          1           0       -3.266083   -1.052525    1.718842
      7          1           0       -3.200463    0.700498    1.860983
      8          1           0       -1.341593    0.773443    0.165119
      9          1           0       -1.407585   -0.989541    0.022170
     10          1           0       -0.897955   -0.243685    1.546403
     11          6           0       -5.491667    0.017193    0.449680
     12          6           0       -6.478787    0.148228   -0.710668
     13          6           0       -7.936009    0.165265   -0.248060
     14          1           0       -5.711353   -0.904242    1.006538
     15          1           0       -5.645912    0.849706    1.149734
     16          1           0       -6.322045   -0.684588   -1.408139
     17          1           0       -6.256426    1.068435   -1.265998
     18          1           0       -8.114924    1.005450    0.430674
     19          1           0       -8.180916   -0.757533    0.287725
     20          1           0       -8.624554    0.259594   -1.093559
     21          6           0        6.158413    0.307660    0.388998
     22          6           0        5.627029   -0.980994    0.272719
     23          6           0        4.277230   -1.166814   -0.040429
     24          6           0        3.483967   -0.036559   -0.231600
     25          6           0        3.983949    1.260146   -0.122677
     26          6           0        5.336626    1.422153    0.191278
     27          1           0        7.208086    0.442761    0.632572
     28          1           0        6.262881   -1.848361    0.425732
     29          1           0        3.839865   -2.153166   -0.136563
     30          1           0        3.325245    2.105425   -0.280884
     31          1           0        5.746582    2.424122    0.280941
     32          7           0        2.053472   -0.220673   -0.563544
     33          8           0        1.375591    0.791423   -0.727174
     34          8           0        1.637218   -1.373592   -0.653803
 ---------------------------------------------------------------------

 SCF Done:  E(RHF) =  -669.535845515     A.U. after   15 cycles
 E2 =    -0.2091768399D+01 EUMP2 =    -0.67162761391343D+03

 The electronic state is 1-A.
 Alpha  occ. eigenvalues --  -20.60908 -20.60903 -15.85927 -11.31279 -11.27841
 Alpha  occ. eigenvalues --  -11.27837 -11.27581 -11.26851 -11.26842 -11.20860
 Alpha  occ. eigenvalues --  -11.20489 -11.20470 -11.20229 -11.20153 -11.18980
 Alpha  occ. eigenvalues --   -1.59950  -1.39510  -1.19445  -1.08844  -1.07377
 Alpha  occ. eigenvalues --   -1.04844  -1.02369  -0.95688  -0.94772  -0.86244
 Alpha  occ. eigenvalues --   -0.85778  -0.82517  -0.78471  -0.77567  -0.77131
 Alpha  occ. eigenvalues --   -0.72149  -0.71261  -0.70553  -0.65101  -0.64846
 Alpha  occ. eigenvalues --   -0.64022  -0.62191  -0.59771  -0.58262  -0.56395
 Alpha  occ. eigenvalues --   -0.55348  -0.54059  -0.53177  -0.52936  -0.51493
 Alpha  occ. eigenvalues --   -0.51234  -0.49003  -0.48881  -0.48598  -0.46684
 Alpha  occ. eigenvalues --   -0.45556  -0.44923  -0.44625  -0.44508  -0.42634
 Alpha  occ. eigenvalues --   -0.37423  -0.36446
 Alpha virt. eigenvalues --    0.04948   0.11209   0.16442   0.21342   0.23829
 Alpha virt. eigenvalues --    0.25501   0.27258   0.27667   0.28202   0.28484
 Alpha virt. eigenvalues --    0.29340   0.30914   0.32375   0.32666   0.32716

 Mulliken charges:
               1
     1  C   -0.296992
     2  C   -0.302217
     3  C   -0.471904
     4  H    0.150081
     5  H    0.149268
     6  H    0.145703
     7  H    0.144877
     8  H    0.167544
     9  H    0.166455
    10  H    0.148413
    11  C   -0.297105
    12  C   -0.298886
    13  C   -0.475077
    14  H    0.147493
    15  H    0.147217
    16  H    0.151552
    17  H    0.151201
    18  H    0.153856
    19  H    0.154069
    20  H    0.158159
    21  C   -0.170645
    22  C   -0.218582
    23  C   -0.170760
    24  C    0.159096
    25  C   -0.170800
    26  C   -0.218563
    27  H    0.225908
    28  H    0.223749
    29  H    0.275809
    30  H    0.275679
    31  H    0.223736
    32  N    0.489103
    33  O   -0.458144
    34  O   -0.459294
 Sum of Mulliken charges =  -0.00000

 Dipole moment (field-independent basis, Debye):
    X=              5.4438    Y=              0.6511    Z=              1.0199  Tot=              5.5767
 Quadrupole moment (field-independent basis, Debye-Ang):
   XX=            -62.9394   YY=            -88.7912   ZZ=            -96.5660
   XY=              1.5273   XZ=              3.6074   YZ=             -0.2750

 Normal termination of Gaussian 16 at Thu May  6 15:34:47 2021.
