 Gaussian 16, Revision A.03,
 Gaussian 16:  EM64L-G16RevA.03 25-Dec-2016

 -------------
 #p 6-31g* mp2
 -------------

 ------------------------------------------------------
 Input file generated by CHIRIPA (05-May-2021 14:57:23)
 ------------------------------------------------------
 Symbolic Z-matrix:
 Charge =  0 Multiplicity = 1

                         Standard orientation:
 ---------------------------------------------------------------------
 Center     Atomic      Atomic             Coordinates (Angstroms)
 Number     Number       Type             X           Y           Z
 ---------------------------------------------------------------------
      1          6           0        1.997199   -1.204517    0.226213
      2          6           0        2.832741   -1.491388   -0.858267
      3          6           0        4.107063   -0.922595   -0.942687
      4          6           0        4.515516   -0.067463    0.079665
      5          6           0        3.706221    0.237840    1.172882
      6          6           0        2.435833   -0.342339    1.236545
      7          1           0        1.008803   -1.650792    0.283731
      8          1           0        2.494735   -2.160608   -1.644359
      9          1           0        4.774362   -1.127486   -1.771029
     10          1           0        4.071005    0.908730    1.941164
     11          1           0        1.789083   -0.117750    2.079943
     12          7           0        5.862501    0.540720    0.001281
     13          8           0        6.198843    1.290902    0.914920
     14          8           0        6.556421    0.255715   -0.972313
     15          6           0       -1.841425    0.583921   -0.516762
     16          6           0       -2.274013   -0.675944   -0.089998
     17          6           0       -3.630225   -0.917907    0.148096
     18          6           0       -4.530576    0.127460   -0.051576
     19          6           0       -4.130569    1.393551   -0.476192
     20          6           0       -2.769447    1.612833   -0.708160
     21          1           0       -0.785979    0.763074   -0.699340
     22          1           0       -1.555542   -1.476883    0.059474
     23          1           0       -3.992468   -1.883673    0.478995
     24          1           0       -4.870423    2.172245   -0.616444
     25          1           0       -2.436360    2.592266   -1.039537
     26          7           0       -5.968937   -0.116691    0.197240
     27          8           0       -6.742182    0.820928    0.013942
     28          8           0       -6.295841   -1.241050    0.570850
 ---------------------------------------------------------------------

 SCF Done:  E(RHF) =  -868.336822545     A.U. after   16 cycles
 E2 =    -0.2599976408D+01 EUMP2 =    -0.87093679895283D+03

 The electronic state is 1-A.
 Alpha  occ. eigenvalues --  -20.61449 -20.61444 -20.61295 -20.61286 -15.86506
 Alpha  occ. eigenvalues --  -15.86354 -11.32062 -11.31841 -11.28611 -11.28606
 Alpha  occ. eigenvalues --  -11.28534 -11.28492 -11.28406 -11.28222 -11.27735
 Alpha  occ. eigenvalues --  -11.27723 -11.27620 -11.27420  -1.60520  -1.60367
 Alpha  occ. eigenvalues --   -1.40067  -1.39917  -1.20253  -1.20046  -1.09647
 Alpha  occ. eigenvalues --   -1.09421  -1.05662  -1.05479  -0.96447  -0.96223
 Alpha  occ. eigenvalues --   -0.87064  -0.86884  -0.83252  -0.83063  -0.78242
 Alpha  occ. eigenvalues --   -0.78090  -0.72720  -0.72571  -0.71845  -0.71693
 Alpha  occ. eigenvalues --   -0.71485  -0.71102  -0.65908  -0.65723  -0.65674
 Alpha  occ. eigenvalues --   -0.65490  -0.62983  -0.62834  -0.56268  -0.55977
 Alpha  occ. eigenvalues --   -0.53998  -0.53790  -0.53750  -0.53575  -0.49495
 Alpha  occ. eigenvalues --   -0.49464  -0.49339  -0.49315  -0.45429  -0.45295
 Alpha  occ. eigenvalues --   -0.38304  -0.38038  -0.37255  -0.37083
 Alpha virt. eigenvalues --    0.04231   0.04472   0.10365   0.10556   0.15540
 Alpha virt. eigenvalues --    0.15922   0.17910   0.21868   0.24481   0.26492
 Alpha virt. eigenvalues --    0.27478   0.28880   0.29461   0.31265   0.31796

 Mulliken charges:
               1
     1  C   -0.179882
     2  C   -0.219548
     3  C   -0.170373
     4  C    0.159790
     5  C   -0.170441
     6  C   -0.221474
     7  H    0.222879
     8  H    0.225884
     9  H    0.278478
    10  H    0.278485
    11  H    0.226444
    12  N    0.487741
    13  O   -0.458086
    14  O   -0.458006
    15  C   -0.174478
    16  C   -0.222874
    17  C   -0.170052
    18  C    0.158936
    19  C   -0.169619
    20  C   -0.218559
    21  H    0.227846
    22  H    0.215123
    23  H    0.276889
    24  H    0.278094
    25  H    0.226708
    26  N    0.487952
    27  O   -0.458303
    28  O   -0.459554
 Sum of Mulliken charges =  -0.00000

 Dipole moment (field-independent basis, Debye):
    X=              0.4244    Y=             -1.1377    Z=             -0.6213  Tot=              1.3640
 Quadrupole moment (field-independent basis, Debye-Ang):
   XX=           -192.5285   YY=            -99.2806   ZZ=           -101.4674
   XY=            -14.4460   XZ=              4.1270   YZ=              0.6548

 Normal termination of Gaussian 16 at Fri May  7 01:50:04 2021.
