 Gaussian 16, Revision A.03,
 Gaussian 16:  EM64L-G16RevA.03 25-Dec-2016

 -------------
 #p 6-31g* mp2
 -------------

 ------------------------------------------------------
 Input file generated by CHIRIPA (05-May-2021 14:55:24)
 ------------------------------------------------------
 Symbolic Z-matrix:
 Charge =  0 Multiplicity = 1

                         Standard orientation:
 ---------------------------------------------------------------------
 Center     Atomic      Atomic             Coordinates (Angstroms)
 Number     Number       Type             X           Y           Z
 ---------------------------------------------------------------------
      1          6           0        1.255617    2.143945   -0.164293
      2          6           0        1.153676    1.100411   -1.090125
      3          6           0        2.119812    0.090735   -1.131157
      4          6           0        3.179392    0.156141   -0.227663
      5          6           0        3.308719    1.182763    0.706475
      6          6           0        2.330918    2.181724    0.729476
      7          1           0        0.500569    2.924124   -0.139421
      8          1           0        0.319672    1.068503   -1.785441
      9          1           0        2.065388   -0.728674   -1.837574
     10          1           0        4.151564    1.187510    1.386921
     11          1           0        2.412654    2.990937    1.449573
     12          7           0        4.208372   -0.907086   -0.261558
     13          8           0        5.132181   -0.826616    0.545127
     14          8           0        4.071594   -1.800780   -1.094167
     15          6           0       -4.515749   -0.607368   -0.047453
     16          6           0       -5.493164    0.565067   -0.137105
     17          6           0       -6.815339    0.182853   -0.803108
     18          1           0       -4.321174   -0.992347   -1.057838
     19          1           0       -4.986780   -1.426275    0.513721
     20          1           0       -5.019913    1.382039   -0.696753
     21          1           0       -5.685285    0.947422    0.873593
     22          1           0       -7.312223   -0.615734   -0.242782
     23          1           0       -6.643070   -0.178647   -1.822050
     24          1           0       -7.499118    1.035745   -0.856782
     25          6           0       -3.189349   -0.240949    0.615969
     26          6           0       -2.211934   -1.413386    0.705620
     27          6           0       -0.889760   -1.031171    1.371624
     28          1           0       -2.718318    0.577957    0.054795
     29          1           0       -3.383924    0.144029    1.626353
     30          1           0       -2.019813   -1.795740   -0.305078
     31          1           0       -2.685186   -2.230358    1.265268
     32          1           0       -1.062028   -0.669670    2.390566
     33          1           0       -0.392875   -0.232584    0.811297
     34          1           0       -0.205981   -1.884063    1.425297
 ---------------------------------------------------------------------

 SCF Done:  E(RHF) =  -669.534701865     A.U. after   15 cycles
 E2 =    -0.2092738344D+01 EUMP2 =    -0.67162744020954D+03

 The electronic state is 1-A.
 Alpha  occ. eigenvalues --  -20.60804 -20.60799 -15.85859 -11.31252 -11.27821
 Alpha  occ. eigenvalues --  -11.27816 -11.27570 -11.26842 -11.26831 -11.22039
 Alpha  occ. eigenvalues --  -11.21919 -11.21860 -11.21786 -11.21436 -11.21095
 Alpha  occ. eigenvalues --   -1.59879  -1.39431  -1.19436  -1.08852  -1.08812
 Alpha  occ. eigenvalues --   -1.04846  -1.03862  -0.96301  -0.95651  -0.87317
 Alpha  occ. eigenvalues --   -0.86238  -0.82482  -0.79932  -0.78664  -0.77523
 Alpha  occ. eigenvalues --   -0.72077  -0.71201  -0.70534  -0.65487  -0.65086
 Alpha  occ. eigenvalues --   -0.64840  -0.62185  -0.61287  -0.59673  -0.57928
 Alpha  occ. eigenvalues --   -0.55699  -0.55336  -0.53360  -0.52948  -0.52925
 Alpha  occ. eigenvalues --   -0.52560  -0.50187  -0.48838  -0.48830  -0.48229
 Alpha  occ. eigenvalues --   -0.46967  -0.46189  -0.46143  -0.44830  -0.44136
 Alpha  occ. eigenvalues --   -0.37377  -0.36382
 Alpha virt. eigenvalues --    0.05005   0.11132   0.16469   0.20711   0.22665
 Alpha virt. eigenvalues --    0.24061   0.25921   0.26900   0.27688   0.27784
 Alpha virt. eigenvalues --    0.28425   0.30806   0.31254   0.31607   0.31819

 Mulliken charges:
               1
     1  C   -0.169806
     2  C   -0.223330
     3  C   -0.167212
     4  C    0.159495
     5  C   -0.170454
     6  C   -0.217097
     7  H    0.226528
     8  H    0.224303
     9  H    0.275990
    10  H    0.276043
    11  H    0.224038
    12  N    0.488013
    13  O   -0.460147
    14  O   -0.460258
    15  C   -0.298292
    16  C   -0.299315
    17  C   -0.475826
    18  H    0.149044
    19  H    0.151961
    20  H    0.148735
    21  H    0.152472
    22  H    0.156644
    23  H    0.155354
    24  H    0.160726
    25  C   -0.296170
    26  C   -0.299421
    27  C   -0.484445
    28  H    0.140018
    29  H    0.150621
    30  H    0.149067
    31  H    0.154100
    32  H    0.152986
    33  H    0.162784
    34  H    0.162850
 Sum of Mulliken charges =  -0.00000

 Dipole moment (field-independent basis, Debye):
    X=             -3.5618    Y=              3.7520    Z=              0.1345  Tot=              5.1751
 Quadrupole moment (field-independent basis, Debye-Ang):
   XX=           -117.8339   YY=            -93.0406   ZZ=            -91.7486
   XY=             12.7879   XZ=              2.5000   YZ=              0.8597

 Normal termination of Gaussian 16 at Wed May  5 22:23:44 2021.
