 Gaussian 16, Revision A.03,
 Gaussian 16:  EM64L-G16RevA.03 25-Dec-2016

 -------------
 #p 6-31g* mp2
 -------------

 ------------------------------------------------------
 Input file generated by CHIRIPA (05-May-2021 14:55:23)
 ------------------------------------------------------
 Symbolic Z-matrix:
 Charge =  0 Multiplicity = 1

                         Standard orientation:
 ---------------------------------------------------------------------
 Center     Atomic      Atomic             Coordinates (Angstroms)
 Number     Number       Type             X           Y           Z
 ---------------------------------------------------------------------
      1          6           0       -0.668957    2.681798   -0.058251
      2          6           0       -1.247538    2.167120   -1.223100
      3          6           0       -2.073774    1.040709   -1.167598
      4          6           0       -2.301040    0.451370    0.075109
      5          6           0       -1.739102    0.940569    1.253328
      6          6           0       -0.916150    2.067962    1.174072
      7          1           0       -0.028392    3.557203   -0.110593
      8          1           0       -1.057323    2.641776   -2.181518
      9          1           0       -2.534501    0.621449   -2.053809
     10          1           0       -1.947252    0.445732    2.194194
     11          1           0       -0.468159    2.465486    2.080341
     12          7           0       -3.174001   -0.741631    0.146440
     13          8           0       -3.358574   -1.242539    1.253535
     14          8           0       -3.657124   -1.153207   -0.906097
     15          6           0        2.211863   -1.261835    0.226669
     16          6           0        1.052372   -1.541034   -0.730209
     17          6           0       -0.038633   -2.407303   -0.100065
     18          1           0        2.644449   -2.216226    0.556747
     19          1           0        1.823633   -0.766486    1.127391
     20          1           0        1.442871   -2.034463   -1.629461
     21          1           0        0.622618   -0.585862   -1.058197
     22          1           0       -0.455688   -1.917573    0.785842
     23          1           0        0.369226   -3.374404    0.211332
     24          1           0       -0.857716   -2.594511   -0.801431
     25          6           0        3.310480   -0.397022   -0.388850
     26          6           0        4.469972   -0.117824    0.568027
     27          6           0        5.560975    0.748445   -0.062118
     28          1           0        3.698711   -0.892371   -1.289574
     29          1           0        2.877894    0.557369   -0.718929
     30          1           0        4.899725   -1.072995    0.896014
     31          1           0        4.079473    0.375606    1.467278
     32          1           0        5.153117    1.715547   -0.373515
     33          1           0        5.978031    0.258716   -0.948024
     34          1           0        6.380059    0.935654    0.639249
 ---------------------------------------------------------------------

 SCF Done:  E(RHF) =  -669.535463044     A.U. after   15 cycles
 E2 =    -0.2095257245D+01 EUMP2 =    -0.67163072028882D+03

 The electronic state is 1-A.
 Alpha  occ. eigenvalues --  -20.60897 -20.60892 -15.85903 -11.31281 -11.27865
 Alpha  occ. eigenvalues --  -11.27862 -11.27627 -11.26912 -11.26902 -11.21835
 Alpha  occ. eigenvalues --  -11.21544 -11.21408 -11.21359 -11.21348 -11.20652
 Alpha  occ. eigenvalues --   -1.59941  -1.39501  -1.19486  -1.08873  -1.08485
 Alpha  occ. eigenvalues --   -1.04893  -1.03542  -0.95992  -0.95702  -0.87006
 Alpha  occ. eigenvalues --   -0.86284  -0.82538  -0.79625  -0.78295  -0.77579
 Alpha  occ. eigenvalues --   -0.72146  -0.71282  -0.70587  -0.65150  -0.65123
 Alpha  occ. eigenvalues --   -0.64888  -0.62236  -0.60979  -0.59365  -0.57594
 Alpha  occ. eigenvalues --   -0.55417  -0.55313  -0.53135  -0.52977  -0.52644
 Alpha  occ. eigenvalues --   -0.52403  -0.49957  -0.48908  -0.48905  -0.47922
 Alpha  occ. eigenvalues --   -0.46695  -0.45833  -0.45774  -0.44818  -0.43779
 Alpha  occ. eigenvalues --   -0.37424  -0.36458
 Alpha virt. eigenvalues --    0.04919   0.11073   0.16406   0.21229   0.22706
 Alpha virt. eigenvalues --    0.24184   0.26451   0.26979   0.27557   0.27636
 Alpha virt. eigenvalues --    0.28441   0.30744   0.31244   0.31623   0.31907

 Mulliken charges:
               1
     1  C   -0.171366
     2  C   -0.218141
     3  C   -0.173009
     4  C    0.163682
     5  C   -0.173609
     6  C   -0.218065
     7  H    0.226264
     8  H    0.224448
     9  H    0.276232
    10  H    0.275961
    11  H    0.224128
    12  N    0.491869
    13  O   -0.458640
    14  O   -0.459627
    15  C   -0.296348
    16  C   -0.304130
    17  C   -0.487601
    18  H    0.150486
    19  H    0.146088
    20  H    0.150713
    21  H    0.153199
    22  H    0.155821
    23  H    0.157135
    24  H    0.169550
    25  C   -0.297432
    26  C   -0.299178
    27  C   -0.475158
    28  H    0.150181
    29  H    0.145146
    30  H    0.153754
    31  H    0.149007
    32  H    0.151793
    33  H    0.156340
    34  H    0.160508
 Sum of Mulliken charges =  -0.00000

 Dipole moment (field-independent basis, Debye):
    X=              2.9077    Y=              4.1868    Z=             -0.2598  Tot=              5.1040
 Quadrupole moment (field-independent basis, Debye-Ang):
   XX=           -110.1911   YY=            -91.0872   ZZ=            -89.9029
   XY=             -9.3170   XZ=              1.7427   YZ=              0.4163

 Normal termination of Gaussian 16 at Thu May  6 03:07:42 2021.
