 Gaussian 16, Revision A.03,
 Gaussian 16:  EM64L-G16RevA.03 25-Dec-2016

 -------------
 #p 6-31g* mp2
 -------------

 ------------------------------------------------------
 Input file generated by CHIRIPA (05-May-2021 14:51:11)
 ------------------------------------------------------
 Symbolic Z-matrix:
 Charge =  0 Multiplicity = 1

                         Standard orientation:
 ---------------------------------------------------------------------
 Center     Atomic      Atomic             Coordinates (Angstroms)
 Number     Number       Type             X           Y           Z
 ---------------------------------------------------------------------
      1          6           0       -2.224029   -0.780441    0.049155
      2          6           0       -2.161467   -2.056500    0.889242
      3          6           0       -0.835173   -2.801429    0.734913
      4          1           0       -2.066511   -1.036594   -1.007499
      5          1           0       -1.395242   -0.119038    0.337346
      6          1           0       -2.990940   -2.714702    0.600517
      7          1           0       -2.319343   -1.797303    1.943997
      8          1           0        0.001675   -2.165786    1.041904
      9          1           0       -0.673738   -3.088398   -0.309209
     10          1           0       -0.812023   -3.710426    1.344051
     11          6           0       -3.543826   -0.024647    0.192818
     12          6           0       -3.606388    1.251411   -0.647269
     13          6           0       -4.932682    1.996341   -0.492939
     14          1           0       -4.372613   -0.686050   -0.095373
     15          1           0       -3.701344    0.231506    1.249472
     16          1           0       -3.448512    0.992214   -1.702024
     17          1           0       -2.776915    1.909613   -0.358544
     18          1           0       -5.094117    2.283309    0.551182
     19          1           0       -5.769530    1.360698   -0.799931
     20          1           0       -4.955832    2.905337   -1.102078
     21          6           0        3.163618   -0.300451   -0.016095
     22          6           0        2.490378   -1.357791   -0.891747
     23          6           0        3.060741   -2.759053   -0.670518
     24          1           0        4.242651   -0.295476   -0.222511
     25          1           0        3.048685   -0.581608    1.039905
     26          1           0        2.605347   -1.074007   -1.945723
     27          1           0        1.412795   -1.360117   -0.683361
     28          1           0        2.932269   -3.067076    0.372180
     29          1           0        4.131598   -2.779339   -0.897354
     30          1           0        2.565165   -3.499228   -1.306447
     31          6           0        2.604237    1.105540   -0.225878
     32          6           0        3.277477    2.162879    0.649774
     33          6           0        2.707114    3.564143    0.428545
     34          1           0        2.719170    1.386698   -1.281878
     35          1           0        1.525204    1.100564   -0.019462
     36          1           0        4.355060    2.165207    0.441388
     37          1           0        3.162507    1.879096    1.703749
     38          1           0        1.636257    3.584428    0.655382
     39          1           0        2.835585    3.872165   -0.614153
     40          1           0        3.202690    4.304316    1.064474
 ---------------------------------------------------------------------

 SCF Done:  E(RHF) =  -470.732879566     A.U. after   11 cycles
 E2 =    -0.1583659448D+01 EUMP2 =    -0.47231653901391D+03

 The electronic state is 1-A.
 Alpha  occ. eigenvalues --  -11.21663 -11.21633 -11.21595 -11.21471 -11.21431
 Alpha  occ. eigenvalues --  -11.21406 -11.21374 -11.21305 -11.21119 -11.21093
 Alpha  occ. eigenvalues --  -11.21074 -11.20971  -1.08492  -1.08380  -1.03599
 Alpha  occ. eigenvalues --   -1.03457  -0.96049  -0.95916  -0.87052  -0.86946
 Alpha  occ. eigenvalues --   -0.79692  -0.79500  -0.78345  -0.78149  -0.65168
 Alpha  occ. eigenvalues --   -0.64986  -0.61052  -0.60845  -0.59415  -0.59283
 Alpha  occ. eigenvalues --   -0.57697  -0.57477  -0.55349  -0.55198  -0.52718
 Alpha  occ. eigenvalues --   -0.52622  -0.52450  -0.52349  -0.50000  -0.49848
 Alpha  occ. eigenvalues --   -0.48124  -0.47752  -0.46706  -0.46524  -0.46067
 Alpha  occ. eigenvalues --   -0.45775  -0.45705  -0.45335  -0.43835  -0.43730
 Alpha virt. eigenvalues --    0.20331   0.22984   0.23577   0.24454   0.25394
 Alpha virt. eigenvalues --    0.26602   0.26857   0.27520   0.28521   0.29727
 Alpha virt. eigenvalues --    0.30271   0.31420   0.31702   0.31979   0.32330

 Mulliken charges:
               1
     1  C   -0.300732
     2  C   -0.299994
     3  C   -0.478869
     4  H    0.150399
     5  H    0.150214
     6  H    0.152300
     7  H    0.151907
     8  H    0.158261
     9  H    0.156787
    10  H    0.160798
    11  C   -0.298272
    12  C   -0.299630
    13  C   -0.475771
    14  H    0.149888
    15  H    0.149706
    16  H    0.152259
    17  H    0.151832
    18  H    0.155181
    19  H    0.155238
    20  H    0.160499
    21  C   -0.298642
    22  C   -0.307121
    23  C   -0.475090
    24  H    0.149619
    25  H    0.148497
    26  H    0.151025
    27  H    0.160832
    28  H    0.155524
    29  H    0.154460
    30  H    0.159812
    31  C   -0.299570
    32  C   -0.299584
    33  C   -0.475543
    34  H    0.149857
    35  H    0.149959
    36  H    0.152139
    37  H    0.151601
    38  H    0.154663
    39  H    0.155340
    40  H    0.160224
 Sum of Mulliken charges =  -0.00000

 Dipole moment (field-independent basis, Debye):
    X=             -0.0549    Y=             -0.0253    Z=             -0.0022  Tot=              0.0605
 Quadrupole moment (field-independent basis, Debye-Ang):
   XX=            -85.1278   YY=            -86.0018   ZZ=            -83.6480
   XY=              1.2944   XZ=             -0.1817   YZ=              0.3187

 Normal termination of Gaussian 16 at Thu May  6 03:50:44 2021.
