 Gaussian 16, Revision A.03,
 Gaussian 16:  EM64L-G16RevA.03 25-Dec-2016

 -------------
 #p 6-31g* mp2
 -------------

 ------------------------------------------------------
 Input file generated by CHIRIPA (05-May-2021 14:57:26)
 ------------------------------------------------------
 Symbolic Z-matrix:
 Charge =  0 Multiplicity = 1

                         Standard orientation:
 ---------------------------------------------------------------------
 Center     Atomic      Atomic             Coordinates (Angstroms)
 Number     Number       Type             X           Y           Z
 ---------------------------------------------------------------------
      1          6           0       -2.265109   -2.262607    0.799461
      2          6           0       -3.405134   -1.823883    1.480920
      3          6           0       -4.058565   -0.651303    1.090238
      4          6           0       -3.542395    0.061154    0.008913
      5          6           0       -2.408586   -0.350058   -0.690138
      6          6           0       -1.771345   -1.525593   -0.281987
      7          1           0       -1.763796   -3.174643    1.109737
      8          1           0       -3.790838   -2.394236    2.321143
      9          1           0       -4.942921   -0.288805    1.600069
     10          1           0       -2.047701    0.239791   -1.523959
     11          1           0       -0.886174   -1.863916   -0.813076
     12          7           0       -4.225584    1.304076   -0.413932
     13          8           0       -3.750911    1.913776   -1.369750
     14          8           0       -5.222805    1.645044    0.218468
     15          6           0        3.858832    2.441720    0.870569
     16          6           0        2.797938    2.238264   -0.018041
     17          6           0        2.550883    0.969264   -0.550159
     18          6           0        3.388320   -0.078470   -0.170365
     19          6           0        4.453277    0.092451    0.712779
     20          6           0        4.681666    1.370054    1.232505
     21          1           0        4.043501    3.430853    1.279118
     22          1           0        2.157285    3.068684   -0.300900
     23          1           0        1.736598    0.783704   -1.240033
     24          1           0        5.074731   -0.754841    0.976046
     25          1           0        5.506307    1.525121    1.922407
     26          7           0        3.136655   -1.426458   -0.727135
     27          8           0        3.888942   -2.333062   -0.376749
     28          8           0        2.191876   -1.550884   -1.503376
 ---------------------------------------------------------------------

 SCF Done:  E(RHF) =  -868.340136964     A.U. after   16 cycles
 E2 =    -0.2598522035D+01 EUMP2 =    -0.87093865899978D+03

 The electronic state is 1-A.
 Alpha  occ. eigenvalues --  -20.61601 -20.61538 -20.60655 -20.60644 -15.86598
 Alpha  occ. eigenvalues --  -15.85696 -11.31689 -11.30910 -11.28232 -11.28214
 Alpha  occ. eigenvalues --  -11.27885 -11.27451 -11.27405 -11.27169 -11.27137
 Alpha  occ. eigenvalues --  -11.27068 -11.26444 -11.26226  -1.60631  -1.59731
 Alpha  occ. eigenvalues --   -1.40195  -1.39289  -1.19829  -1.19036  -1.09269
 Alpha  occ. eigenvalues --   -1.08448  -1.05188  -1.04398  -0.96153  -0.95321
 Alpha  occ. eigenvalues --   -0.86598  -0.85792  -0.82996  -0.82146  -0.78082
 Alpha  occ. eigenvalues --   -0.77225  -0.72827  -0.71938  -0.71915  -0.71053
 Alpha  occ. eigenvalues --   -0.70931  -0.70128  -0.65483  -0.65178  -0.64672
 Alpha  occ. eigenvalues --   -0.64343  -0.62543  -0.61729  -0.55686  -0.54872
 Alpha  occ. eigenvalues --   -0.53532  -0.53271  -0.52759  -0.52446  -0.49595
 Alpha  occ. eigenvalues --   -0.49548  -0.48685  -0.48655  -0.45651  -0.44729
 Alpha  occ. eigenvalues --   -0.37785  -0.37001  -0.36778  -0.36009
 Alpha virt. eigenvalues --    0.04397   0.05267   0.10877   0.11647   0.15930
 Alpha virt. eigenvalues --    0.16816   0.20754   0.22000   0.26232   0.27360
 Alpha virt. eigenvalues --    0.28535   0.28895   0.30789   0.31495   0.32593

 Mulliken charges:
               1
     1  C   -0.172437
     2  C   -0.218431
     3  C   -0.172799
     4  C    0.158605
     5  C   -0.175691
     6  C   -0.227354
     7  H    0.228730
     8  H    0.222245
     9  H    0.273760
    10  H    0.272013
    11  H    0.245282
    12  N    0.488048
    13  O   -0.463377
    14  O   -0.461244
    15  C   -0.169964
    16  C   -0.218234
    17  C   -0.170070
    18  C    0.157861
    19  C   -0.171027
    20  C   -0.218441
    21  H    0.228443
    22  H    0.228468
    23  H    0.271911
    24  H    0.275715
    25  H    0.225028
    26  N    0.489473
    27  O   -0.456723
    28  O   -0.469791
 Sum of Mulliken charges =  -0.00000

 Dipole moment (field-independent basis, Debye):
    X=              3.6158    Y=              0.3632    Z=              3.5222  Tot=              5.0608
 Quadrupole moment (field-independent basis, Debye-Ang):
   XX=           -111.3309   YY=           -106.0433   ZZ=           -102.5642
   XY=             31.3261   XZ=              1.0541   YZ=             -2.4004

 Normal termination of Gaussian 16 at Thu May  6 06:45:39 2021.
