 Gaussian 16, Revision A.03,
 Gaussian 16:  EM64L-G16RevA.03 25-Dec-2016

 -------------
 #p 6-31g* mp2
 -------------

 ------------------------------------------------------
 Input file generated by CHIRIPA (05-May-2021 14:51:11)
 ------------------------------------------------------
 Symbolic Z-matrix:
 Charge =  0 Multiplicity = 1

                         Standard orientation:
 ---------------------------------------------------------------------
 Center     Atomic      Atomic             Coordinates (Angstroms)
 Number     Number       Type             X           Y           Z
 ---------------------------------------------------------------------
      1          6           0       -2.580768    0.257863    0.487641
      2          6           0       -2.093222    0.100253    1.928281
      3          6           0       -0.728411    0.747716    2.164661
      4          1           0       -1.840772   -0.184054   -0.193579
      5          1           0       -2.633513    1.327269    0.240690
      6          1           0       -2.042736   -0.968500    2.172892
      7          1           0       -2.834556    0.542426    2.606162
      8          1           0       -0.767987    1.820080    1.947707
      9          1           0        0.028333    0.300570    1.511975
     10          1           0       -0.399045    0.623164    3.200936
     11          6           0       -3.943843   -0.384228    0.235701
     12          6           0       -4.431388   -0.226618   -1.204939
     13          6           0       -5.796199   -0.874081   -1.441319
     14          1           0       -3.891098   -1.453634    0.482652
     15          1           0       -4.683839    0.057689    0.916920
     16          1           0       -3.690054   -0.668791   -1.882821
     17          1           0       -4.481875    0.842135   -1.449551
     18          1           0       -6.552943   -0.426935   -0.788633
     19          1           0       -5.756624   -1.946445   -1.224365
     20          1           0       -6.125565   -0.749529   -2.477594
     21          6           0        3.257279   -0.585972    0.040827
     22          6           0        4.048713   -1.715203   -0.619821
     23          6           0        4.029298   -3.007348    0.197356
     24          1           0        3.668857   -0.394959    1.041358
     25          1           0        2.218436   -0.912680    0.187329
     26          1           0        5.085420   -1.385958   -0.766292
     27          1           0        3.635326   -1.903420   -1.618971
     28          1           0        3.002500   -3.362410    0.332325
     29          1           0        4.460833   -2.842008    1.189848
     30          1           0        4.601068   -3.801243   -0.293227
     31          6           0        3.267332    0.712338   -0.764169
     32          6           0        2.475898    1.841568   -0.103521
     33          6           0        2.495312    3.133713   -0.920697
     34          1           0        4.306175    1.039045   -0.910670
     35          1           0        2.855754    0.521324   -1.764700
     36          1           0        2.889286    2.029785    0.895629
     37          1           0        1.439192    1.512324    0.042951
     38          1           0        2.063777    2.968373   -1.913190
     39          1           0        3.522111    3.488775   -1.055667
     40          1           0        1.923543    3.927607   -0.430115
 ---------------------------------------------------------------------

 SCF Done:  E(RHF) =  -470.732926785     A.U. after   11 cycles
 E2 =    -0.1583077907D+01 EUMP2 =    -0.47231600469209D+03

 The electronic state is 1-A.
 Alpha  occ. eigenvalues --  -11.21626 -11.21611 -11.21610 -11.21476 -11.21439
 Alpha  occ. eigenvalues --  -11.21401 -11.21378 -11.21324 -11.21090 -11.21081
 Alpha  occ. eigenvalues --  -11.21039 -11.21010  -1.08460  -1.08405  -1.03558
 Alpha  occ. eigenvalues --   -1.03487  -0.95999  -0.95954  -0.87031  -0.86957
 Alpha  occ. eigenvalues --   -0.79688  -0.79499  -0.78319  -0.78168  -0.65125
 Alpha  occ. eigenvalues --   -0.65014  -0.60976  -0.60876  -0.59384  -0.59310
 Alpha  occ. eigenvalues --   -0.57636  -0.57537  -0.55299  -0.55237  -0.52697
 Alpha  occ. eigenvalues --   -0.52660  -0.52460  -0.52345  -0.49963  -0.49893
 Alpha  occ. eigenvalues --   -0.48139  -0.47738  -0.46716  -0.46557  -0.45966
 Alpha  occ. eigenvalues --   -0.45746  -0.45725  -0.45347  -0.43803  -0.43755
 Alpha virt. eigenvalues --    0.21296   0.23160   0.23829   0.24391   0.25530
 Alpha virt. eigenvalues --    0.26782   0.26950   0.27671   0.27783   0.29216
 Alpha virt. eigenvalues --    0.31224   0.31411   0.31675   0.31867   0.32146

 Mulliken charges:
               1
     1  C   -0.298361
     2  C   -0.299740
     3  C   -0.481318
     4  H    0.148424
     5  H    0.149667
     6  H    0.151764
     7  H    0.151960
     8  H    0.155495
     9  H    0.161670
    10  H    0.160451
    11  C   -0.298199
    12  C   -0.299661
    13  C   -0.475730
    14  H    0.149567
    15  H    0.149892
    16  H    0.151758
    17  H    0.152020
    18  H    0.155267
    19  H    0.155209
    20  H    0.160317
    21  C   -0.300485
    22  C   -0.299602
    23  C   -0.475640
    24  H    0.150180
    25  H    0.150207
    26  H    0.152254
    27  H    0.151799
    28  H    0.154843
    29  H    0.155346
    30  H    0.160281
    31  C   -0.298247
    32  C   -0.305466
    33  C   -0.475324
    34  H    0.149346
    35  H    0.149055
    36  H    0.151741
    37  H    0.159932
    38  H    0.154751
    39  H    0.154715
    40  H    0.159863
 Sum of Mulliken charges =  -0.00000

 Dipole moment (field-independent basis, Debye):
    X=             -0.0120    Y=              0.0006    Z=              0.0221  Tot=              0.0251
 Quadrupole moment (field-independent basis, Debye-Ang):
   XX=            -84.8431   YY=            -85.1592   ZZ=            -84.8199
   XY=             -0.5319   XZ=              0.0001   YZ=              0.7564

 Normal termination of Gaussian 16 at Thu May  6 02:17:07 2021.
