 Gaussian 16, Revision A.03,
 Gaussian 16:  EM64L-G16RevA.03 25-Dec-2016

 -------------
 #p 6-31g* mp2
 -------------

 ------------------------------------------------------
 Input file generated by CHIRIPA (05-May-2021 14:57:22)
 ------------------------------------------------------
 Symbolic Z-matrix:
 Charge =  0 Multiplicity = 1

                         Standard orientation:
 ---------------------------------------------------------------------
 Center     Atomic      Atomic             Coordinates (Angstroms)
 Number     Number       Type             X           Y           Z
 ---------------------------------------------------------------------
      1          6           0        2.327994   -2.447872    0.412220
      2          6           0        3.230364   -1.985932   -0.551554
      3          6           0        3.543411   -0.626069   -0.637127
      4          6           0        2.932896    0.247961    0.261001
      5          6           0        2.029878   -0.181596    1.232252
      6          6           0        1.731682   -1.545820    1.299483
      7          1           0        2.090580   -3.505940    0.471571
      8          1           0        3.694984   -2.684192   -1.241920
      9          1           0        4.238497   -0.241375   -1.373526
     10          1           0        1.582698    0.538544    1.906676
     11          1           0        1.030523   -1.901730    2.048981
     12          7           0        3.256444    1.689895    0.180117
     13          8           0        2.705091    2.439588    0.982992
     14          8           0        4.055266    2.043088   -0.684622
     15          6           0       -5.160603    0.712992    0.525451
     16          6           0       -4.775804   -0.627931    0.627327
     17          6           0       -3.514376   -1.040001    0.187387
     18          6           0       -2.659050   -0.080239   -0.351652
     19          6           0       -3.013365    1.263095   -0.466562
     20          6           0       -4.279709    1.652568   -0.020206
     21          1           0       -6.142419    1.024320    0.869698
     22          1           0       -5.457853   -1.359804    1.050664
     23          1           0       -3.190827   -2.071622    0.254424
     24          1           0       -2.311702    1.969625   -0.893061
     25          1           0       -4.575860    2.694624   -0.100565
     26          7           0       -1.321031   -0.504519   -0.820792
     27          8           0       -0.585862    0.360483   -1.291891
     28          8           0       -1.032798   -1.694037   -0.708522
 ---------------------------------------------------------------------

 SCF Done:  E(RHF) =  -868.338269080     A.U. after   16 cycles
 E2 =    -0.2601261275D+01 EUMP2 =    -0.87093953035503D+03

 The electronic state is 1-A.
 Alpha  occ. eigenvalues --  -20.61166 -20.61119 -20.59640 -20.59629 -15.86153
 Alpha  occ. eigenvalues --  -15.84684 -11.31462 -11.29766 -11.28062 -11.27965
 Alpha  occ. eigenvalues --  -11.27738 -11.27039 -11.26972 -11.26375 -11.26346
 Alpha  occ. eigenvalues --  -11.26051 -11.25350 -11.25321  -1.60194  -1.58708
 Alpha  occ. eigenvalues --   -1.39757  -1.38276  -1.19625  -1.17915  -1.09032
 Alpha  occ. eigenvalues --   -1.07365  -1.05012  -1.03344  -0.95879  -0.94263
 Alpha  occ. eigenvalues --   -0.86413  -0.84761  -0.82716  -0.81147  -0.77772
 Alpha  occ. eigenvalues --   -0.76223  -0.72402  -0.71533  -0.70933  -0.70724
 Alpha  occ. eigenvalues --   -0.69996  -0.69104  -0.65277  -0.65008  -0.63627
 Alpha  occ. eigenvalues --   -0.63413  -0.62356  -0.60754  -0.55514  -0.53873
 Alpha  occ. eigenvalues --   -0.53362  -0.53097  -0.51659  -0.51500  -0.49158
 Alpha  occ. eigenvalues --   -0.49030  -0.47689  -0.47657  -0.45194  -0.43754
 Alpha  occ. eigenvalues --   -0.37611  -0.36615  -0.35743  -0.34873
 Alpha virt. eigenvalues --    0.04739   0.06358   0.11039   0.12789   0.16256
 Alpha virt. eigenvalues --    0.17922   0.21210   0.22630   0.27124   0.28075
 Alpha virt. eigenvalues --    0.28468   0.29534   0.30779   0.32047   0.32399

 Mulliken charges:
               1
     1  C   -0.156311
     2  C   -0.216905
     3  C   -0.168078
     4  C    0.167989
     5  C   -0.171768
     6  C   -0.208261
     7  H    0.221230
     8  H    0.218348
     9  H    0.271094
    10  H    0.267406
    11  H    0.215219
    12  N    0.488985
    13  O   -0.466911
    14  O   -0.464048
    15  C   -0.170562
    16  C   -0.218538
    17  C   -0.172665
    18  C    0.157213
    19  C   -0.170565
    20  C   -0.218468
    21  H    0.226738
    22  H    0.223227
    23  H    0.272122
    24  H    0.280059
    25  H    0.226138
    26  N    0.487545
    27  O   -0.455221
    28  O   -0.465012
 Sum of Mulliken charges =  -0.00000

 Dipole moment (field-independent basis, Debye):
    X=             -6.1005    Y=             -3.5954    Z=              1.7661  Tot=              7.2981
 Quadrupole moment (field-independent basis, Debye-Ang):
   XX=            -85.8974   YY=           -103.7842   ZZ=           -103.9643
   XY=            -19.1383   XZ=             -5.6374   YZ=             -2.6566

 Normal termination of Gaussian 16 at Thu May  6 00:12:27 2021.
