 Gaussian 16, Revision A.03,
 Gaussian 16:  EM64L-G16RevA.03 25-Dec-2016

 -------------
 #p 6-31g* mp2
 -------------

 ------------------------------------------------------
 Input file generated by CHIRIPA (05-May-2021 14:51:09)
 ------------------------------------------------------
 Symbolic Z-matrix:
 Charge =  0 Multiplicity = 1

                         Standard orientation:
 ---------------------------------------------------------------------
 Center     Atomic      Atomic             Coordinates (Angstroms)
 Number     Number       Type             X           Y           Z
 ---------------------------------------------------------------------
      1          6           0        2.657471   -0.132203   -0.196051
      2          6           0        4.060261   -0.075536   -0.801818
      3          6           0        4.461494    1.335503   -1.232833
      4          1           0        1.932938    0.248883   -0.928696
      5          1           0        2.611759    0.543438    0.669290
      6          1           0        4.103715   -0.752129   -1.664923
      7          1           0        4.781516   -0.456981   -0.067714
      8          1           0        4.446258    2.018575   -0.377390
      9          1           0        3.764607    1.721750   -1.983674
     10          1           0        5.467702    1.352990   -1.663064
     11          6           0        2.242019   -1.536215    0.239700
     12          6           0        0.839229   -1.592882    0.845467
     13          6           0        0.437996   -3.003921    1.276482
     14          1           0        2.287731   -2.211856   -0.625641
     15          1           0        2.966552   -1.917301    0.972346
     16          1           0        0.117974   -1.211437    0.111364
     17          1           0        0.795774   -0.916289    1.708572
     18          1           0        1.134883   -3.390169    2.027323
     19          1           0        0.453232   -3.686993    0.421040
     20          1           0       -0.568212   -3.021408    1.706714
     21          6           0       -2.285601    1.535064    0.233696
     22          6           0       -0.839137    1.684864    0.706227
     23          6           0       -0.526060    3.092495    1.214513
     24          1           0       -2.482109    2.266094   -0.562498
     25          1           0       -2.962473    1.785727    1.062193
     26          1           0       -0.165189    1.432657   -0.122508
     27          1           0       -0.645992    0.953264    1.501256
     28          1           0       -1.174592    3.350628    2.057943
     29          1           0       -0.691057    3.832745    0.424952
     30          1           0        0.513147    3.177283    1.547259
     31          6           0       -2.613889    0.133354   -0.277346
     32          6           0       -4.060353   -0.016446   -0.749876
     33          6           0       -4.373430   -1.424076   -1.258162
     34          1           0       -1.937016   -0.117309   -1.105842
     35          1           0       -2.417381   -0.597676    0.518848
     36          1           0       -4.253498    0.715155   -1.544906
     37          1           0       -4.734301    0.235762    0.078859
     38          1           0       -4.208434   -2.164328   -0.468602
     39          1           0       -3.724898   -1.682211   -2.101591
     40          1           0       -5.412637   -1.508865   -1.590909
 ---------------------------------------------------------------------

 SCF Done:  E(RHF) =  -470.730965793     A.U. after   11 cycles
 E2 =    -0.1585806548D+01 EUMP2 =    -0.47231677234137D+03

 The electronic state is 1-A.
 Alpha  occ. eigenvalues --  -11.21610 -11.21594 -11.21423 -11.21421 -11.21397
 Alpha  occ. eigenvalues --  -11.21375 -11.21315 -11.21304 -11.21086 -11.21077
 Alpha  occ. eigenvalues --  -11.21016 -11.20996  -1.08488  -1.08325  -1.03529
 Alpha  occ. eigenvalues --   -1.03456  -0.95984  -0.95927  -0.86991  -0.86950
 Alpha  occ. eigenvalues --   -0.79760  -0.79501  -0.78612  -0.77745  -0.65156
 Alpha  occ. eigenvalues --   -0.64937  -0.60970  -0.60834  -0.59424  -0.59236
 Alpha  occ. eigenvalues --   -0.57715  -0.57425  -0.55251  -0.55245  -0.52712
 Alpha  occ. eigenvalues --   -0.52596  -0.52438  -0.52328  -0.49912  -0.49895
 Alpha  occ. eigenvalues --   -0.48210  -0.47802  -0.46835  -0.46484  -0.46295
 Alpha  occ. eigenvalues --   -0.45880  -0.45343  -0.44822  -0.43771  -0.43697
 Alpha virt. eigenvalues --    0.21473   0.22749   0.23744   0.23841   0.24417
 Alpha virt. eigenvalues --    0.26190   0.26322   0.28329   0.28690   0.29900
 Alpha virt. eigenvalues --    0.30204   0.31024   0.31671   0.31851   0.32030

 Mulliken charges:
               1
     1  C   -0.300430
     2  C   -0.299291
     3  C   -0.475570
     4  H    0.150538
     5  H    0.150469
     6  H    0.151761
     7  H    0.151989
     8  H    0.155119
     9  H    0.154774
    10  H    0.160304
    11  C   -0.297869
    12  C   -0.307068
    13  C   -0.475779
    14  H    0.148771
    15  H    0.148910
    16  H    0.162527
    17  H    0.152686
    18  H    0.154577
    19  H    0.154931
    20  H    0.158935
    21  C   -0.297358
    22  C   -0.306583
    23  C   -0.475607
    24  H    0.148882
    25  H    0.148915
    26  H    0.156870
    27  H    0.157163
    28  H    0.154368
    29  H    0.154515
    30  H    0.159540
    31  C   -0.301810
    32  C   -0.299060
    33  C   -0.475671
    34  H    0.148476
    35  H    0.152680
    36  H    0.151912
    37  H    0.152051
    38  H    0.155229
    39  H    0.154839
    40  H    0.160365
 Sum of Mulliken charges =  -0.00000

 Dipole moment (field-independent basis, Debye):
    X=             -0.0067    Y=             -0.0035    Z=             -0.0048  Tot=              0.0089
 Quadrupole moment (field-independent basis, Debye-Ang):
   XX=            -85.0084   YY=            -86.8133   ZZ=            -83.3402
   XY=             -0.5633   XZ=              0.1024   YZ=             -0.1286

 Normal termination of Gaussian 16 at Thu May  6 00:33:52 2021.
