 Gaussian 16, Revision A.03,
 Gaussian 16:  EM64L-G16RevA.03 25-Dec-2016

 -------------
 #p 6-31g* mp2
 -------------

 ------------------------------------------------------
 Input file generated by CHIRIPA (05-May-2021 14:57:21)
 ------------------------------------------------------
 Symbolic Z-matrix:
 Charge =  0 Multiplicity = 1

                         Standard orientation:
 ---------------------------------------------------------------------
 Center     Atomic      Atomic             Coordinates (Angstroms)
 Number     Number       Type             X           Y           Z
 ---------------------------------------------------------------------
      1          6           0        4.521359    2.169326   -0.053242
      2          6           0        4.428833    1.308523   -1.151867
      3          6           0        3.725822    0.104138   -1.052967
      4          6           0        3.124806   -0.209380    0.165137
      5          6           0        3.199103    0.627341    1.277642
      6          6           0        3.907282    1.826592    1.155875
      7          1           0        5.069482    3.102927   -0.138952
      8          1           0        4.904734    1.572109   -2.092125
      9          1           0        3.638405   -0.580726   -1.887676
     10          1           0        2.714170    0.337339    2.201849
     11          1           0        3.977484    2.493169    2.010739
     12          7           0        2.377825   -1.481690    0.281942
     13          8           0        1.857220   -1.734897    1.366144
     14          8           0        2.327090   -2.201630   -0.712920
     15          6           0       -5.367767    1.238891    0.434236
     16          6           0       -4.835982    1.327576   -0.856447
     17          6           0       -3.661965    0.645237   -1.189079
     18          6           0       -3.042979   -0.120114   -0.201970
     19          6           0       -3.548159   -0.228310    1.092780
     20          6           0       -4.723293    0.462599    1.403022
     21          1           0       -6.280205    1.772276    0.683936
     22          1           0       -5.334351    1.929705   -1.610843
     23          1           0       -3.228526    0.696390   -2.180508
     24          1           0       -3.028829   -0.836425    1.823473
     25          1           0       -5.134003    0.391890    2.406198
     26          7           0       -1.799507   -0.847012   -0.542261
     27          8           0       -1.273203   -1.514634    0.345388
     28          8           0       -1.374725   -0.735369   -1.690186
 ---------------------------------------------------------------------

 SCF Done:  E(RHF) =  -868.335248411     A.U. after   16 cycles
 E2 =    -0.2600981050D+01 EUMP2 =    -0.87093622946057D+03

 The electronic state is 1-A.
 Alpha  occ. eigenvalues --  -20.60044 -20.59948 -20.59276 -20.59270 -15.85050
 Alpha  occ. eigenvalues --  -15.84346 -11.30716 -11.30195 -11.27340 -11.27297
 Alpha  occ. eigenvalues --  -11.27129 -11.26848 -11.26798 -11.26682 -11.26416
 Alpha  occ. eigenvalues --  -11.26392 -11.25981 -11.25944  -1.59081  -1.58308
 Alpha  occ. eigenvalues --   -1.38621  -1.37866  -1.18922  -1.18416  -1.08264
 Alpha  occ. eigenvalues --   -1.07722  -1.04366  -1.03897  -0.95043  -0.94477
 Alpha  occ. eigenvalues --   -0.85750  -0.85273  -0.81866  -0.81322  -0.76869
 Alpha  occ. eigenvalues --   -0.76274  -0.71267  -0.70577  -0.70454  -0.70026
 Alpha  occ. eigenvalues --   -0.69584  -0.69535  -0.64562  -0.64371  -0.64065
 Alpha  occ. eigenvalues --   -0.63916  -0.61707  -0.61243  -0.54863  -0.54399
 Alpha  occ. eigenvalues --   -0.52686  -0.52461  -0.52195  -0.52004  -0.48067
 Alpha  occ. eigenvalues --   -0.48011  -0.47299  -0.47276  -0.44017  -0.43089
 Alpha  occ. eigenvalues --   -0.36926  -0.36425  -0.35986  -0.35523
 Alpha virt. eigenvalues --    0.05654   0.06300   0.11663   0.12126   0.17092
 Alpha virt. eigenvalues --    0.17698   0.21772   0.22162   0.27663   0.28035
 Alpha virt. eigenvalues --    0.28700   0.29104   0.31302   0.31666   0.32970

 Mulliken charges:
               1
     1  C   -0.172726
     2  C   -0.218845
     3  C   -0.169414
     4  C    0.161476
     5  C   -0.172248
     6  C   -0.218941
     7  H    0.221388
     8  H    0.220426
     9  H    0.276931
    10  H    0.273406
    11  H    0.219016
    12  N    0.491735
    13  O   -0.456970
    14  O   -0.455265
    15  C   -0.171884
    16  C   -0.218701
    17  C   -0.171879
    18  C    0.158352
    19  C   -0.171946
    20  C   -0.218828
    21  H    0.223596
    22  H    0.221366
    23  H    0.274362
    24  H    0.278546
    25  H    0.222194
    26  N    0.484993
    27  O   -0.446418
    28  O   -0.463722
 Sum of Mulliken charges =  -0.00000

 Dipole moment (field-independent basis, Debye):
    X=             -1.8259    Y=              6.6901    Z=              0.8080  Tot=              6.9817
 Quadrupole moment (field-independent basis, Debye-Ang):
   XX=            -64.8017   YY=           -107.9151   ZZ=            -96.8735
   XY=              5.5144   XZ=             -4.9945   YZ=             -0.6743

 Normal termination of Gaussian 16 at Thu May  6 11:12:40 2021.
