 Gaussian 16, Revision A.03,
 Gaussian 16:  EM64L-G16RevA.03 25-Dec-2016

 -------------
 #p 6-31g* mp2
 -------------

 ------------------------------------------------------
 Input file generated by CHIRIPA (05-May-2021 14:55:19)
 ------------------------------------------------------
 Symbolic Z-matrix:
 Charge =  0 Multiplicity = 1

                         Standard orientation:
 ---------------------------------------------------------------------
 Center     Atomic      Atomic             Coordinates (Angstroms)
 Number     Number       Type             X           Y           Z
 ---------------------------------------------------------------------
      1          6           0       -1.491757   -1.533839    2.071043
      2          6           0       -1.049856   -1.899653    0.795338
      3          6           0       -1.351024   -1.105568   -0.315191
      4          6           0       -2.099529    0.052908   -0.112792
      5          6           0       -2.554141    0.444103    1.145613
      6          6           0       -2.241168   -0.365188    2.241808
      7          1           0       -1.253217   -2.156609    2.928161
      8          1           0       -0.467683   -2.806699    0.659735
      9          1           0       -1.021569   -1.365189   -1.313927
     10          1           0       -3.132680    1.354020    1.249348
     11          1           0       -2.585680   -0.078620    3.231371
     12          7           0       -2.424611    0.901620   -1.280872
     13          8           0       -3.085564    1.917401   -1.076015
     14          8           0       -2.012302    0.534988   -2.379152
     15          6           0        2.747665    0.629060    0.444562
     16          6           0        2.710533    2.070382   -0.064555
     17          6           0        2.970078    3.094584    1.040631
     18          1           0        2.000313    0.508789    1.240768
     19          1           0        3.727073    0.434691    0.903230
     20          1           0        1.731981    2.261550   -0.523363
     21          1           0        3.457929    2.187184   -0.859773
     22          1           0        3.953725    2.932229    1.493048
     23          1           0        2.217970    3.007016    1.831369
     24          1           0        2.938958    4.118269    0.654679
     25          6           0        2.489970   -0.406417   -0.648648
     26          6           0        2.527102   -1.847739   -0.139531
     27          6           0        2.267557   -2.871942   -1.244718
     28          1           0        1.510562   -0.212048   -1.107316
     29          1           0        3.237323   -0.286147   -1.444853
     30          1           0        1.779706   -1.964542    0.655688
     31          1           0        3.505655   -2.038907    0.319278
     32          1           0        3.019666   -2.784374   -2.035455
     33          1           0        1.283910   -2.709586   -1.697134
     34          1           0        2.298678   -3.895627   -0.858764
 ---------------------------------------------------------------------

 SCF Done:  E(RHF) =  -669.534426116     A.U. after   15 cycles
 E2 =    -0.2094794952D+01 EUMP2 =    -0.67162922106775D+03

 The electronic state is 1-A.
 Alpha  occ. eigenvalues --  -20.60864 -20.60859 -15.85915 -11.31302 -11.27856
 Alpha  occ. eigenvalues --  -11.27850 -11.27596 -11.26876 -11.26846 -11.22061
 Alpha  occ. eigenvalues --  -11.21790 -11.21592 -11.21569 -11.21480 -11.21063
 Alpha  occ. eigenvalues --   -1.59938  -1.39490  -1.19475  -1.08868  -1.08654
 Alpha  occ. eigenvalues --   -1.04889  -1.03804  -0.96266  -0.95693  -0.87283
 Alpha  occ. eigenvalues --   -0.86279  -0.82527  -0.79878  -0.78424  -0.77581
 Alpha  occ. eigenvalues --   -0.72131  -0.71264  -0.70579  -0.65425  -0.65099
 Alpha  occ. eigenvalues --   -0.64858  -0.62347  -0.61062  -0.59656  -0.57854
 Alpha  occ. eigenvalues --   -0.55597  -0.55333  -0.53199  -0.52994  -0.52944
 Alpha  occ. eigenvalues --   -0.52686  -0.50226  -0.48894  -0.48886  -0.48178
 Alpha  occ. eigenvalues --   -0.46901  -0.45969  -0.45870  -0.44883  -0.44024
 Alpha  occ. eigenvalues --   -0.37428  -0.36408
 Alpha virt. eigenvalues --    0.04936   0.11023   0.16370   0.19654   0.23046
 Alpha virt. eigenvalues --    0.23842   0.25461   0.26568   0.27010   0.28167
 Alpha virt. eigenvalues --    0.29272   0.30446   0.31199   0.31435   0.32054

 Mulliken charges:
               1
     1  C   -0.172788
     2  C   -0.218466
     3  C   -0.174032
     4  C    0.158794
     5  C   -0.170901
     6  C   -0.218314
     7  H    0.226464
     8  H    0.228749
     9  H    0.277972
    10  H    0.275983
    11  H    0.224026
    12  N    0.488236
    13  O   -0.459817
    14  O   -0.460520
    15  C   -0.299176
    16  C   -0.300545
    17  C   -0.475667
    18  H    0.149312
    19  H    0.148288
    20  H    0.156477
    21  H    0.153115
    22  H    0.153886
    23  H    0.153507
    24  H    0.162569
    25  C   -0.299877
    26  C   -0.305110
    27  C   -0.479443
    28  H    0.153220
    29  H    0.152264
    30  H    0.147870
    31  H    0.154050
    32  H    0.162977
    33  H    0.148719
    34  H    0.158176
 Sum of Mulliken charges =  -0.00000

 Dipole moment (field-independent basis, Debye):
    X=              1.1397    Y=             -2.9072    Z=              4.0881  Tot=              5.1443
 Quadrupole moment (field-independent basis, Debye-Ang):
   XX=            -97.8465   YY=            -94.3038   ZZ=            -94.6862
   XY=              4.4647   XZ=            -11.1663   YZ=              2.0187

 Normal termination of Gaussian 16 at Wed May  5 15:50:57 2021.
