 Gaussian 16, Revision A.03,
 Gaussian 16:  EM64L-G16RevA.03 25-Dec-2016

 -------------
 #p 6-31g* mp2
 -------------

 ------------------------------------------------------
 Input file generated by CHIRIPA (05-May-2021 14:55:19)
 ------------------------------------------------------
 Symbolic Z-matrix:
 Charge =  0 Multiplicity = 1

                         Standard orientation:
 ---------------------------------------------------------------------
 Center     Atomic      Atomic             Coordinates (Angstroms)
 Number     Number       Type             X           Y           Z
 ---------------------------------------------------------------------
      1          6           0       -2.718214    2.280092   -0.364706
      2          6           0       -3.982069    1.688778   -0.462370
      3          6           0       -4.139643    0.313594   -0.265932
      4          6           0       -3.006737   -0.443666    0.027957
      5          6           0       -1.734314    0.116164    0.131972
      6          6           0       -1.600341    1.493285   -0.068369
      7          1           0       -2.604973    3.349120   -0.518820
      8          1           0       -4.851994    2.297357   -0.692383
      9          1           0       -5.106419   -0.170045   -0.335619
     10          1           0       -0.885784   -0.516476    0.362584
     11          1           0       -0.617592    1.949796    0.008098
     12          7           0       -3.161061   -1.900537    0.237983
     13          8           0       -2.147220   -2.545753    0.495783
     14          8           0       -4.292939   -2.369631    0.140825
     15          6           0        3.766357    0.957571    0.316946
     16          6           0        2.493797    1.706776   -0.079624
     17          6           0        2.408795    3.099643    0.545269
     18          1           0        3.808510    0.873147    1.411497
     19          1           0        4.641313    1.549852    0.015205
     20          1           0        1.621508    1.112612    0.221536
     21          1           0        2.454572    1.789258   -1.173368
     22          1           0        3.260514    3.713641    0.235137
     23          1           0        2.422717    3.033151    1.637965
     24          1           0        1.491368    3.617471    0.248553
     25          6           0        3.865778   -0.436466   -0.299903
     26          6           0        5.138338   -1.185672    0.096668
     27          6           0        5.223340   -2.578538   -0.528226
     28          1           0        2.990821   -1.028748    0.001838
     29          1           0        3.823625   -0.352044   -1.394454
     30          1           0        5.177563   -1.268154    1.190411
     31          1           0        6.010627   -0.591509   -0.204492
     32          1           0        5.209418   -2.512047   -1.620922
     33          1           0        4.371621   -3.192537   -0.218093
     34          1           0        6.140767   -3.096368   -0.231509
 ---------------------------------------------------------------------

 SCF Done:  E(RHF) =  -669.535311117     A.U. after   15 cycles
 E2 =    -0.2091695929D+01 EUMP2 =    -0.67162700704619D+03

 The electronic state is 1-A.
 Alpha  occ. eigenvalues --  -20.60730 -20.60725 -15.85782 -11.31132 -11.27694
 Alpha  occ. eigenvalues --  -11.27685 -11.27424 -11.26712 -11.26642 -11.22610
 Alpha  occ. eigenvalues --  -11.22106 -11.22015 -11.21851 -11.21767 -11.21161
 Alpha  occ. eigenvalues --   -1.59805  -1.39359  -1.19295  -1.09010  -1.08693
 Alpha  occ. eigenvalues --   -1.04700  -1.04117  -0.96544  -0.95535  -0.87557
 Alpha  occ. eigenvalues --   -0.86096  -0.82375  -0.80232  -0.78760  -0.77413
 Alpha  occ. eigenvalues --   -0.72001  -0.71127  -0.70412  -0.65662  -0.64946
 Alpha  occ. eigenvalues --   -0.64718  -0.62157  -0.61436  -0.59949  -0.58142
 Alpha  occ. eigenvalues --   -0.55801  -0.55193  -0.53280  -0.53030  -0.52994
 Alpha  occ. eigenvalues --   -0.52721  -0.50470  -0.48758  -0.48757  -0.48519
 Alpha  occ. eigenvalues --   -0.47251  -0.46297  -0.46181  -0.44768  -0.44355
 Alpha  occ. eigenvalues --   -0.37278  -0.36295
 Alpha virt. eigenvalues --    0.05114   0.11354   0.16611   0.19274   0.22656
 Alpha virt. eigenvalues --    0.23659   0.24500   0.26095   0.26559   0.28525
 Alpha virt. eigenvalues --    0.29389   0.30434   0.30981   0.31182   0.32199

 Mulliken charges:
               1
     1  C   -0.172401
     2  C   -0.218394
     3  C   -0.171379
     4  C    0.159148
     5  C   -0.174625
     6  C   -0.226705
     7  H    0.225417
     8  H    0.223113
     9  H    0.275320
    10  H    0.275077
    11  H    0.237165
    12  N    0.488233
    13  O   -0.460857
    14  O   -0.460624
    15  C   -0.298282
    16  C   -0.304863
    17  C   -0.478314
    18  H    0.152125
    19  H    0.152113
    20  H    0.143712
    21  H    0.155683
    22  H    0.161636
    23  H    0.159716
    24  H    0.151912
    25  C   -0.299560
    26  C   -0.300255
    27  C   -0.476654
    28  H    0.151105
    29  H    0.150735
    30  H    0.153124
    31  H    0.151897
    32  H    0.155491
    33  H    0.158834
    34  H    0.161357
 Sum of Mulliken charges =  -0.00000

 Dipole moment (field-independent basis, Debye):
    X=              0.7899    Y=              5.1067    Z=             -0.7403  Tot=              5.2202
 Quadrupole moment (field-independent basis, Debye-Ang):
   XX=            -92.1180   YY=           -100.6922   ZZ=            -94.9889
   XY=            -15.8603   XZ=              2.9323   YZ=             -0.3054

 Normal termination of Gaussian 16 at Wed May  5 17:21:24 2021.
