 Gaussian 16, Revision A.03,
 Gaussian 16:  EM64L-G16RevA.03 25-Dec-2016

 -------------
 #p 6-31g* mp2
 -------------

 ------------------------------------------------------
 Input file generated by CHIRIPA (05-May-2021 14:57:21)
 ------------------------------------------------------
 Symbolic Z-matrix:
 Charge =  0 Multiplicity = 1

                         Standard orientation:
 ---------------------------------------------------------------------
 Center     Atomic      Atomic             Coordinates (Angstroms)
 Number     Number       Type             X           Y           Z
 ---------------------------------------------------------------------
      1          6           0       -1.978974    1.319641   -0.495853
      2          6           0       -1.859538    0.020146    0.007703
      3          6           0       -2.998280   -0.748761    0.265763
      4          6           0       -4.246430   -0.184198    0.007536
      5          6           0       -4.398137    1.107556   -0.494108
      6          6           0       -3.245659    1.858249   -0.744713
      7          1           0       -1.089036    1.909872   -0.693425
      8          1           0       -0.877097   -0.400727    0.201922
      9          1           0       -2.934679   -1.757403    0.655654
     10          1           0       -5.391010    1.499879   -0.677694
     11          1           0       -3.341440    2.867180   -1.135775
     12          7           0       -5.459236   -0.988565    0.276787
     13          8           0       -6.547436   -0.468199    0.040828
     14          8           0       -5.298668   -2.124162    0.718686
     15          6           0        2.018544    1.504374    0.414554
     16          6           0        3.045394    1.475269    1.363897
     17          6           0        4.173679    0.674030    1.165057
     18          6           0        4.242604   -0.088817    0.000324
     19          6           0        3.236071   -0.081267   -0.964106
     20          6           0        2.116986    0.727383   -0.744374
     21          1           0        1.145639    2.129674    0.577132
     22          1           0        2.971640    2.077647    2.264867
     23          1           0        4.983230    0.632574    1.883615
     24          1           0        3.338007   -0.692748   -1.852429
     25          1           0        1.321050    0.748003   -1.483364
     26          7           0        5.432199   -0.940976   -0.221238
     27          8           0        5.468933   -1.603758   -1.255651
     28          8           0        6.305344   -0.929981    0.643709
 ---------------------------------------------------------------------

 SCF Done:  E(RHF) =  -868.336416393     A.U. after   16 cycles
 E2 =    -0.2600950328D+01 EUMP2 =    -0.87093736672086D+03

 The electronic state is 1-A.
 Alpha  occ. eigenvalues --  -20.61448 -20.61441 -20.61304 -20.61299 -15.86509
 Alpha  occ. eigenvalues --  -15.86360 -11.32086 -11.31904 -11.28708 -11.28646
 Alpha  occ. eigenvalues --  -11.28580 -11.28456 -11.28449 -11.28408 -11.27853
 Alpha  occ. eigenvalues --  -11.27714 -11.27580 -11.27553  -1.60518  -1.60374
 Alpha  occ. eigenvalues --   -1.40065  -1.39922  -1.20301  -1.20095  -1.09694
 Alpha  occ. eigenvalues --   -1.09490  -1.05727  -1.05502  -0.96489  -0.96286
 Alpha  occ. eigenvalues --   -0.87156  -0.86896  -0.83291  -0.83105  -0.78282
 Alpha  occ. eigenvalues --   -0.78087  -0.72726  -0.72578  -0.71844  -0.71699
 Alpha  occ. eigenvalues --   -0.71697  -0.71096  -0.65992  -0.65858  -0.65722
 Alpha  occ. eigenvalues --   -0.65403  -0.63066  -0.62807  -0.56480  -0.55969
 Alpha  occ. eigenvalues --   -0.54077  -0.53884  -0.53779  -0.53562  -0.49501
 Alpha  occ. eigenvalues --   -0.49463  -0.49351  -0.49320  -0.45423  -0.45287
 Alpha  occ. eigenvalues --   -0.38337  -0.38145  -0.37319  -0.37087
 Alpha virt. eigenvalues --    0.04246   0.04396   0.10164   0.10517   0.15681
 Alpha virt. eigenvalues --    0.15781   0.17808   0.22049   0.24900   0.26312
 Alpha virt. eigenvalues --    0.26978   0.29463   0.29764   0.30840   0.31762

 Mulliken charges:
               1
     1  C   -0.178161
     2  C   -0.222475
     3  C   -0.170110
     4  C    0.159996
     5  C   -0.170469
     6  C   -0.217306
     7  H    0.216152
     8  H    0.227111
     9  H    0.278852
    10  H    0.277984
    11  H    0.225092
    12  N    0.487783
    13  O   -0.458470
    14  O   -0.457974
    15  C   -0.175780
    16  C   -0.217549
    17  C   -0.169365
    18  C    0.159293
    19  C   -0.169650
    20  C   -0.225636
    21  H    0.221915
    22  H    0.227253
    23  H    0.279151
    24  H    0.278979
    25  H    0.221095
    26  N    0.487881
    27  O   -0.458048
    28  O   -0.457542
 Sum of Mulliken charges =  -0.00000

 Dipole moment (field-independent basis, Debye):
    X=              0.1697    Y=              5.6864    Z=             -0.0818  Tot=              5.6896
 Quadrupole moment (field-independent basis, Debye-Ang):
   XX=           -172.8065   YY=           -104.0144   ZZ=           -101.3667
   XY=             -1.4870   XZ=             10.5171   YZ=              0.4345

 Normal termination of Gaussian 16 at Thu May  6 01:42:36 2021.
