 Gaussian 16, Revision A.03,
 Gaussian 16:  EM64L-G16RevA.03 25-Dec-2016

 -------------
 #p 6-31g* mp2
 -------------

 ------------------------------------------------------
 Input file generated by CHIRIPA (05-May-2021 14:53:18)
 ------------------------------------------------------
 Symbolic Z-matrix:
 Charge =  0 Multiplicity = 1

                         Standard orientation:
 ---------------------------------------------------------------------
 Center     Atomic      Atomic             Coordinates (Angstroms)
 Number     Number       Type             X           Y           Z
 ---------------------------------------------------------------------
      1          6           0       -3.092897   -0.826126   -0.130256
      2          6           0       -2.070437   -1.217973   -1.197503
      3          6           0       -1.268547   -2.463533   -0.818892
      4          1           0       -2.572091   -0.653372    0.821512
      5          1           0       -3.778821   -1.668083    0.037111
      6          1           0       -1.387494   -0.375031   -1.363800
      7          1           0       -2.593716   -1.389628   -2.146887
      8          1           0       -1.934080   -3.320423   -0.672579
      9          1           0       -0.721005   -2.300062    0.114957
     10          1           0       -0.543605   -2.725781   -1.595774
     11          6           0       -3.902374    0.417229   -0.494321
     12          6           0       -4.924835    0.809076    0.572926
     13          6           0       -5.726724    2.054637    0.194316
     14          1           0       -3.216451    1.259186   -0.661688
     15          1           0       -4.423181    0.244475   -1.446088
     16          1           0       -4.401556    0.980731    1.522310
     17          1           0       -5.607777   -0.033865    0.739223
     18          1           0       -6.274267    1.891165   -0.739534
     19          1           0       -5.061192    2.911526    0.048002
     20          1           0       -6.451667    2.316884    0.971197
     21          6           0        3.818276    2.195004   -0.778138
     22          6           0        3.039474    2.322663    0.376718
     23          6           0        2.433144    1.201806    0.951689
     24          6           0        2.627562   -0.037038    0.342790
     25          6           0        3.397756   -0.196564   -0.808141
     26          6           0        3.994621    0.938014   -1.365845
     27          1           0        4.285611    3.071042   -1.218082
     28          1           0        2.900791    3.297606    0.835300
     29          1           0        1.825152    1.272102    1.845457
     30          1           0        3.517758   -1.181618   -1.242520
     31          1           0        4.598918    0.835882   -2.262751
     32          7           0        1.990678   -1.230902    0.942345
     33          8           0        2.177363   -2.311195    0.386691
     34          8           0        1.316864   -1.063754    1.956580
 ---------------------------------------------------------------------

 SCF Done:  E(RHF) =  -669.536166700     A.U. after   15 cycles
 E2 =    -0.2091827870D+01 EUMP2 =    -0.67162799456923D+03

 The electronic state is 1-A.
 Alpha  occ. eigenvalues --  -20.60971 -20.60952 -15.85968 -11.31304 -11.27866
 Alpha  occ. eigenvalues --  -11.27859 -11.27600 -11.26869 -11.26858 -11.21236
 Alpha  occ. eigenvalues --  -11.20938 -11.20861 -11.20825 -11.20687 -11.19830
 Alpha  occ. eigenvalues --   -1.60015  -1.39568  -1.19469  -1.08872  -1.07865
 Alpha  occ. eigenvalues --   -1.04864  -1.02915  -0.95716  -0.95331  -0.86338
 Alpha  occ. eigenvalues --   -0.86264  -0.82549  -0.78996  -0.77656  -0.77604
 Alpha  occ. eigenvalues --   -0.72191  -0.71349  -0.70577  -0.65122  -0.64867
 Alpha  occ. eigenvalues --   -0.64502  -0.62211  -0.60314  -0.58745  -0.56946
 Alpha  occ. eigenvalues --   -0.55373  -0.54615  -0.53196  -0.52955  -0.52016
 Alpha  occ. eigenvalues --   -0.51746  -0.49373  -0.48961  -0.48849  -0.47282
 Alpha  occ. eigenvalues --   -0.46037  -0.45195  -0.45100  -0.44969  -0.43153
 Alpha  occ. eigenvalues --   -0.37443  -0.36465
 Alpha virt. eigenvalues --    0.04885   0.11190   0.16376   0.21321   0.23364
 Alpha virt. eigenvalues --    0.24913   0.27167   0.27246   0.28027   0.28190
 Alpha virt. eigenvalues --    0.28780   0.30919   0.32034   0.32263   0.32339

 Mulliken charges:
               1
     1  C   -0.299333
     2  C   -0.299353
     3  C   -0.482832
     4  H    0.155628
     5  H    0.149300
     6  H    0.144401
     7  H    0.147582
     8  H    0.152080
     9  H    0.176225
    10  H    0.158232
    11  C   -0.297210
    12  C   -0.299329
    13  C   -0.475153
    14  H    0.145886
    15  H    0.147946
    16  H    0.152294
    17  H    0.152332
    18  H    0.154514
    19  H    0.152945
    20  H    0.159323
    21  C   -0.170491
    22  C   -0.218619
    23  C   -0.171114
    24  C    0.159812
    25  C   -0.170645
    26  C   -0.218594
    27  H    0.226086
    28  H    0.223837
    29  H    0.275618
    30  H    0.276013
    31  H    0.223935
    32  N    0.487392
    33  O   -0.457147
    34  O   -0.461565
 Sum of Mulliken charges =  -0.00000

 Dipole moment (field-independent basis, Debye):
    X=              2.4711    Y=              4.1231    Z=             -2.0039  Tot=              5.2078
 Quadrupole moment (field-independent basis, Debye-Ang):
   XX=            -83.1870   YY=            -94.1662   ZZ=            -94.0060
   XY=             11.0406   XZ=             -6.6537   YZ=              4.1182

 Normal termination of Gaussian 16 at Thu May  6 20:34:41 2021.
