 Gaussian 16, Revision A.03,
 Gaussian 16:  EM64L-G16RevA.03 25-Dec-2016

 -------------
 #p 6-31g* mp2
 -------------

 ------------------------------------------------------
 Input file generated by CHIRIPA (05-May-2021 14:55:18)
 ------------------------------------------------------
 Symbolic Z-matrix:
 Charge =  0 Multiplicity = 1

                         Standard orientation:
 ---------------------------------------------------------------------
 Center     Atomic      Atomic             Coordinates (Angstroms)
 Number     Number       Type             X           Y           Z
 ---------------------------------------------------------------------
      1          6           0        1.891566    2.731236    0.090484
      2          6           0        2.791783    2.294144   -0.886799
      3          6           0        3.285349    0.986323   -0.863445
      4          6           0        2.855588    0.138432    0.156201
      5          6           0        1.959669    0.544308    1.144069
      6          6           0        1.479109    1.856465    1.101017
      7          1           0        1.513204    3.748867    0.064691
      8          1           0        3.113842    2.971313   -1.672778
      9          1           0        3.983139    0.621813   -1.607515
     10          1           0        1.656965   -0.153791    1.915072
     11          1           0        0.780081    2.193179    1.861299
     12          7           0        3.371220   -1.248394    0.191351
     13          8           0        2.977115   -1.975916    1.100214
     14          8           0        4.159714   -1.581608   -0.690626
     15          6           0       -2.846591   -0.438252   -0.497054
     16          6           0       -1.957091   -1.615419   -0.095739
     17          6           0       -0.560311   -1.538220   -0.712861
     18          1           0       -2.929246   -0.405981   -1.592076
     19          1           0       -2.361452    0.499430   -0.192447
     20          1           0       -2.444412   -2.550670   -0.399777
     21          1           0       -1.876700   -1.645007    0.998463
     22          1           0       -0.050954   -0.621102   -0.399732
     23          1           0       -0.621892   -1.531911   -1.805916
     24          1           0        0.058752   -2.389463   -0.412848
     25          6           0       -4.246161   -0.501263    0.112011
     26          6           0       -5.135661    0.675903   -0.289304
     27          6           0       -6.532441    0.598704    0.327817
     28          1           0       -4.731300   -1.438946   -0.192597
     29          1           0       -4.163506   -0.533535    1.207032
     30          1           0       -5.216052    0.705490   -1.383507
     31          1           0       -4.648339    1.611154    0.014733
     32          1           0       -6.470860    0.592395    1.420873
     33          1           0       -7.041798   -0.318415    0.014688
     34          1           0       -7.151503    1.449947    0.027805
 ---------------------------------------------------------------------

 SCF Done:  E(RHF) =  -669.534925324     A.U. after   15 cycles
 E2 =    -0.2092959560D+01 EUMP2 =    -0.67162788488464D+03

 The electronic state is 1-A.
 Alpha  occ. eigenvalues --  -20.60804 -20.60792 -15.85842 -11.31200 -11.27805
 Alpha  occ. eigenvalues --  -11.27788 -11.27565 -11.26829 -11.26808 -11.21788
 Alpha  occ. eigenvalues --  -11.21543 -11.21510 -11.21443 -11.21239 -11.20730
 Alpha  occ. eigenvalues --   -1.59864  -1.39419  -1.19417  -1.08797  -1.08508
 Alpha  occ. eigenvalues --   -1.04828  -1.03554  -0.96001  -0.95628  -0.87023
 Alpha  occ. eigenvalues --   -0.86208  -0.82465  -0.79635  -0.78326  -0.77506
 Alpha  occ. eigenvalues --   -0.72067  -0.71181  -0.70521  -0.65156  -0.65063
 Alpha  occ. eigenvalues --   -0.64817  -0.62169  -0.60980  -0.59358  -0.57608
 Alpha  occ. eigenvalues --   -0.55415  -0.55296  -0.53269  -0.52905  -0.52648
 Alpha  occ. eigenvalues --   -0.52300  -0.49914  -0.48827  -0.48820  -0.47922
 Alpha  occ. eigenvalues --   -0.46678  -0.45856  -0.45803  -0.44823  -0.43791
 Alpha  occ. eigenvalues --   -0.37360  -0.36371
 Alpha virt. eigenvalues --    0.05003   0.11201   0.16485   0.21240   0.22801
 Alpha virt. eigenvalues --    0.24288   0.26462   0.27318   0.27426   0.27867
 Alpha virt. eigenvalues --    0.28470   0.30867   0.31400   0.31745   0.32149

 Mulliken charges:
               1
     1  C   -0.170476
     2  C   -0.218338
     3  C   -0.170639
     4  C    0.164206
     5  C   -0.175957
     6  C   -0.217688
     7  H    0.225966
     8  H    0.223738
     9  H    0.275974
    10  H    0.276381
    11  H    0.223653
    12  N    0.489045
    13  O   -0.460671
    14  O   -0.460111
    15  C   -0.297161
    16  C   -0.298897
    17  C   -0.488414
    18  H    0.150115
    19  H    0.144325
    20  H    0.153744
    21  H    0.149184
    22  H    0.157039
    23  H    0.153953
    24  H    0.172085
    25  C   -0.298115
    26  C   -0.299059
    27  C   -0.475629
    28  H    0.151193
    29  H    0.148387
    30  H    0.152349
    31  H    0.148781
    32  H    0.154787
    33  H    0.156366
    34  H    0.159883
 Sum of Mulliken charges =  -0.00000

 Dipole moment (field-independent basis, Debye):
    X=             -1.7132    Y=              4.8433    Z=             -0.1412  Tot=              5.1393
 Quadrupole moment (field-independent basis, Debye-Ang):
   XX=           -105.2766   YY=            -93.4282   ZZ=            -91.1933
   XY=             14.7458   XZ=             -2.5787   YZ=              0.2794

 Normal termination of Gaussian 16 at Thu May  6 01:16:35 2021.
