 Gaussian 16, Revision A.03,
 Gaussian 16:  EM64L-G16RevA.03 25-Dec-2016

 -------------
 #p 6-31g* mp2
 -------------

 ------------------------------------------------------
 Input file generated by CHIRIPA (05-May-2021 14:51:12)
 ------------------------------------------------------
 Symbolic Z-matrix:
 Charge =  0 Multiplicity = 1

                         Standard orientation:
 ---------------------------------------------------------------------
 Center     Atomic      Atomic             Coordinates (Angstroms)
 Number     Number       Type             X           Y           Z
 ---------------------------------------------------------------------
      1          6           0        3.587732   -0.525640    0.120410
      2          6           0        4.098801   -1.647849   -0.783713
      3          6           0        4.035420   -3.021215   -0.114652
      4          1           0        4.178711   -0.511590    1.046417
      5          1           0        2.551654   -0.743981    0.414119
      6          1           0        5.133144   -1.426762   -1.076752
      7          1           0        3.506661   -1.659106   -1.707758
      8          1           0        3.005348   -3.267451    0.162692
      9          1           0        4.641072   -3.033787    0.797284
     10          1           0        4.405485   -3.808692   -0.778574
     11          6           0        3.644791    0.853366   -0.534431
     12          6           0        3.133721    1.975576    0.369692
     13          6           0        3.197103    3.348942   -0.299369
     14          1           0        4.680868    1.071707   -0.828141
     15          1           0        3.053811    0.839316   -1.460439
     16          1           0        3.725861    1.986832    1.293737
     17          1           0        2.099378    1.754489    0.662730
     18          1           0        2.591451    3.361514   -1.211306
     19          1           0        4.227175    3.595177   -0.576714
     20          1           0        2.827038    4.136418    0.364553
     21          6           0       -3.100584   -0.070085    0.762631
     22          6           0       -1.699285   -0.543992    0.375644
     23          6           0       -0.678757   -0.349835    1.497525
     24          1           0       -3.057670    0.991675    1.041503
     25          1           0       -3.430260   -0.615309    1.657863
     26          1           0       -1.372909    0.000974   -0.519403
     27          1           0       -1.745574   -1.604698    0.097477
     28          1           0       -0.977891   -0.907163    2.391117
     29          1           0       -0.603109    0.707632    1.770731
     30          1           0        0.316092   -0.695239    1.199476
     31          6           0       -4.131939   -0.257641   -0.348610
     32          6           0       -5.533238    0.216266    0.038377
     33          6           0       -6.553766    0.022109   -1.083504
     34          1           0       -3.802263    0.287583   -1.243841
     35          1           0       -4.174853   -1.319401   -0.627481
     36          1           0       -5.486949    1.276972    0.316544
     37          1           0       -5.859612   -0.328699    0.933424
     38          1           0       -6.629413   -1.035358   -1.356710
     39          1           0       -6.254632    0.579436   -1.977096
     40          1           0       -7.548615    0.367513   -0.785455
 ---------------------------------------------------------------------

 SCF Done:  E(RHF) =  -470.733287502     A.U. after   11 cycles
 E2 =    -0.1582909002D+01 EUMP2 =    -0.47231619650406D+03

 The electronic state is 1-A.
 Alpha  occ. eigenvalues --  -11.21665 -11.21626 -11.21596 -11.21559 -11.21443
 Alpha  occ. eigenvalues --  -11.21390 -11.21383 -11.21331 -11.21128 -11.21091
 Alpha  occ. eigenvalues --  -11.21070 -11.21056  -1.08473  -1.08416  -1.03574
 Alpha  occ. eigenvalues --   -1.03514  -0.96030  -0.95964  -0.87044  -0.86982
 Alpha  occ. eigenvalues --   -0.79639  -0.79575  -0.78285  -0.78229  -0.65118
 Alpha  occ. eigenvalues --   -0.65050  -0.60993  -0.60889  -0.59411  -0.59334
 Alpha  occ. eigenvalues --   -0.57691  -0.57532  -0.55308  -0.55261  -0.52781
 Alpha  occ. eigenvalues --   -0.52640  -0.52480  -0.52345  -0.49979  -0.49895
 Alpha  occ. eigenvalues --   -0.47995  -0.47866  -0.46700  -0.46576  -0.45823
 Alpha  occ. eigenvalues --   -0.45774  -0.45748  -0.45679  -0.43797  -0.43736
 Alpha virt. eigenvalues --    0.20788   0.23092   0.24059   0.24160   0.26078
 Alpha virt. eigenvalues --    0.26616   0.27082   0.27387   0.27943   0.28812
 Alpha virt. eigenvalues --    0.30564   0.31587   0.31736   0.31920   0.32115

 Mulliken charges:
               1
     1  C   -0.307598
     2  C   -0.299022
     3  C   -0.475705
     4  H    0.149879
     5  H    0.157673
     6  H    0.152021
     7  H    0.151846
     8  H    0.154798
     9  H    0.155307
    10  H    0.160289
    11  C   -0.297535
    12  C   -0.302689
    13  C   -0.475656
    14  H    0.149508
    15  H    0.149252
    16  H    0.151870
    17  H    0.155425
    18  H    0.154842
    19  H    0.155139
    20  H    0.160047
    21  C   -0.298601
    22  C   -0.299197
    23  C   -0.485043
    24  H    0.149827
    25  H    0.149769
    26  H    0.151619
    27  H    0.151942
    28  H    0.155904
    29  H    0.156156
    30  H    0.167605
    31  C   -0.298278
    32  C   -0.299693
    33  C   -0.475732
    34  H    0.149516
    35  H    0.149705
    36  H    0.152022
    37  H    0.152009
    38  H    0.155213
    39  H    0.155207
    40  H    0.160358
 Sum of Mulliken charges =  -0.00000

 Dipole moment (field-independent basis, Debye):
    X=             -0.0195    Y=             -0.0073    Z=              0.0143  Tot=              0.0253
 Quadrupole moment (field-independent basis, Debye-Ang):
   XX=            -84.5561   YY=            -85.0466   ZZ=            -85.1495
   XY=              0.2714   XZ=             -0.3253   YZ=              0.0224

 Normal termination of Gaussian 16 at Wed May  5 18:19:46 2021.
