 Gaussian 16, Revision A.03,
 Gaussian 16:  EM64L-G16RevA.03 25-Dec-2016

 -------------
 #p 6-31g* mp2
 -------------

 ------------------------------------------------------
 Input file generated by CHIRIPA (05-May-2021 14:53:13)
 ------------------------------------------------------
 Symbolic Z-matrix:
 Charge =  0 Multiplicity = 1

                         Standard orientation:
 ---------------------------------------------------------------------
 Center     Atomic      Atomic             Coordinates (Angstroms)
 Number     Number       Type             X           Y           Z
 ---------------------------------------------------------------------
      1          6           0       -3.659690   -0.561885    0.559558
      2          6           0       -3.577175   -1.896534   -0.181985
      3          6           0       -3.947958   -3.087795    0.701876
      4          1           0       -2.994240   -0.593297    1.433134
      5          1           0       -4.678968   -0.428444    0.947708
      6          1           0       -2.558722   -2.026779   -0.569810
      7          1           0       -4.242753   -1.861872   -1.054006
      8          1           0       -4.970942   -2.984755    1.078024
      9          1           0       -3.277343   -3.150599    1.564971
     10          1           0       -3.882222   -4.031686    0.151777
     11          6           0       -3.291893    0.638493   -0.310814
     12          6           0       -3.374408    1.973143    0.430729
     13          6           0       -3.003625    3.164403   -0.453133
     14          1           0       -2.272615    0.505052   -0.698965
     15          1           0       -3.957343    0.669905   -1.184390
     16          1           0       -2.708829    1.938480    1.302749
     17          1           0       -4.392860    2.103388    0.818553
     18          1           0       -3.674240    3.227208   -1.316227
     19          1           0       -1.980641    3.061363   -0.829280
     20          1           0       -3.069361    4.108294    0.096967
     21          6           0        5.162240   -0.249884    0.478002
     22          6           0        4.532159   -1.235286   -0.289137
     23          6           0        3.176919   -1.123780   -0.613849
     24          6           0        2.478916   -0.008660   -0.152770
     25          6           0        3.078453    0.989813    0.613321
     26          6           0        4.434659    0.857568    0.925993
     27          1           0        6.215399   -0.344559    0.725568
     28          1           0        5.094720   -2.096433   -0.638415
     29          1           0        2.664221   -1.871915   -1.206177
     30          1           0        2.491443    1.836810    0.947140
     31          1           0        4.921378    1.624389    1.521925
     32          7           0        1.043673    0.120365   -0.490155
     33          8           0        0.450870    1.112442   -0.071822
     34          8           0        0.538708   -0.773027   -1.166541
 ---------------------------------------------------------------------

 SCF Done:  E(RHF) =  -669.537544999     A.U. after   15 cycles
 E2 =    -0.2092528860D+01 EUMP2 =    -0.67163007385883D+03

 The electronic state is 1-A.
 Alpha  occ. eigenvalues --  -20.61322 -20.61313 -15.86288 -11.31494 -11.28032
 Alpha  occ. eigenvalues --  -11.28029 -11.27749 -11.27010 -11.27000 -11.20133
 Alpha  occ. eigenvalues --  -11.19993 -11.19932 -11.19831 -11.19485 -11.19317
 Alpha  occ. eigenvalues --   -1.60335  -1.39894  -1.19643  -1.09072  -1.06764
 Alpha  occ. eigenvalues --   -1.05018  -1.02011  -0.95930  -0.94481  -0.86424
 Alpha  occ. eigenvalues --   -0.85506  -0.82769  -0.78092  -0.77840  -0.76545
 Alpha  occ. eigenvalues --   -0.72495  -0.71626  -0.70749  -0.65299  -0.65024
 Alpha  occ. eigenvalues --   -0.63374  -0.62364  -0.59394  -0.57875  -0.56102
 Alpha  occ. eigenvalues --   -0.55529  -0.53760  -0.53355  -0.53106  -0.51251
 Alpha  occ. eigenvalues --   -0.50927  -0.49349  -0.49264  -0.48375  -0.46417
 Alpha  occ. eigenvalues --   -0.45325  -0.45089  -0.44150  -0.43786  -0.42222
 Alpha  occ. eigenvalues --   -0.37614  -0.36611
 Alpha virt. eigenvalues --    0.04672   0.11046   0.16189   0.21177   0.24504
 Alpha virt. eigenvalues --    0.25712   0.27127   0.27947   0.28401   0.29261
 Alpha virt. eigenvalues --    0.29462   0.30835   0.32228   0.32808   0.33047

 Mulliken charges:
               1
     1  C   -0.295426
     2  C   -0.303715
     3  C   -0.474346
     4  H    0.146523
     5  H    0.141653
     6  H    0.166059
     7  H    0.147618
     8  H    0.151335
     9  H    0.151755
    10  H    0.155759
    11  C   -0.311188
    12  C   -0.293770
    13  C   -0.479472
    14  H    0.182907
    15  H    0.140106
    16  H    0.152001
    17  H    0.142327
    18  H    0.148755
    19  H    0.169057
    20  H    0.151018
    21  C   -0.170096
    22  C   -0.218644
    23  C   -0.170368
    24  C    0.158909
    25  C   -0.170490
    26  C   -0.218615
    27  H    0.226779
    28  H    0.224573
    29  H    0.276281
    30  H    0.276309
    31  H    0.224604
    32  N    0.489978
    33  O   -0.459529
    34  O   -0.458646
 Sum of Mulliken charges =  -0.00000

 Dipole moment (field-independent basis, Debye):
    X=              5.7181    Y=             -0.4808    Z=              1.0707  Tot=              5.8373
 Quadrupole moment (field-independent basis, Debye-Ang):
   XX=            -71.3067   YY=            -93.1230   ZZ=            -94.8694
   XY=             -1.5993   XZ=              2.9328   YZ=              3.2465

 Normal termination of Gaussian 16 at Thu May  6 13:45:16 2021.
