 Gaussian 16, Revision A.03,
 Gaussian 16:  EM64L-G16RevA.03 25-Dec-2016

 -------------
 #p 6-31g* mp2
 -------------

 ------------------------------------------------------
 Input file generated by CHIRIPA (05-May-2021 14:57:23)
 ------------------------------------------------------
 Symbolic Z-matrix:
 Charge =  0 Multiplicity = 1

                         Standard orientation:
 ---------------------------------------------------------------------
 Center     Atomic      Atomic             Coordinates (Angstroms)
 Number     Number       Type             X           Y           Z
 ---------------------------------------------------------------------
      1          6           0       -1.948675    1.862864   -0.214649
      2          6           0       -2.262657    1.368243    1.055503
      3          6           0       -3.288388    0.432539    1.219462
      4          6           0       -3.982795    0.011382    0.086450
      5          6           0       -3.693591    0.485521   -1.192160
      6          6           0       -2.663884    1.420704   -1.332456
      7          1           0       -1.150319    2.589539   -0.332826
      8          1           0       -1.708897    1.709838    1.925393
      9          1           0       -3.552306    0.033150    2.191189
     10          1           0       -4.263316    0.126116   -2.040488
     11          1           0       -2.422227    1.803107   -2.320087
     12          7           0       -5.070795   -0.978930    0.247501
     13          8           0       -5.667616   -1.334026   -0.766575
     14          8           0       -5.306147   -1.381289    1.384758
     15          6           0        1.327465    0.096518   -0.462116
     16          6           0        2.088312    1.184396   -0.021485
     17          6           0        3.460968    1.045700    0.204633
     18          6           0        4.042851   -0.200808   -0.021023
     19          6           0        3.311693   -1.303542   -0.459972
     20          6           0        1.940503   -1.141795   -0.679570
     21          1           0        0.261722    0.213214   -0.635238
     22          1           0        1.614893    2.147264    0.148224
     23          1           0        4.073720    1.871260    0.545809
     24          1           0        3.811787   -2.250956   -0.620375
     25          1           0        1.352105   -1.988399   -1.021763
     26          7           0        5.495245   -0.359840    0.214907
     27          8           0        5.984105   -1.468502    0.008698
     28          8           0        6.117268    0.627182    0.601571
 ---------------------------------------------------------------------

 SCF Done:  E(RHF) =  -868.336575340     A.U. after   16 cycles
 E2 =    -0.2601485820D+01 EUMP2 =    -0.87093806116063D+03

 The electronic state is 1-A.
 Alpha  occ. eigenvalues --  -20.61643 -20.61636 -20.61111 -20.61102 -15.86701
 Alpha  occ. eigenvalues --  -15.86170 -11.32317 -11.31601 -11.28879 -11.28857
 Alpha  occ. eigenvalues --  -11.28750 -11.28257 -11.28166 -11.28003 -11.27977
 Alpha  occ. eigenvalues --  -11.27840 -11.27333 -11.27139  -1.60712  -1.60185
 Alpha  occ. eigenvalues --   -1.40258  -1.39736  -1.20530  -1.19796  -1.09916
 Alpha  occ. eigenvalues --   -1.09165  -1.05929  -1.05225  -0.96697  -0.95980
 Alpha  occ. eigenvalues --   -0.87323  -0.86625  -0.83484  -0.82829  -0.78462
 Alpha  occ. eigenvalues --   -0.77875  -0.72912  -0.72387  -0.72041  -0.71734
 Alpha  occ. eigenvalues --   -0.71511  -0.70836  -0.66165  -0.65913  -0.65446
 Alpha  occ. eigenvalues --   -0.65258  -0.63233  -0.62583  -0.56500  -0.55911
 Alpha  occ. eigenvalues --   -0.54067  -0.53997  -0.53536  -0.53324  -0.49692
 Alpha  occ. eigenvalues --   -0.49653  -0.49151  -0.49134  -0.45606  -0.45127
 Alpha  occ. eigenvalues --   -0.38560  -0.37820  -0.37477  -0.36841
 Alpha virt. eigenvalues --    0.03994   0.04681   0.10056   0.10810   0.15313
 Alpha virt. eigenvalues --    0.16163   0.18667   0.21891   0.24765   0.26350
 Alpha virt. eigenvalues --    0.27917   0.29196   0.29690   0.31298   0.31731

 Mulliken charges:
               1
     1  C   -0.188295
     2  C   -0.216945
     3  C   -0.170235
     4  C    0.159616
     5  C   -0.170816
     6  C   -0.220500
     7  H    0.226031
     8  H    0.227836
     9  H    0.280046
    10  H    0.279435
    11  H    0.228063
    12  N    0.487724
    13  O   -0.457534
    14  O   -0.456894
    15  C   -0.177351
    16  C   -0.224719
    17  C   -0.169763
    18  C    0.157979
    19  C   -0.169553
    20  C   -0.220889
    21  H    0.235994
    22  H    0.212202
    23  H    0.275750
    24  H    0.277379
    25  H    0.226617
    26  N    0.488035
    27  O   -0.458832
    28  O   -0.460379
 Sum of Mulliken charges =  -0.00000

 Dipole moment (field-independent basis, Debye):
    X=             -1.5980    Y=              3.8771    Z=             -1.3636  Tot=              4.4097
 Quadrupole moment (field-independent basis, Debye-Ang):
   XX=           -176.4798   YY=           -101.1488   ZZ=           -100.1859
   XY=            -10.4627   XZ=              0.2699   YZ=              1.8883

 Normal termination of Gaussian 16 at Thu May  6 09:45:44 2021.
