 Gaussian 16, Revision A.03,
 Gaussian 16:  EM64L-G16RevA.03 25-Dec-2016

 -------------
 #p 6-31g* mp2
 -------------

 ------------------------------------------------------
 Input file generated by CHIRIPA (05-May-2021 14:53:18)
 ------------------------------------------------------
 Symbolic Z-matrix:
 Charge =  0 Multiplicity = 1

                         Standard orientation:
 ---------------------------------------------------------------------
 Center     Atomic      Atomic             Coordinates (Angstroms)
 Number     Number       Type             X           Y           Z
 ---------------------------------------------------------------------
      1          6           0        4.934847    0.113399   -0.289493
      2          6           0        6.289570   -0.561372   -0.071786
      3          6           0        7.458714    0.281861   -0.581543
      4          1           0        4.801955    0.317473   -1.360772
      5          1           0        4.933129    1.088509    0.217018
      6          1           0        6.288243   -1.535525   -0.577396
      7          1           0        6.419170   -0.764037    0.999076
      8          1           0        7.488371    1.248960   -0.069252
      9          1           0        7.356700    0.473089   -1.654681
     10          1           0        8.417465   -0.219352   -0.415886
     11          6           0        3.756231   -0.717348    0.214939
     12          6           0        2.401509   -0.042576   -0.002767
     13          6           0        1.232364   -0.885810    0.506990
     14          1           0        3.757949   -1.692457   -0.291571
     15          1           0        3.889123   -0.921422    1.286218
     16          1           0        2.271909    0.160089   -1.073629
     17          1           0        2.402836    0.931576    0.502843
     18          1           0        1.334378   -1.077038    1.580128
     19          1           0        1.202707   -1.852908   -0.005302
     20          1           0        0.273613   -0.384597    0.341333
     21          6           0       -1.780328    2.071284    0.653897
     22          6           0       -1.906127    0.941987    1.469608
     23          6           0       -2.797574   -0.081107    1.133231
     24          6           0       -3.551048    0.058481   -0.031278
     25          6           0       -3.448280    1.171372   -0.864467
     26          6           0       -2.550448    2.182176   -0.508489
     27          1           0       -1.085352    2.861274    0.922816
     28          1           0       -1.309319    0.853175    2.372924
     29          1           0       -2.914877   -0.966184    1.746661
     30          1           0       -4.056672    1.231542   -1.758703
     31          1           0       -2.454839    3.058069   -1.143874
     32          7           0       -4.498162   -1.018118   -0.397762
     33          8           0       -5.150607   -0.871195   -1.428959
     34          8           0       -4.570133   -1.988492    0.353125
 ---------------------------------------------------------------------

 SCF Done:  E(RHF) =  -669.534838913     A.U. after   15 cycles
 E2 =    -0.2092164421D+01 EUMP2 =    -0.67162700333373D+03

 The electronic state is 1-A.
 Alpha  occ. eigenvalues --  -20.60794 -20.60789 -15.85848 -11.31243 -11.27798
 Alpha  occ. eigenvalues --  -11.27789 -11.27545 -11.26833 -11.26807 -11.22023
 Alpha  occ. eigenvalues --  -11.21868 -11.21733 -11.21672 -11.21316 -11.21311
 Alpha  occ. eigenvalues --   -1.59868  -1.39421  -1.19423  -1.08817  -1.08754
 Alpha  occ. eigenvalues --   -1.04831  -1.03846  -0.96288  -0.95635  -0.87312
 Alpha  occ. eigenvalues --   -0.86213  -0.82465  -0.79920  -0.78575  -0.77507
 Alpha  occ. eigenvalues --   -0.72065  -0.71191  -0.70511  -0.65395  -0.65066
 Alpha  occ. eigenvalues --   -0.64820  -0.62167  -0.61249  -0.59699  -0.57929
 Alpha  occ. eigenvalues --   -0.55579  -0.55313  -0.53597  -0.52913  -0.52792
 Alpha  occ. eigenvalues --   -0.52424  -0.50233  -0.48827  -0.48818  -0.48225
 Alpha  occ. eigenvalues --   -0.46964  -0.46113  -0.46045  -0.44820  -0.44110
 Alpha  occ. eigenvalues --   -0.37381  -0.36350
 Alpha virt. eigenvalues --    0.05015   0.11190   0.16488   0.21070   0.22624
 Alpha virt. eigenvalues --    0.24080   0.26246   0.26788   0.27175   0.28208
 Alpha virt. eigenvalues --    0.28353   0.30589   0.31163   0.31751   0.32055

 Mulliken charges:
               1
     1  C   -0.298201
     2  C   -0.299848
     3  C   -0.475806
     4  H    0.150032
     5  H    0.147745
     6  H    0.153113
     7  H    0.151956
     8  H    0.154586
     9  H    0.155515
    10  H    0.161176
    11  C   -0.298145
    12  C   -0.297951
    13  C   -0.486254
    14  H    0.151802
    15  H    0.149060
    16  H    0.153113
    17  H    0.144824
    18  H    0.148829
    19  H    0.158705
    20  H    0.170473
    21  C   -0.170852
    22  C   -0.219875
    23  C   -0.170133
    24  C    0.159231
    25  C   -0.171300
    26  C   -0.218038
    27  H    0.226348
    28  H    0.225880
    29  H    0.276500
    30  H    0.275835
    31  H    0.223877
    32  N    0.488083
    33  O   -0.460304
    34  O   -0.459977
 Sum of Mulliken charges =  -0.00000

 Dipole moment (field-independent basis, Debye):
    X=              3.2887    Y=              3.7902    Z=              1.2630  Tot=              5.1746
 Quadrupole moment (field-independent basis, Debye-Ang):
   XX=           -119.6515   YY=            -93.5184   ZZ=            -91.0105
   XY=            -14.6765   XZ=             -3.2431   YZ=             -1.8377

 Normal termination of Gaussian 16 at Wed May  5 20:26:10 2021.
