 Gaussian 16, Revision A.03,
 Gaussian 16:  EM64L-G16RevA.03 25-Dec-2016

 -------------
 #p 6-31g* mp2
 -------------

 ------------------------------------------------------
 Input file generated by CHIRIPA (05-May-2021 14:55:19)
 ------------------------------------------------------
 Symbolic Z-matrix:
 Charge =  0 Multiplicity = 1

                         Standard orientation:
 ---------------------------------------------------------------------
 Center     Atomic      Atomic             Coordinates (Angstroms)
 Number     Number       Type             X           Y           Z
 ---------------------------------------------------------------------
      1          6           0       -0.598161   -0.193000    0.182562
      2          6           0       -1.350523    0.205244    1.292460
      3          6           0       -2.745974    0.255205    1.223399
      4          6           0       -3.359058   -0.101469    0.023315
      5          6           0       -2.637093   -0.502404   -1.099764
      6          6           0       -1.242710   -0.544932   -1.007909
      7          1           0        0.485444   -0.228924    0.245063
      8          1           0       -0.852649    0.479117    2.218289
      9          1           0       -3.352810    0.559846    2.067415
     10          1           0       -3.161756   -0.769533   -2.009044
     11          1           0       -0.660971   -0.854598   -1.871467
     12          7           0       -4.835793   -0.052512   -0.061862
     13          8           0       -5.351980   -0.371709   -1.130647
     14          8           0       -5.449110    0.304131    0.941775
     15          6           0        4.288058   -0.452224    0.329624
     16          6           0        4.036423   -1.796759   -0.353669
     17          6           0        4.642661   -2.972308    0.413376
     18          1           0        5.370631   -0.300939    0.439589
     19          1           0        3.871740   -0.481788    1.346088
     20          1           0        4.451872   -1.764191   -1.369030
     21          1           0        2.954328   -1.944774   -0.462193
     22          1           0        4.220468   -3.033187    1.421665
     23          1           0        5.726520   -2.851578    0.509677
     24          1           0        4.450904   -3.923597   -0.092725
     25          6           0        3.688068    0.732641   -0.425249
     26          6           0        3.939702    2.077177    0.258044
     27          6           0        3.333464    3.252724   -0.509001
     28          1           0        4.104385    0.762206   -1.441714
     29          1           0        2.605494    0.581357   -0.535215
     30          1           0        5.021797    2.225191    0.366568
     31          1           0        3.524253    2.044608    1.273405
     32          1           0        2.249604    3.131994   -0.605302
     33          1           0        3.755657    3.313604   -1.517290
     34          1           0        3.525220    4.204014   -0.002900
 ---------------------------------------------------------------------

 SCF Done:  E(RHF) =  -669.535463644     A.U. after   15 cycles
 E2 =    -0.2091399390D+01 EUMP2 =    -0.67162686303384D+03

 The electronic state is 1-A.
 Alpha  occ. eigenvalues --  -20.60761 -20.60756 -15.85815 -11.31188 -11.27755
 Alpha  occ. eigenvalues --  -11.27750 -11.27482 -11.26777 -11.26764 -11.22617
 Alpha  occ. eigenvalues --  -11.22555 -11.22495 -11.22395 -11.21870 -11.21834
 Alpha  occ. eigenvalues --   -1.59836  -1.39389  -1.19359  -1.09455  -1.08753
 Alpha  occ. eigenvalues --   -1.04763  -1.04442  -0.96881  -0.95589  -0.87888
 Alpha  occ. eigenvalues --   -0.86160  -0.82423  -0.80510  -0.79284  -0.77464
 Alpha  occ. eigenvalues --   -0.72032  -0.71159  -0.70501  -0.66103  -0.65011
 Alpha  occ. eigenvalues --   -0.64761  -0.62110  -0.61843  -0.60243  -0.58495
 Alpha  occ. eigenvalues --   -0.56220  -0.55244  -0.53530  -0.53287  -0.53091
 Alpha  occ. eigenvalues --   -0.52854  -0.50821  -0.48818  -0.48791  -0.48787
 Alpha  occ. eigenvalues --   -0.47562  -0.46798  -0.46739  -0.44793  -0.44728
 Alpha  occ. eigenvalues --   -0.37338  -0.36367
 Alpha virt. eigenvalues --    0.05052   0.11283   0.16482   0.18328   0.22888
 Alpha virt. eigenvalues --    0.23444   0.24887   0.26119   0.26995   0.27477
 Alpha virt. eigenvalues --    0.30096   0.30493   0.31064   0.31144   0.32209

 Mulliken charges:
               1
     1  C   -0.178398
     2  C   -0.220111
     3  C   -0.170669
     4  C    0.158502
     5  C   -0.170860
     6  C   -0.220782
     7  H    0.236167
     8  H    0.223649
     9  H    0.275565
    10  H    0.275698
    11  H    0.223692
    12  N    0.488004
    13  O   -0.460366
    14  O   -0.460401
    15  C   -0.299278
    16  C   -0.299913
    17  C   -0.475985
    18  H    0.154785
    19  H    0.147475
    20  H    0.155079
    21  H    0.144027
    22  H    0.155741
    23  H    0.158071
    24  H    0.162956
    25  C   -0.302567
    26  C   -0.299789
    27  C   -0.476609
    28  H    0.154373
    29  H    0.140189
    30  H    0.155980
    31  H    0.150019
    32  H    0.154782
    33  H    0.157352
    34  H    0.163623
 Sum of Mulliken charges =  -0.00000

 Dipole moment (field-independent basis, Debye):
    X=              5.4390    Y=             -0.1450    Z=              0.2828  Tot=              5.4483
 Quadrupole moment (field-independent basis, Debye-Ang):
   XX=           -128.5516   YY=            -95.4948   ZZ=            -90.1755
   XY=              0.4567   XZ=             -1.8304   YZ=              2.0226

 Normal termination of Gaussian 16 at Thu May  6 10:47:06 2021.
