 Gaussian 16, Revision A.03,
 Gaussian 16:  EM64L-G16RevA.03 25-Dec-2016

 -------------
 #p 6-31g* mp2
 -------------

 ------------------------------------------------------
 Input file generated by CHIRIPA (05-May-2021 14:53:18)
 ------------------------------------------------------
 Symbolic Z-matrix:
 Charge =  0 Multiplicity = 1

                         Standard orientation:
 ---------------------------------------------------------------------
 Center     Atomic      Atomic             Coordinates (Angstroms)
 Number     Number       Type             X           Y           Z
 ---------------------------------------------------------------------
      1          6           0        3.596267    0.222656    0.117762
      2          6           0        2.556454   -0.338091    1.088502
      3          6           0        1.159351    0.237908    0.855858
      4          1           0        3.628005    1.316405    0.215995
      5          1           0        3.278017    0.010449   -0.912326
      6          1           0        2.877261   -0.126104    2.116490
      7          1           0        2.527323   -1.430650    0.988083
      8          1           0        0.814449    0.014121   -0.158816
      9          1           0        1.166376    1.326079    0.976003
     10          1           0        0.431762   -0.176538    1.560634
     11          6           0        4.997916   -0.343646    0.337785
     12          6           0        6.037729    0.217101   -0.632955
     13          6           0        7.434832   -0.358898   -0.400311
     14          1           0        5.316165   -0.131439    1.367873
     15          1           0        4.966177   -1.437395    0.239552
     16          1           0        6.066860    1.309659   -0.532535
     17          1           0        5.716922    0.005114   -1.660943
     18          1           0        7.427807   -1.447069   -0.520456
     19          1           0        7.779733   -0.135111    0.614363
     20          1           0        8.162421    0.055548   -1.105087
     21          6           0       -2.717148    2.487210   -0.233053
     22          6           0       -1.839313    1.521742   -0.736839
     23          6           0       -2.183445    0.166944   -0.711450
     24          6           0       -3.418971   -0.188624   -0.172620
     25          6           0       -4.315126    0.749725    0.336986
     26          6           0       -3.950079    2.098804    0.301310
     27          1           0       -2.441694    3.537428   -0.256771
     28          1           0       -0.881143    1.820477   -1.152427
     29          1           0       -1.522867   -0.601287   -1.094694
     30          1           0       -5.263332    0.421319    0.744998
     31          1           0       -4.633809    2.846419    0.693266
     32          7           0       -3.794359   -1.619860   -0.140297
     33          8           0       -4.888723   -1.907272    0.339703
     34          8           0       -2.987117   -2.427152   -0.595574
 ---------------------------------------------------------------------

 SCF Done:  E(RHF) =  -669.534740166     A.U. after   15 cycles
 E2 =    -0.2092060677D+01 EUMP2 =    -0.67162680084262D+03

 The electronic state is 1-A.
 Alpha  occ. eigenvalues --  -20.60722 -20.60717 -15.85775 -11.31115 -11.27681
 Alpha  occ. eigenvalues --  -11.27666 -11.27417 -11.26701 -11.26657 -11.21955
 Alpha  occ. eigenvalues --  -11.21850 -11.21774 -11.21662 -11.21640 -11.21257
 Alpha  occ. eigenvalues --   -1.59798  -1.39352  -1.19289  -1.08764  -1.08687
 Alpha  occ. eigenvalues --   -1.04699  -1.03868  -0.96347  -0.95526  -0.87374
 Alpha  occ. eigenvalues --   -0.86086  -0.82367  -0.79948  -0.78575  -0.77400
 Alpha  occ. eigenvalues --   -0.71994  -0.71121  -0.70406  -0.65396  -0.64942
 Alpha  occ. eigenvalues --   -0.64696  -0.62097  -0.61242  -0.59695  -0.57938
 Alpha  occ. eigenvalues --   -0.55657  -0.55188  -0.53299  -0.52920  -0.52768
 Alpha  occ. eigenvalues --   -0.52599  -0.50293  -0.48751  -0.48749  -0.48253
 Alpha  occ. eigenvalues --   -0.46967  -0.46117  -0.46031  -0.44763  -0.44116
 Alpha  occ. eigenvalues --   -0.37272  -0.36225
 Alpha virt. eigenvalues --    0.05112   0.11346   0.16559   0.20550   0.22669
 Alpha virt. eigenvalues --    0.23954   0.25737   0.26423   0.27334   0.28007
 Alpha virt. eigenvalues --    0.29071   0.30822   0.31086   0.31551   0.32172

 Mulliken charges:
               1
     1  C   -0.298579
     2  C   -0.301437
     3  C   -0.473820
     4  H    0.147445
     5  H    0.147816
     6  H    0.153765
     7  H    0.156702
     8  H    0.144744
     9  H    0.151067
    10  H    0.167760
    11  C   -0.298576
    12  C   -0.299816
    13  C   -0.475936
    14  H    0.150364
    15  H    0.151831
    16  H    0.151073
    17  H    0.151906
    18  H    0.156336
    19  H    0.155556
    20  H    0.160655
    21  C   -0.172396
    22  C   -0.214352
    23  C   -0.168972
    24  C    0.157055
    25  C   -0.171498
    26  C   -0.218656
    27  H    0.225112
    28  H    0.224589
    29  H    0.275305
    30  H    0.275201
    31  H    0.223007
    32  N    0.488257
    33  O   -0.460674
    34  O   -0.460835
 Sum of Mulliken charges =  -0.00000

 Dipole moment (field-independent basis, Debye):
    X=              1.4202    Y=              5.0064    Z=             -0.0465  Tot=              5.2042
 Quadrupole moment (field-independent basis, Debye-Ang):
   XX=           -101.1364   YY=            -96.5415   ZZ=            -94.0411
   XY=            -18.5402   XZ=             -1.8232   YZ=              0.2107

 Normal termination of Gaussian 16 at Thu May  6 01:16:09 2021.
