 Gaussian 16, Revision A.03,
 Gaussian 16:  EM64L-G16RevA.03 25-Dec-2016

 -------------
 #p 6-31g* mp2
 -------------

 ------------------------------------------------------
 Input file generated by CHIRIPA (05-May-2021 14:51:10)
 ------------------------------------------------------
 Symbolic Z-matrix:
 Charge =  0 Multiplicity = 1

                         Standard orientation:
 ---------------------------------------------------------------------
 Center     Atomic      Atomic             Coordinates (Angstroms)
 Number     Number       Type             X           Y           Z
 ---------------------------------------------------------------------
      1          6           0        3.520886   -0.042697   -0.251677
      2          6           0        4.747709   -0.924426   -0.016210
      3          6           0        5.673665   -0.985722   -1.231381
      4          1           0        2.964802   -0.423276   -1.119361
      5          1           0        3.851940    0.971920   -0.513114
      6          1           0        4.414430   -1.936729    0.246058
      7          1           0        5.300832   -0.541818    0.851131
      8          1           0        6.034345    0.014643   -1.491727
      9          1           0        5.142906   -1.388194   -2.100238
     10          1           0        6.544106   -1.621348   -1.041188
     11          6           0        2.585627    0.028577    0.954117
     12          6           0        1.358804    0.910306    0.718650
     13          6           0        0.432848    0.971602    1.933821
     14          1           0        2.254573   -0.986041    1.215554
     15          1           0        3.141711    0.409156    1.821801
     16          1           0        0.805681    0.527697   -0.148692
     17          1           0        1.692083    1.922609    0.456382
     18          1           0        0.963607    1.374074    2.802678
     19          1           0        0.072168   -0.028763    2.194167
     20          1           0       -0.437593    1.607228    1.743627
     21          6           0       -2.554866    0.496962   -0.659496
     22          6           0       -2.852977    1.958151   -0.321794
     23          6           0       -1.847227    2.926142   -0.945697
     24          1           0       -1.541715    0.247184   -0.315868
     25          1           0       -2.554048    0.373032   -1.751300
     26          1           0       -2.854599    2.079000    0.769082
     27          1           0       -3.865608    2.204425   -0.666094
     28          1           0       -1.850483    2.834843   -2.036685
     29          1           0       -0.833729    2.708704   -0.593354
     30          1           0       -2.079174    3.965106   -0.691502
     31          6           0       -3.551647   -0.482842   -0.042943
     32          6           0       -3.253536   -1.944030   -0.380646
     33          6           0       -4.259286   -2.912022    0.243257
     34          1           0       -3.552465   -0.358913    1.048861
     35          1           0       -4.564799   -0.233065   -0.386571
     36          1           0       -2.240905   -2.190305   -0.036345
     37          1           0       -3.251914   -2.064879   -1.471521
     38          1           0       -5.272784   -2.694585   -0.109085
     39          1           0       -4.256031   -2.820723    1.334245
     40          1           0       -4.027338   -3.950986   -0.010937
 ---------------------------------------------------------------------

 SCF Done:  E(RHF) =  -470.732241005     A.U. after   11 cycles
 E2 =    -0.1584820990D+01 EUMP2 =    -0.47231706199518D+03

 The electronic state is 1-A.
 Alpha  occ. eigenvalues --  -11.21679 -11.21627 -11.21604 -11.21577 -11.21455
 Alpha  occ. eigenvalues --  -11.21390 -11.21361 -11.21285 -11.21152 -11.21087
 Alpha  occ. eigenvalues --  -11.21071 -11.21005  -1.08512  -1.08386  -1.03645
 Alpha  occ. eigenvalues --   -1.03471  -0.96046  -0.95954  -0.87061  -0.86969
 Alpha  occ. eigenvalues --   -0.79725  -0.79528  -0.78371  -0.78150  -0.65294
 Alpha  occ. eigenvalues --   -0.64948  -0.61157  -0.60938  -0.59412  -0.59207
 Alpha  occ. eigenvalues --   -0.57650  -0.57519  -0.55436  -0.55127  -0.52723
 Alpha  occ. eigenvalues --   -0.52653  -0.52460  -0.52367  -0.49979  -0.49906
 Alpha  occ. eigenvalues --   -0.48049  -0.47855  -0.46796  -0.46581  -0.46021
 Alpha  occ. eigenvalues --   -0.45782  -0.45723  -0.45338  -0.43828  -0.43758
 Alpha virt. eigenvalues --    0.20384   0.23064   0.23591   0.24736   0.26124
 Alpha virt. eigenvalues --    0.26536   0.26597   0.27676   0.28119   0.29590
 Alpha virt. eigenvalues --    0.30463   0.30877   0.31528   0.31814   0.32043

 Mulliken charges:
               1
     1  C   -0.298578
     2  C   -0.299706
     3  C   -0.475751
     4  H    0.150077
     5  H    0.149773
     6  H    0.151961
     7  H    0.151993
     8  H    0.155276
     9  H    0.155303
    10  H    0.160339
    11  C   -0.297700
    12  C   -0.306938
    13  C   -0.482873
    14  H    0.149445
    15  H    0.149939
    16  H    0.156875
    17  H    0.152611
    18  H    0.156624
    19  H    0.154843
    20  H    0.166468
    21  C   -0.307791
    22  C   -0.301129
    23  C   -0.483222
    24  H    0.160913
    25  H    0.148806
    26  H    0.151671
    27  H    0.152529
    28  H    0.155089
    29  H    0.163538
    30  H    0.159800
    31  C   -0.297680
    32  C   -0.299533
    33  C   -0.475684
    34  H    0.149811
    35  H    0.149495
    36  H    0.150943
    37  H    0.151823
    38  H    0.155303
    39  H    0.155266
    40  H    0.160071
 Sum of Mulliken charges =  -0.00000

 Dipole moment (field-independent basis, Debye):
    X=              0.0452    Y=              0.0016    Z=              0.0063  Tot=              0.0457
 Quadrupole moment (field-independent basis, Debye-Ang):
   XX=            -85.2422   YY=            -84.8836   ZZ=            -84.7565
   XY=              0.0150   XZ=              1.4898   YZ=              0.4632

 Normal termination of Gaussian 16 at Wed May  5 19:48:03 2021.
