 Gaussian 16, Revision A.03,
 Gaussian 16:  EM64L-G16RevA.03 25-Dec-2016

 -------------
 #p 6-31g* mp2
 -------------

 ------------------------------------------------------
 Input file generated by CHIRIPA (05-May-2021 14:53:14)
 ------------------------------------------------------
 Symbolic Z-matrix:
 Charge =  0 Multiplicity = 1

                         Standard orientation:
 ---------------------------------------------------------------------
 Center     Atomic      Atomic             Coordinates (Angstroms)
 Number     Number       Type             X           Y           Z
 ---------------------------------------------------------------------
      1          6           0       -3.117413    0.978253    0.482062
      2          6           0       -2.214526    2.071061   -0.091131
      3          6           0       -2.271350    3.368454    0.715923
      4          1           0       -4.152046    1.346210    0.515053
      5          1           0       -2.823726    0.777598    1.521716
      6          1           0       -2.508932    2.268620   -1.129838
      7          1           0       -1.181953    1.700391   -0.122941
      8          1           0       -1.957286    3.192997    1.749934
      9          1           0       -3.291804    3.764455    0.737315
     10          1           0       -1.618486    4.135963    0.288654
     11          6           0       -3.071459   -0.324850   -0.313890
     12          6           0       -3.974346   -1.417659    0.259303
     13          6           0       -3.917522   -2.715052   -0.547751
     14          1           0       -3.365146   -0.124195   -1.353544
     15          1           0       -2.036826   -0.692807   -0.346882
     16          1           0       -5.006919   -1.046988    0.291112
     17          1           0       -3.679940   -1.615217    1.298010
     18          1           0       -2.897068   -3.111053   -0.569144
     19          1           0       -4.231586   -2.539595   -1.581762
     20          1           0       -4.570386   -3.482561   -0.120482
     21          6           0        2.126106   -2.721505    0.379855
     22          6           0        1.056897   -1.968770   -0.116836
     23          6           0        1.206973   -0.601568   -0.367404
     24          6           0        2.445702   -0.016806   -0.108766
     25          6           0        3.529888   -0.739917    0.386147
     26          6           0        3.357020   -2.105761    0.629321
     27          1           0        2.000670   -3.783052    0.571630
     28          1           0        0.099812   -2.444308   -0.311509
     29          1           0        0.395908    0.004871   -0.751883
     30          1           0        4.471932   -0.237890    0.570375
     31          1           0        4.189131   -2.687861    1.015062
     32          7           0        2.616645    1.429872   -0.370116
     33          8           0        3.718120    1.921419   -0.133956
     34          8           0        1.645920    2.044836   -0.806176
 ---------------------------------------------------------------------

 SCF Done:  E(RHF) =  -669.535256288     A.U. after   15 cycles
 E2 =    -0.2093424748D+01 EUMP2 =    -0.67162868103572D+03

 The electronic state is 1-A.
 Alpha  occ. eigenvalues --  -20.60862 -20.60856 -15.85895 -11.31223 -11.27794
 Alpha  occ. eigenvalues --  -11.27755 -11.27531 -11.26805 -11.26788 -11.22110
 Alpha  occ. eigenvalues --  -11.21916 -11.21739 -11.21466 -11.21276 -11.20595
 Alpha  occ. eigenvalues --   -1.59926  -1.39482  -1.19397  -1.08800  -1.08682
 Alpha  occ. eigenvalues --   -1.04796  -1.03647  -0.96131  -0.95641  -0.87148
 Alpha  occ. eigenvalues --   -0.86198  -0.82478  -0.79779  -0.78490  -0.77483
 Alpha  occ. eigenvalues --   -0.72120  -0.71240  -0.70517  -0.65365  -0.65049
 Alpha  occ. eigenvalues --   -0.64810  -0.62133  -0.61038  -0.59541  -0.57693
 Alpha  occ. eigenvalues --   -0.55458  -0.55302  -0.53124  -0.52922  -0.52749
 Alpha  occ. eigenvalues --   -0.52549  -0.50109  -0.48913  -0.48874  -0.48045
 Alpha  occ. eigenvalues --   -0.46850  -0.45948  -0.45833  -0.44841  -0.43921
 Alpha  occ. eigenvalues --   -0.37377  -0.36389
 Alpha virt. eigenvalues --    0.04961   0.11214   0.16438   0.18823   0.22917
 Alpha virt. eigenvalues --    0.23470   0.24821   0.26508   0.26979   0.28439
 Alpha virt. eigenvalues --    0.29014   0.31092   0.31494   0.32137   0.32546

 Mulliken charges:
               1
     1  C   -0.298859
     2  C   -0.310520
     3  C   -0.475181
     4  H    0.150975
     5  H    0.149165
     6  H    0.152222
     7  H    0.165664
     8  H    0.153594
     9  H    0.151517
    10  H    0.170558
    11  C   -0.300927
    12  C   -0.299986
    13  C   -0.475403
    14  H    0.152852
    15  H    0.137680
    16  H    0.156127
    17  H    0.152367
    18  H    0.145515
    19  H    0.158265
    20  H    0.162880
    21  C   -0.170781
    22  C   -0.224637
    23  C   -0.176607
    24  C    0.156861
    25  C   -0.170353
    26  C   -0.218764
    27  H    0.226058
    28  H    0.227386
    29  H    0.286147
    30  H    0.275621
    31  H    0.223644
    32  N    0.489268
    33  O   -0.459477
    34  O   -0.462873
 Sum of Mulliken charges =  -0.00000

 Dipole moment (field-independent basis, Debye):
    X=             -0.6076    Y=             -4.9349    Z=              0.9210  Tot=              5.0568
 Quadrupole moment (field-independent basis, Debye-Ang):
   XX=            -92.2024   YY=            -95.7179   ZZ=            -95.2112
   XY=            -13.2708   XZ=              4.5492   YZ=             -0.3620

 Normal termination of Gaussian 16 at Wed May  5 17:06:28 2021.
