 Gaussian 16, Revision A.03,
 Gaussian 16:  EM64L-G16RevA.03 25-Dec-2016

 -------------
 #p 6-31g* mp2
 -------------

 ------------------------------------------------------
 Input file generated by CHIRIPA (05-May-2021 14:53:14)
 ------------------------------------------------------
 Symbolic Z-matrix:
 Charge =  0 Multiplicity = 1

                         Standard orientation:
 ---------------------------------------------------------------------
 Center     Atomic      Atomic             Coordinates (Angstroms)
 Number     Number       Type             X           Y           Z
 ---------------------------------------------------------------------
      1          6           0       -3.298012    1.360650    0.195184
      2          6           0       -1.788407    1.602601    0.172027
      3          6           0       -1.422511    3.074244    0.367427
      4          1           0       -3.771923    1.965195   -0.590233
      5          1           0       -3.704754    1.716669    1.151848
      6          1           0       -1.384423    1.244967   -0.783751
      7          1           0       -1.318014    0.997263    0.957465
      8          1           0       -1.798227    3.440313    1.328381
      9          1           0       -1.865014    3.689424   -0.422728
     10          1           0       -0.338591    3.224507    0.347462
     11          6           0       -3.679569   -0.105802    0.001120
     12          6           0       -5.189174   -0.347753    0.024276
     13          6           0       -5.555070   -1.819396   -0.171123
     14          1           0       -3.272827   -0.461821   -0.955544
     15          1           0       -3.205659   -0.710347    0.786536
     16          1           0       -5.659568    0.257585   -0.761161
     17          1           0       -5.593158    0.009881    0.980054
     18          1           0       -5.112567   -2.434577    0.619032
     19          1           0       -5.179354   -2.185465   -1.132077
     20          1           0       -6.638990   -1.969659   -0.151159
     21          6           0        1.019941   -2.349069   -0.043497
     22          6           0        2.314123   -2.577923    0.435293
     23          6           0        3.267348   -1.555315    0.421742
     24          6           0        2.890516   -0.310464   -0.079889
     25          6           0        1.609156   -0.051393   -0.563923
     26          6           0        0.672201   -1.088757   -0.540700
     27          1           0        0.285772   -3.149187   -0.029214
     28          1           0        2.586991   -3.555695    0.822006
     29          1           0        4.276377   -1.705080    0.786226
     30          1           0        1.366745    0.933854   -0.943321
     31          1           0       -0.332132   -0.908154   -0.913182
     32          7           0        3.891041    0.779936   -0.099354
     33          8           0        3.534063    1.867741   -0.546439
     34          8           0        5.013285    0.526139    0.332841
 ---------------------------------------------------------------------

 SCF Done:  E(RHF) =  -669.534942324     A.U. after   15 cycles
 E2 =    -0.2092804197D+01 EUMP2 =    -0.67162774652039D+03

 The electronic state is 1-A.
 Alpha  occ. eigenvalues --  -20.60722 -20.60716 -15.85772 -11.31109 -11.27669
 Alpha  occ. eigenvalues --  -11.27640 -11.27388 -11.26692 -11.26597 -11.22376
 Alpha  occ. eigenvalues --  -11.22301 -11.22240 -11.22069 -11.21733 -11.21484
 Alpha  occ. eigenvalues --   -1.59796  -1.39351  -1.19272  -1.09185  -1.08671
 Alpha  occ. eigenvalues --   -1.04682  -1.04190  -0.96624  -0.95513  -0.87634
 Alpha  occ. eigenvalues --   -0.86066  -0.82371  -0.80296  -0.79069  -0.77363
 Alpha  occ. eigenvalues --   -0.71991  -0.71119  -0.70382  -0.65814  -0.64921
 Alpha  occ. eigenvalues --   -0.64667  -0.62101  -0.61554  -0.59961  -0.58249
 Alpha  occ. eigenvalues --   -0.55901  -0.55169  -0.53308  -0.53075  -0.52993
 Alpha  occ. eigenvalues --   -0.52727  -0.50556  -0.48754  -0.48748  -0.48571
 Alpha  occ. eigenvalues --   -0.47325  -0.46518  -0.46480  -0.44763  -0.44463
 Alpha  occ. eigenvalues --   -0.37256  -0.36231
 Alpha virt. eigenvalues --    0.05110   0.11341   0.16575   0.19851   0.22572
 Alpha virt. eigenvalues --    0.23312   0.24575   0.25788   0.26351   0.28681
 Alpha virt. eigenvalues --    0.29070   0.30539   0.31097   0.31452   0.32404

 Mulliken charges:
               1
     1  C   -0.297803
     2  C   -0.305666
     3  C   -0.478925
     4  H    0.152452
     5  H    0.153561
     6  H    0.140536
     7  H    0.157130
     8  H    0.158572
     9  H    0.157341
    10  H    0.168151
    11  C   -0.300995
    12  C   -0.299779
    13  C   -0.476310
    14  H    0.143368
    15  H    0.148536
    16  H    0.154484
    17  H    0.154890
    18  H    0.154184
    19  H    0.154000
    20  H    0.163346
    21  C   -0.173107
    22  C   -0.218479
    23  C   -0.171522
    24  C    0.158530
    25  C   -0.173785
    26  C   -0.220417
    27  H    0.225558
    28  H    0.222940
    29  H    0.275128
    30  H    0.276939
    31  H    0.230638
    32  N    0.488273
    33  O   -0.461189
    34  O   -0.460580
 Sum of Mulliken charges =  -0.00000

 Dipole moment (field-independent basis, Debye):
    X=             -3.7091    Y=             -3.7133    Z=              0.1598  Tot=              5.2509
 Quadrupole moment (field-independent basis, Debye-Ang):
   XX=           -112.8222   YY=            -91.5144   ZZ=            -93.6953
   XY=            -13.0958   XZ=              1.8659   YZ=             -1.3162

 Normal termination of Gaussian 16 at Thu May  6 17:06:33 2021.
