 Gaussian 16, Revision A.03,
 Gaussian 16:  EM64L-G16RevA.03 25-Dec-2016

 -------------
 #p 6-31g* mp2
 -------------

 ------------------------------------------------------
 Input file generated by CHIRIPA (05-May-2021 14:51:14)
 ------------------------------------------------------
 Symbolic Z-matrix:
 Charge =  0 Multiplicity = 1

                         Standard orientation:
 ---------------------------------------------------------------------
 Center     Atomic      Atomic             Coordinates (Angstroms)
 Number     Number       Type             X           Y           Z
 ---------------------------------------------------------------------
      1          6           0        4.030728    0.634030    0.052213
      2          6           0        3.536138    2.077975    0.143802
      3          6           0        4.653835    3.065445    0.480623
      4          1           0        4.496407    0.351456    1.006278
      5          1           0        4.818834    0.571459   -0.710918
      6          1           0        2.748233    2.137533    0.905559
      7          1           0        3.071411    2.357082   -0.810527
      8          1           0        5.437522    3.035461   -0.283274
      9          1           0        5.112507    2.814665    1.442564
     10          1           0        4.278163    4.091635    0.541161
     11          6           0        2.924906   -0.364946   -0.283843
     12          6           0        3.419497   -1.808891   -0.375432
     13          6           0        2.301799   -2.796361   -0.712253
     14          1           0        2.136800   -0.302375    0.479288
     15          1           0        2.459228   -0.082371   -1.237908
     16          1           0        3.884223   -2.087997    0.578897
     17          1           0        4.207402   -1.868449   -1.137189
     18          1           0        1.843127   -2.545581   -1.674194
     19          1           0        1.518112   -2.766376    0.051644
     20          1           0        2.677471   -3.822551   -0.772791
     21          6           0       -2.824001   -0.512497    0.001330
     22          6           0       -2.706045   -1.787176    0.837550
     23          6           0       -1.392633   -2.532238    0.597493
     24          1           0       -2.736304   -0.770360   -1.062982
     25          1           0       -1.978177    0.149451    0.233288
     26          1           0       -3.552589   -2.445923    0.605100
     27          1           0       -2.794225   -1.526272    1.899986
     28          1           0       -0.537524   -1.896019    0.847721
     29          1           0       -1.300196   -2.820896   -0.454521
     30          1           0       -1.329273   -3.440236    1.205262
     31          6           0       -4.131633    0.243412    0.230300
     32          6           0       -4.249589    1.518092   -0.605920
     33          6           0       -5.563001    2.263153   -0.365862
     34          1           0       -4.977457   -0.418535   -0.001658
     35          1           0       -4.219331    0.501276    1.294611
     36          1           0       -4.161410    1.257188   -1.668356
     37          1           0       -3.403046    2.176839   -0.373470
     38          1           0       -5.655439    2.551812    0.686151
     39          1           0       -6.418111    1.626935   -0.616091
     40          1           0       -5.626362    3.171152   -0.973632
 ---------------------------------------------------------------------

 SCF Done:  E(RHF) =  -470.732856510     A.U. after   11 cycles
 E2 =    -0.1582782164D+01 EUMP2 =    -0.47231563867405D+03

 The electronic state is 1-A.
 Alpha  occ. eigenvalues --  -11.21601 -11.21594 -11.21588 -11.21535 -11.21395
 Alpha  occ. eigenvalues --  -11.21391 -11.21335 -11.21332 -11.21071 -11.21066
 Alpha  occ. eigenvalues --  -11.21055 -11.20892  -1.08425  -1.08400  -1.03541
 Alpha  occ. eigenvalues --   -1.03470  -0.96018  -0.95894  -0.87071  -0.86880
 Alpha  occ. eigenvalues --   -0.79683  -0.79467  -0.78265  -0.78183  -0.65077
 Alpha  occ. eigenvalues --   -0.65015  -0.60989  -0.60830  -0.59352  -0.59299
 Alpha  occ. eigenvalues --   -0.57704  -0.57446  -0.55353  -0.55149  -0.52752
 Alpha  occ. eigenvalues --   -0.52617  -0.52567  -0.52136  -0.50014  -0.49780
 Alpha  occ. eigenvalues --   -0.48114  -0.47655  -0.46708  -0.46490  -0.45878
 Alpha  occ. eigenvalues --   -0.45726  -0.45705  -0.45516  -0.43776  -0.43746
 Alpha virt. eigenvalues --    0.21723   0.23071   0.23578   0.24806   0.25728
 Alpha virt. eigenvalues --    0.26588   0.27046   0.27443   0.27966   0.29310
 Alpha virt. eigenvalues --    0.30224   0.31230   0.31653   0.31965   0.32075

 Mulliken charges:
               1
     1  C   -0.298244
     2  C   -0.299572
     3  C   -0.475686
     4  H    0.149581
     5  H    0.149733
     6  H    0.151447
     7  H    0.152023
     8  H    0.155257
     9  H    0.155160
    10  H    0.160170
    11  C   -0.298934
    12  C   -0.299625
    13  C   -0.482325
    14  H    0.148877
    15  H    0.149936
    16  H    0.151389
    17  H    0.151453
    18  H    0.154033
    19  H    0.166188
    20  H    0.159186
    21  C   -0.298281
    22  C   -0.300451
    23  C   -0.477794
    24  H    0.149724
    25  H    0.149756
    26  H    0.151898
    27  H    0.151572
    28  H    0.156001
    29  H    0.157520
    30  H    0.160094
    31  C   -0.298270
    32  C   -0.299640
    33  C   -0.475696
    34  H    0.149509
    35  H    0.149534
    36  H    0.151919
    37  H    0.152022
    38  H    0.155141
    39  H    0.155164
    40  H    0.160231
 Sum of Mulliken charges =  -0.00000

 Dipole moment (field-independent basis, Debye):
    X=             -0.0236    Y=             -0.0148    Z=             -0.0016  Tot=              0.0279
 Quadrupole moment (field-independent basis, Debye-Ang):
   XX=            -86.0195   YY=            -85.6082   ZZ=            -83.2824
   XY=              0.3337   XZ=              0.0898   YZ=              0.0142

 Normal termination of Gaussian 16 at Thu May  6 05:37:25 2021.
