 Gaussian 16, Revision A.03,
 Gaussian 16:  EM64L-G16RevA.03 25-Dec-2016

 -------------
 #p 6-31g* mp2
 -------------

 ------------------------------------------------------
 Input file generated by CHIRIPA (05-May-2021 14:53:17)
 ------------------------------------------------------
 Symbolic Z-matrix:
 Charge =  0 Multiplicity = 1

                         Standard orientation:
 ---------------------------------------------------------------------
 Center     Atomic      Atomic             Coordinates (Angstroms)
 Number     Number       Type             X           Y           Z
 ---------------------------------------------------------------------
      1          6           0       -3.423536   -0.668613    0.045638
      2          6           0       -3.057702   -1.601731   -1.109109
      3          6           0       -2.591915   -2.977792   -0.632357
      4          1           0       -2.553073   -0.554158    0.706047
      5          1           0       -4.214292   -1.135715    0.648894
      6          1           0       -2.268841   -1.132397   -1.710807
      7          1           0       -3.929078   -1.713826   -1.766949
      8          1           0       -3.377450   -3.469909   -0.049814
      9          1           0       -1.707780   -2.885176    0.006648
     10          1           0       -2.335502   -3.628691   -1.474047
     11          6           0       -3.891063    0.710861   -0.415010
     12          6           0       -4.256897    1.643979    0.739738
     13          6           0       -4.722683    3.020040    0.262985
     14          1           0       -3.100307    1.177963   -1.018265
     15          1           0       -4.761526    0.596406   -1.075418
     16          1           0       -3.385521    1.756074    1.397578
     17          1           0       -5.045758    1.174645    1.341435
     18          1           0       -5.606819    2.927424   -0.376020
     19          1           0       -3.937149    3.512156   -0.319558
     20          1           0       -4.979097    3.670939    1.104675
     21          6           0        1.355042   -1.492633    1.533634
     22          6           0        1.271282   -1.524730    0.137756
     23          6           0        2.098681   -0.711204   -0.642073
     24          6           0        3.002494    0.126204    0.009969
     25          6           0        3.109672    0.180813    1.398789
     26          6           0        2.272352   -0.641465    2.158593
     27          1           0        0.708445   -2.127999    2.131646
     28          1           0        0.559821   -2.184775   -0.350313
     29          1           0        2.054771   -0.716083   -1.724416
     30          1           0        3.828759    0.849141    1.856688
     31          1           0        2.339596   -0.614446    3.242473
     32          7           0        3.883676    0.992079   -0.805002
     33          8           0        4.671606    1.721089   -0.206378
     34          8           0        3.769732    0.925348   -2.026968
 ---------------------------------------------------------------------

 SCF Done:  E(RHF) =  -669.535579858     A.U. after   15 cycles
 E2 =    -0.2091379319D+01 EUMP2 =    -0.67162695917628D+03

 The electronic state is 1-A.
 Alpha  occ. eigenvalues --  -20.60782 -20.60777 -15.85835 -11.31207 -11.27775
 Alpha  occ. eigenvalues --  -11.27768 -11.27520 -11.26792 -11.26756 -11.22394
 Alpha  occ. eigenvalues --  -11.22146 -11.22025 -11.21968 -11.21815 -11.21326
 Alpha  occ. eigenvalues --   -1.59857  -1.39410  -1.19379  -1.09011  -1.08773
 Alpha  occ. eigenvalues --   -1.04782  -1.04139  -0.96601  -0.95607  -0.87619
 Alpha  occ. eigenvalues --   -0.86180  -0.82437  -0.80210  -0.78784  -0.77486
 Alpha  occ. eigenvalues --   -0.72053  -0.71180  -0.70488  -0.65687  -0.65030
 Alpha  occ. eigenvalues --   -0.64783  -0.62203  -0.61463  -0.59982  -0.58186
 Alpha  occ. eigenvalues --   -0.55921  -0.55269  -0.53299  -0.53111  -0.53062
 Alpha  occ. eigenvalues --   -0.52815  -0.50535  -0.48813  -0.48808  -0.48513
 Alpha  occ. eigenvalues --   -0.47240  -0.46336  -0.46229  -0.44814  -0.44368
 Alpha  occ. eigenvalues --   -0.37360  -0.36381
 Alpha virt. eigenvalues --    0.05044   0.11190   0.16521   0.19442   0.22742
 Alpha virt. eigenvalues --    0.23855   0.25642   0.26437   0.26893   0.27946
 Alpha virt. eigenvalues --    0.28743   0.30444   0.31074   0.31374   0.31691

 Mulliken charges:
               1
     1  C   -0.298679
     2  C   -0.300522
     3  C   -0.478850
     4  H    0.147554
     5  H    0.150208
     6  H    0.151505
     7  H    0.156537
     8  H    0.160331
     9  H    0.143413
    10  H    0.162721
    11  C   -0.298995
    12  C   -0.300065
    13  C   -0.476225
    14  H    0.152066
    15  H    0.150972
    16  H    0.151942
    17  H    0.151625
    18  H    0.155760
    19  H    0.157222
    20  H    0.161167
    21  C   -0.172969
    22  C   -0.223979
    23  C   -0.172076
    24  C    0.158834
    25  C   -0.171197
    26  C   -0.218521
    27  H    0.225944
    28  H    0.231925
    29  H    0.275842
    30  H    0.275683
    31  H    0.223575
    32  N    0.487975
    33  O   -0.460355
    34  O   -0.460368
 Sum of Mulliken charges =  -0.00000

 Dipole moment (field-independent basis, Debye):
    X=             -3.2513    Y=             -2.9933    Z=              2.8388  Tot=              5.2525
 Quadrupole moment (field-independent basis, Debye-Ang):
   XX=           -111.8451   YY=            -96.4370   ZZ=            -91.3717
   XY=             -8.0230   XZ=             10.7914   YZ=              2.3214

 Normal termination of Gaussian 16 at Thu May  6 18:55:44 2021.
