 Gaussian 16, Revision A.03,
 Gaussian 16:  EM64L-G16RevA.03 25-Dec-2016

 -------------
 #p 6-31g* mp2
 -------------

 ------------------------------------------------------
 Input file generated by CHIRIPA (05-May-2021 14:51:09)
 ------------------------------------------------------
 Symbolic Z-matrix:
 Charge =  0 Multiplicity = 1

                         Standard orientation:
 ---------------------------------------------------------------------
 Center     Atomic      Atomic             Coordinates (Angstroms)
 Number     Number       Type             X           Y           Z
 ---------------------------------------------------------------------
      1          6           0        3.734710    0.645017    0.148343
      2          6           0        5.118049    0.668002   -0.502680
      3          6           0        5.716698    2.073334   -0.569442
      4          1           0        3.060834    1.305844   -0.413925
      5          1           0        3.807349    1.062178    1.162293
      6          1           0        5.043081    0.249646   -1.514596
      7          1           0        5.788659    0.006896    0.061090
      8          1           0        5.820379    2.496023    0.435140
      9          1           0        5.070565    2.740152   -1.149499
     10          1           0        6.705583    2.066595   -1.038398
     11          6           0        3.123145   -0.752923    0.222355
     12          6           0        1.739807   -0.775908    0.873377
     13          6           0        1.141158   -2.181240    0.940139
     14          1           0        3.050507   -1.170084   -0.791596
     15          1           0        3.797021   -1.413750    0.784623
     16          1           0        1.069197   -0.114802    0.309607
     17          1           0        1.814775   -0.357552    1.885293
     18          1           0        1.787291   -2.848058    1.520196
     19          1           0        1.037477   -2.603929   -0.064443
     20          1           0        0.152272   -2.174501    1.409095
     21          6           0       -3.377714   -0.592574   -0.588849
     22          6           0       -2.312374   -1.554018   -0.060965
     23          6           0       -2.221914   -2.842852   -0.878595
     24          1           0       -4.352710   -1.098859   -0.586995
     25          1           0       -3.154363   -0.348279   -1.636622
     26          1           0       -2.536896   -1.795339    0.985921
     27          1           0       -1.339833   -1.045322   -0.063895
     28          1           0       -1.974726   -2.620749   -1.921748
     29          1           0       -3.178591   -3.375027   -0.865968
     30          1           0       -1.454198   -3.515652   -0.483866
     31          6           0       -3.480141    0.700480    0.218151
     32          6           0       -4.545481    1.661924   -0.309732
     33          6           0       -4.635942    2.950758    0.507897
     34          1           0       -3.703492    0.456185    1.265925
     35          1           0       -2.505145    1.206765    0.216299
     36          1           0       -5.518022    1.153228   -0.306802
     37          1           0       -4.320959    1.903245   -1.356618
     38          1           0       -3.679265    3.482933    0.495270
     39          1           0       -4.883129    2.728655    1.551051
     40          1           0       -5.403658    3.623558    0.113168
 ---------------------------------------------------------------------

 SCF Done:  E(RHF) =  -470.731898531     A.U. after   11 cycles
 E2 =    -0.1584014799D+01 EUMP2 =    -0.47231591332971D+03

 The electronic state is 1-A.
 Alpha  occ. eigenvalues --  -11.21626 -11.21616 -11.21592 -11.21516 -11.21423
 Alpha  occ. eigenvalues --  -11.21381 -11.21363 -11.21317 -11.21084 -11.21064
 Alpha  occ. eigenvalues --  -11.20996 -11.20976  -1.08466  -1.08389  -1.03619
 Alpha  occ. eigenvalues --   -1.03431  -0.96072  -0.95868  -0.87017  -0.86956
 Alpha  occ. eigenvalues --   -0.79629  -0.79561  -0.78273  -0.78220  -0.65178
 Alpha  occ. eigenvalues --   -0.64963  -0.61182  -0.60729  -0.59670  -0.59070
 Alpha  occ. eigenvalues --   -0.57762  -0.57376  -0.55366  -0.55102  -0.52784
 Alpha  occ. eigenvalues --   -0.52543  -0.52454  -0.52296  -0.49908  -0.49881
 Alpha  occ. eigenvalues --   -0.48034  -0.47760  -0.46691  -0.46545  -0.45853
 Alpha  occ. eigenvalues --   -0.45779  -0.45716  -0.45569  -0.43790  -0.43727
 Alpha virt. eigenvalues --    0.21410   0.23169   0.23517   0.24915   0.25756
 Alpha virt. eigenvalues --    0.26710   0.26843   0.27158   0.28342   0.29318
 Alpha virt. eigenvalues --    0.29995   0.30779   0.31266   0.31719   0.32407

 Mulliken charges:
               1
     1  C   -0.298297
     2  C   -0.299662
     3  C   -0.475707
     4  H    0.149312
     5  H    0.149641
     6  H    0.151923
     7  H    0.152040
     8  H    0.155233
     9  H    0.155105
    10  H    0.160317
    11  C   -0.298148
    12  C   -0.302894
    13  C   -0.482600
    14  H    0.149552
    15  H    0.149992
    16  H    0.152457
    17  H    0.152337
    18  H    0.155143
    19  H    0.156646
    20  H    0.167648
    21  C   -0.297336
    22  C   -0.306971
    23  C   -0.478058
    24  H    0.149342
    25  H    0.148987
    26  H    0.150222
    27  H    0.161620
    28  H    0.154003
    29  H    0.154729
    30  H    0.164083
    31  C   -0.298304
    32  C   -0.299580
    33  C   -0.475683
    34  H    0.149406
    35  H    0.149180
    36  H    0.152005
    37  H    0.151788
    38  H    0.155149
    39  H    0.155175
    40  H    0.160204
 Sum of Mulliken charges =  -0.00000

 Dipole moment (field-independent basis, Debye):
    X=              0.0215    Y=             -0.0130    Z=              0.0169  Tot=              0.0303
 Quadrupole moment (field-independent basis, Debye-Ang):
   XX=            -84.6298   YY=            -86.4706   ZZ=            -83.8358
   XY=             -0.1022   XZ=              0.0867   YZ=             -0.7938

 Normal termination of Gaussian 16 at Thu May  6 00:35:03 2021.
