 Gaussian 16, Revision A.03,
 Gaussian 16:  EM64L-G16RevA.03 25-Dec-2016

 -------------
 #p 6-31g* mp2
 -------------

 ------------------------------------------------------
 Input file generated by CHIRIPA (05-May-2021 14:51:12)
 ------------------------------------------------------
 Symbolic Z-matrix:
 Charge =  0 Multiplicity = 1

                         Standard orientation:
 ---------------------------------------------------------------------
 Center     Atomic      Atomic             Coordinates (Angstroms)
 Number     Number       Type             X           Y           Z
 ---------------------------------------------------------------------
      1          6           0        4.021868   -0.538583   -0.229179
      2          6           0        5.532614   -0.768086   -0.174759
      3          6           0        5.902060   -2.247265   -0.059298
      4          1           0        3.560068   -0.964040    0.672305
      5          1           0        3.604891   -1.089395   -1.083656
      6          1           0        5.946815   -0.215887    0.678547
      7          1           0        5.990893   -0.341863   -1.076386
      8          1           0        5.516095   -2.808764   -0.916242
      9          1           0        5.471767   -2.682072    0.848662
     10          1           0        6.986745   -2.388415   -0.021922
     11          6           0        3.636766    0.935219   -0.344646
     12          6           0        2.126021    1.164721   -0.399066
     13          6           0        1.756574    2.643901   -0.514526
     14          1           0        4.053743    1.486030    0.509831
     15          1           0        4.098566    1.360676   -1.246130
     16          1           0        1.667741    0.738499    0.502561
     17          1           0        1.711820    0.612523   -1.252371
     18          1           0        2.186867    3.078707   -1.422487
     19          1           0        2.142539    3.205399    0.342417
     20          1           0        0.671890    2.785050   -0.551902
     21          6           0       -4.390310   -0.009669   -0.195924
     22          6           0       -5.502404   -1.056306   -0.271990
     23          6           0       -6.617461   -0.664634   -1.242059
     24          1           0       -4.822111    0.953379    0.109085
     25          1           0       -3.968569    0.140666   -1.199381
     26          1           0       -5.920987   -1.205632    0.731557
     27          1           0       -5.067875   -2.017021   -0.576666
     28          1           0       -6.219914   -0.534962   -2.253860
     29          1           0       -7.077874    0.281036   -0.938204
     30          1           0       -7.401922   -1.426851   -1.280874
     31          6           0       -3.268324   -0.386966    0.769748
     32          6           0       -2.156231    0.659670    0.845815
     33          6           0       -1.041173    0.267999    1.815884
     34          1           0       -3.690066   -0.537300    1.773207
     35          1           0       -2.836523   -1.350015    0.464741
     36          1           0       -2.590760    1.620385    1.150491
     37          1           0       -1.737648    0.808997   -0.157732
     38          1           0       -0.580760   -0.677672    1.512029
     39          1           0       -1.438720    0.138327    2.827685
     40          1           0       -0.256713    1.030215    1.854699
 ---------------------------------------------------------------------

 SCF Done:  E(RHF) =  -470.732953571     A.U. after   11 cycles
 E2 =    -0.1583000763D+01 EUMP2 =    -0.47231595433442D+03

 The electronic state is 1-A.
 Alpha  occ. eigenvalues --  -11.21618 -11.21606 -11.21584 -11.21504 -11.21413
 Alpha  occ. eigenvalues --  -11.21374 -11.21354 -11.21312 -11.21075 -11.21063
 Alpha  occ. eigenvalues --  -11.21059 -11.21052  -1.08445  -1.08393  -1.03572
 Alpha  occ. eigenvalues --   -1.03470  -0.96023  -0.95925  -0.87021  -0.86963
 Alpha  occ. eigenvalues --   -0.79655  -0.79517  -0.78251  -0.78211  -0.65091
 Alpha  occ. eigenvalues --   -0.65021  -0.61031  -0.60869  -0.59541  -0.59156
 Alpha  occ. eigenvalues --   -0.57746  -0.57385  -0.55303  -0.55215  -0.52724
 Alpha  occ. eigenvalues --   -0.52619  -0.52425  -0.52362  -0.49987  -0.49853
 Alpha  occ. eigenvalues --   -0.47963  -0.47837  -0.46705  -0.46511  -0.45797
 Alpha  occ. eigenvalues --   -0.45744  -0.45725  -0.45643  -0.43797  -0.43708
 Alpha virt. eigenvalues --    0.21118   0.23076   0.23414   0.25205   0.26315
 Alpha virt. eigenvalues --    0.26482   0.26897   0.27305   0.28041   0.29149
 Alpha virt. eigenvalues --    0.30351   0.31310   0.31538   0.31747   0.32216

 Mulliken charges:
               1
     1  C   -0.298347
     2  C   -0.299587
     3  C   -0.475704
     4  H    0.149773
     5  H    0.149203
     6  H    0.151935
     7  H    0.151895
     8  H    0.155052
     9  H    0.155192
    10  H    0.160202
    11  C   -0.297611
    12  C   -0.306142
    13  C   -0.478032
    14  H    0.149198
    15  H    0.149237
    16  H    0.160267
    17  H    0.150730
    18  H    0.155255
    19  H    0.154646
    20  H    0.161909
    21  C   -0.298351
    22  C   -0.299665
    23  C   -0.475713
    24  H    0.149665
    25  H    0.149528
    26  H    0.151944
    27  H    0.151972
    28  H    0.155186
    29  H    0.155194
    30  H    0.160272
    31  C   -0.298553
    32  C   -0.301074
    33  C   -0.479163
    34  H    0.149633
    35  H    0.149899
    36  H    0.151892
    37  H    0.153439
    38  H    0.155582
    39  H    0.154958
    40  H    0.164284
 Sum of Mulliken charges =  -0.00000

 Dipole moment (field-independent basis, Debye):
    X=             -0.0234    Y=             -0.0071    Z=              0.0177  Tot=              0.0302
 Quadrupole moment (field-independent basis, Debye-Ang):
   XX=            -85.6204   YY=            -85.6810   ZZ=            -83.6081
   XY=              0.3010   XZ=             -0.9819   YZ=              0.6443

 Normal termination of Gaussian 16 at Wed May  5 16:49:13 2021.
