 Gaussian 16, Revision A.03,
 Gaussian 16:  EM64L-G16RevA.03 25-Dec-2016

 -------------
 #p 6-31g* mp2
 -------------

 ------------------------------------------------------
 Input file generated by CHIRIPA (05-May-2021 14:53:15)
 ------------------------------------------------------
 Symbolic Z-matrix:
 Charge =  0 Multiplicity = 1

                         Standard orientation:
 ---------------------------------------------------------------------
 Center     Atomic      Atomic             Coordinates (Angstroms)
 Number     Number       Type             X           Y           Z
 ---------------------------------------------------------------------
      1          6           0       -5.394867   -0.055694   -0.019065
      2          6           0       -5.617734   -1.549131   -0.259819
      3          6           0       -7.085383   -1.894386   -0.513983
      4          1           0       -6.002375    0.265719    0.838007
      5          1           0       -5.759552    0.507327   -0.889356
      6          1           0       -5.251473   -2.109260    0.610079
      7          1           0       -5.009478   -1.867066   -1.116299
      8          1           0       -7.459743   -1.361292   -1.393907
      9          1           0       -7.703113   -1.604861    0.342280
     10          1           0       -7.221933   -2.966974   -0.683597
     11          6           0       -3.932610    0.305146    0.236529
     12          6           0       -3.709743    1.798582    0.477284
     13          6           0       -2.242094    2.143838    0.731447
     14          1           0       -3.567925   -0.257875    1.106821
     15          1           0       -3.325102   -0.016267   -0.620543
     16          1           0       -4.317999    2.116518    1.333763
     17          1           0       -4.076004    2.358712   -0.392615
     18          1           0       -1.624364    1.854313   -0.124816
     19          1           0       -1.867734    1.610743    1.611371
     20          1           0       -2.105544    3.216426    0.901062
     21          6           0        1.604062    1.344255   -0.442635
     22          6           0        1.463496    0.042355    0.049118
     23          6           0        2.586544   -0.765404    0.251196
     24          6           0        3.840716   -0.236820   -0.050367
     25          6           0        4.013340    1.056303   -0.541614
     26          6           0        2.876293    1.846189   -0.735913
     27          1           0        0.726215    1.964800   -0.596593
     28          1           0        0.476702   -0.350088    0.277748
     29          1           0        2.506464   -1.776813    0.630745
     30          1           0        5.010067    1.419740   -0.760400
     31          1           0        2.988471    2.856892   -1.117935
     32          7           0        5.037046   -1.082499    0.159447
     33          8           0        6.130962   -0.593368   -0.113934
     34          8           0        4.858161   -2.218457    0.593307
 ---------------------------------------------------------------------

 SCF Done:  E(RHF) =  -669.535580636     A.U. after   15 cycles
 E2 =    -0.2091029639D+01 EUMP2 =    -0.67162661027540D+03

 The electronic state is 1-A.
 Alpha  occ. eigenvalues --  -20.60697 -20.60692 -15.85750 -11.31095 -11.27666
 Alpha  occ. eigenvalues --  -11.27661 -11.27356 -11.26668 -11.26645 -11.22595
 Alpha  occ. eigenvalues --  -11.22410 -11.22280 -11.22172 -11.22051 -11.21527
 Alpha  occ. eigenvalues --   -1.59773  -1.39328  -1.19264  -1.09238  -1.08657
 Alpha  occ. eigenvalues --   -1.04666  -1.04354  -0.96833  -0.95497  -0.87856
 Alpha  occ. eigenvalues --   -0.86060  -0.82335  -0.80436  -0.79017  -0.77386
 Alpha  occ. eigenvalues --   -0.71968  -0.71097  -0.70384  -0.65862  -0.64914
 Alpha  occ. eigenvalues --   -0.64672  -0.62019  -0.61749  -0.60208  -0.58419
 Alpha  occ. eigenvalues --   -0.56195  -0.55140  -0.53504  -0.53239  -0.52990
 Alpha  occ. eigenvalues --   -0.52750  -0.50765  -0.48747  -0.48725  -0.48715
 Alpha  occ. eigenvalues --   -0.47449  -0.46567  -0.46458  -0.44738  -0.44591
 Alpha  occ. eigenvalues --   -0.37235  -0.36274
 Alpha virt. eigenvalues --    0.05148   0.11371   0.16643   0.19771   0.22340
 Alpha virt. eigenvalues --    0.23747   0.25401   0.26033   0.26628   0.27558
 Alpha virt. eigenvalues --    0.28951   0.30332   0.30850   0.31302   0.31687

 Mulliken charges:
               1
     1  C   -0.298743
     2  C   -0.300354
     3  C   -0.476175
     4  H    0.151637
     5  H    0.150957
     6  H    0.152508
     7  H    0.152123
     8  H    0.155931
     9  H    0.156150
    10  H    0.162119
    11  C   -0.299690
    12  C   -0.299363
    13  C   -0.481735
    14  H    0.149420
    15  H    0.147404
    16  H    0.156581
    17  H    0.154591
    18  H    0.145533
    19  H    0.158436
    20  H    0.164501
    21  C   -0.174803
    22  C   -0.221449
    23  C   -0.171090
    24  C    0.158195
    25  C   -0.170922
    26  C   -0.219228
    27  H    0.232531
    28  H    0.224658
    29  H    0.275217
    30  H    0.275167
    31  H    0.223282
    32  N    0.488068
    33  O   -0.460711
    34  O   -0.460747
 Sum of Mulliken charges =  -0.00000

 Dipole moment (field-independent basis, Debye):
    X=             -4.5030    Y=              3.0077    Z=             -0.6966  Tot=              5.4597
 Quadrupole moment (field-independent basis, Debye-Ang):
   XX=           -125.9331   YY=            -93.6834   ZZ=            -93.9410
   XY=             14.5813   XZ=             -4.1924   YZ=             -1.5369

 Normal termination of Gaussian 16 at Wed May  5 17:09:03 2021.
