 Gaussian 16, Revision A.03,
 Gaussian 16:  EM64L-G16RevA.03 25-Dec-2016

 -------------
 #p 6-31g* mp2
 -------------

 ------------------------------------------------------
 Input file generated by CHIRIPA (05-May-2021 14:57:26)
 ------------------------------------------------------
 Symbolic Z-matrix:
 Charge =  0 Multiplicity = 1

                         Standard orientation:
 ---------------------------------------------------------------------
 Center     Atomic      Atomic             Coordinates (Angstroms)
 Number     Number       Type             X           Y           Z
 ---------------------------------------------------------------------
      1          6           0       -4.323320   -2.169165    0.265762
      2          6           0       -5.029776   -1.222829   -0.483830
      3          6           0       -4.572399    0.095073   -0.575975
      4          6           0       -3.399615    0.433653    0.097249
      5          6           0       -2.673494   -0.486376    0.851958
      6          6           0       -3.149503   -1.798572    0.930092
      7          1           0       -4.685859   -3.190726    0.331900
      8          1           0       -5.941681   -1.507801   -1.000807
      9          1           0       -5.099671    0.847839   -1.149338
     10          1           0       -1.767659   -0.172429    1.356259
     11          1           0       -2.598801   -2.531398    1.512963
     12          7           0       -2.905547    1.825836    0.007115
     13          8           0       -1.869623    2.098906    0.609553
     14          8           0       -3.563577    2.617598   -0.664262
     15          6           0        5.860258    0.572747    0.206657
     16          6           0        5.594846   -0.770640   -0.078634
     17          6           0        4.280469   -1.212312   -0.257205
     18          6           0        3.251029   -0.279317   -0.142921
     19          6           0        3.483297    1.065700    0.140404
     20          6           0        4.805496    1.485020    0.315075
     21          1           0        6.884335    0.907167    0.343861
     22          1           0        6.412005   -1.481350   -0.163412
     23          1           0        4.046613   -2.246522   -0.478877
     24          1           0        2.647813    1.750708    0.218810
     25          1           0        5.008642    2.528919    0.536550
     26          7           0        1.855418   -0.735064   -0.329901
     27          8           0        0.966124    0.106714   -0.224061
     28          8           0        1.677256   -1.925429   -0.578755
 ---------------------------------------------------------------------

 SCF Done:  E(RHF) =  -868.338917482     A.U. after   16 cycles
 E2 =    -0.2599177369D+01 EUMP2 =    -0.87093809485148D+03

 The electronic state is 1-A.
 Alpha  occ. eigenvalues --  -20.60817 -20.60761 -20.59670 -20.59611 -15.85813
 Alpha  occ. eigenvalues --  -15.84688 -11.31082 -11.29952 -11.27685 -11.27578
 Alpha  occ. eigenvalues --  -11.27395 -11.26673 -11.26629 -11.26608 -11.26435
 Alpha  occ. eigenvalues --  -11.26366 -11.25641 -11.25509  -1.59871  -1.58712
 Alpha  occ. eigenvalues --   -1.39417  -1.38264  -1.19255  -1.18150  -1.08677
 Alpha  occ. eigenvalues --   -1.07583  -1.04637  -1.03544  -0.95522  -0.94424
 Alpha  occ. eigenvalues --   -0.86041  -0.84956  -0.82344  -0.81262  -0.77398
 Alpha  occ. eigenvalues --   -0.76294  -0.72035  -0.71191  -0.70924  -0.70360
 Alpha  occ. eigenvalues --   -0.70009  -0.69295  -0.64905  -0.64641  -0.63821
 Alpha  occ. eigenvalues --   -0.63576  -0.61973  -0.60888  -0.55158  -0.54113
 Alpha  occ. eigenvalues --   -0.52984  -0.52723  -0.51880  -0.51657  -0.48820
 Alpha  occ. eigenvalues --   -0.48787  -0.47691  -0.47657  -0.44841  -0.43684
 Alpha  occ. eigenvalues --   -0.37246  -0.36238  -0.36162  -0.35120
 Alpha virt. eigenvalues --    0.05093   0.06243   0.11416   0.12526   0.16593
 Alpha virt. eigenvalues --    0.17715   0.21570   0.22546   0.27501   0.28387
 Alpha virt. eigenvalues --    0.28535   0.29466   0.31130   0.32020   0.32773

 Mulliken charges:
               1
     1  C   -0.170738
     2  C   -0.219774
     3  C   -0.171842
     4  C    0.155856
     5  C   -0.158599
     6  C   -0.218064
     7  H    0.221525
     8  H    0.218617
     9  H    0.271607
    10  H    0.282987
    11  H    0.222547
    12  N    0.488777
    13  O   -0.456890
    14  O   -0.467595
    15  C   -0.170521
    16  C   -0.218957
    17  C   -0.171399
    18  C    0.156587
    19  C   -0.171715
    20  C   -0.219109
    21  H    0.225497
    22  H    0.222533
    23  H    0.273783
    24  H    0.283946
    25  H    0.225280
    26  N    0.487427
    27  O   -0.455857
    28  O   -0.465908
 Sum of Mulliken charges =  -0.00000

 Dipole moment (field-independent basis, Debye):
    X=              3.5036    Y=             -3.1886    Z=              1.0513  Tot=              4.8526
 Quadrupole moment (field-independent basis, Debye-Ang):
   XX=            -59.9963   YY=           -106.4344   ZZ=           -104.6307
   XY=             17.6600   XZ=              2.4345   YZ=             -0.6482

 Normal termination of Gaussian 16 at Fri May  7 06:39:05 2021.
