 Gaussian 16, Revision A.03,
 Gaussian 16:  EM64L-G16RevA.03 25-Dec-2016

 -------------
 #p 6-31g* mp2
 -------------

 ------------------------------------------------------
 Input file generated by CHIRIPA (05-May-2021 14:53:18)
 ------------------------------------------------------
 Symbolic Z-matrix:
 Charge =  0 Multiplicity = 1

                         Standard orientation:
 ---------------------------------------------------------------------
 Center     Atomic      Atomic             Coordinates (Angstroms)
 Number     Number       Type             X           Y           Z
 ---------------------------------------------------------------------
      1          6           0        3.137650   -0.449510   -0.401591
      2          6           0        2.744215   -1.880597   -0.033919
      3          6           0        1.341852   -2.250958   -0.517658
      4          1           0        2.404410    0.247229    0.027196
      5          1           0        3.081598   -0.330016   -1.492451
      6          1           0        2.802329   -1.997751    1.055812
      7          1           0        3.478584   -2.573999   -0.463470
      8          1           0        1.274052   -2.162137   -1.606747
      9          1           0        0.593954   -1.582615   -0.078832
     10          1           0        1.081062   -3.278111   -0.244152
     11          6           0        4.536972   -0.064431    0.075212
     12          6           0        4.930406    1.366657   -0.292461
     13          6           0        6.332770    1.737017    0.191278
     14          1           0        4.593023   -0.183925    1.166071
     15          1           0        5.270212   -0.761170   -0.353576
     16          1           0        4.196038    2.060058    0.137090
     17          1           0        4.872293    1.483811   -1.382192
     18          1           0        7.080668    1.068674   -0.247547
     19          1           0        6.400570    1.648196    1.280367
     20          1           0        6.593560    2.764170   -0.082228
     21          6           0       -3.535442    2.642732   -0.209758
     22          6           0       -4.059959    1.683520   -1.082292
     23          6           0       -3.768790    0.327669   -0.905001
     24          6           0       -2.945932   -0.035323    0.160096
     25          6           0       -2.408134    0.896676    1.046348
     26          6           0       -2.712653    2.246946    0.849909
     27          1           0       -3.766814    3.693822   -0.354919
     28          1           0       -4.699233    1.987995   -1.906106
     29          1           0       -4.161435   -0.435821   -1.565554
     30          1           0       -1.773890    0.562618    1.858479
     31          1           0       -2.303900    2.989691    1.529097
     32          7           0       -2.630617   -1.467747    0.357922
     33          8           0       -1.903131   -1.761757    1.303945
     34          8           0       -3.116931   -2.269351   -0.436792
 ---------------------------------------------------------------------

 SCF Done:  E(RHF) =  -669.535882413     A.U. after   15 cycles
 E2 =    -0.2091199520D+01 EUMP2 =    -0.67162708193324D+03

 The electronic state is 1-A.
 Alpha  occ. eigenvalues --  -20.60875 -20.60870 -15.85895 -11.31249 -11.27819
 Alpha  occ. eigenvalues --  -11.27809 -11.27555 -11.26831 -11.26820 -11.21462
 Alpha  occ. eigenvalues --  -11.21112 -11.20994 -11.20971 -11.20912 -11.20034
 Alpha  occ. eigenvalues --   -1.59929  -1.39487  -1.19419  -1.08818  -1.08061
 Alpha  occ. eigenvalues --   -1.04821  -1.03076  -0.95659  -0.95502  -0.86519
 Alpha  occ. eigenvalues --   -0.86220  -0.82490  -0.79166  -0.77862  -0.77540
 Alpha  occ. eigenvalues --   -0.72124  -0.71247  -0.70529  -0.65076  -0.64825
 Alpha  occ. eigenvalues --   -0.64698  -0.62169  -0.60473  -0.58913  -0.57114
 Alpha  occ. eigenvalues --   -0.55324  -0.54796  -0.53149  -0.52914  -0.52158
 Alpha  occ. eigenvalues --   -0.51943  -0.49480  -0.48888  -0.48872  -0.47479
 Alpha  occ. eigenvalues --   -0.46254  -0.45441  -0.45344  -0.44722  -0.43329
 Alpha  occ. eigenvalues --   -0.37397  -0.36423
 Alpha virt. eigenvalues --    0.04979   0.11215   0.16442   0.21339   0.23190
 Alpha virt. eigenvalues --    0.24774   0.26873   0.27295   0.27764   0.28134
 Alpha virt. eigenvalues --    0.28612   0.30749   0.31759   0.32124   0.32476

 Mulliken charges:
               1
     1  C   -0.296974
     2  C   -0.300388
     3  C   -0.475497
     4  H    0.145545
     5  H    0.147990
     6  H    0.152558
     7  H    0.149564
     8  H    0.148993
     9  H    0.159087
    10  H    0.168231
    11  C   -0.297860
    12  C   -0.298816
    13  C   -0.475410
    14  H    0.149154
    15  H    0.149833
    16  H    0.149139
    17  H    0.151313
    18  H    0.155608
    19  H    0.154874
    20  H    0.158719
    21  C   -0.170651
    22  C   -0.218472
    23  C   -0.170720
    24  C    0.158561
    25  C   -0.171728
    26  C   -0.218363
    27  H    0.225855
    28  H    0.223717
    29  H    0.275862
    30  H    0.275406
    31  H    0.223614
    32  N    0.488119
    33  O   -0.458528
    34  O   -0.458336
 Sum of Mulliken charges =  -0.00000

 Dipole moment (field-independent basis, Debye):
    X=             -1.3011    Y=              4.9613    Z=             -0.6671  Tot=              5.1722
 Quadrupole moment (field-independent basis, Debye-Ang):
   XX=            -88.4790   YY=            -95.2594   ZZ=            -91.4828
   XY=            -14.9451   XZ=              4.0255   YZ=              2.0080

 Normal termination of Gaussian 16 at Thu May  6 12:19:07 2021.
