 Gaussian 16, Revision A.03,
 Gaussian 16:  EM64L-G16RevA.03 25-Dec-2016

 -------------
 #p 6-31g* mp2
 -------------

 ------------------------------------------------------
 Input file generated by CHIRIPA (05-May-2021 14:55:24)
 ------------------------------------------------------
 Symbolic Z-matrix:
 Charge =  0 Multiplicity = 1

                         Standard orientation:
 ---------------------------------------------------------------------
 Center     Atomic      Atomic             Coordinates (Angstroms)
 Number     Number       Type             X           Y           Z
 ---------------------------------------------------------------------
      1          6           0        1.869377   -2.384356    0.864056
      2          6           0        1.165177   -2.060546   -0.300320
      3          6           0        1.240225   -0.773323   -0.840666
      4          6           0        2.032538    0.169709   -0.187810
      5          6           0        2.745954   -0.122293    0.973682
      6          6           0        2.656131   -1.415904    1.496226
      7          1           0        1.805339   -3.386783    1.276895
      8          1           0        0.553391   -2.810637   -0.793400
      9          1           0        0.705472   -0.495623   -1.740854
     10          1           0        3.347576    0.646740    1.442785
     11          1           0        3.204114   -1.664547    2.400624
     12          7           0        2.119810    1.535815   -0.750426
     13          8           0        2.824791    2.348640   -0.156328
     14          8           0        1.481578    1.767876   -1.774851
     15          6           0       -2.560221    0.625306    0.646692
     16          6           0       -2.696490    2.028076    0.053689
     17          6           0       -2.648602    3.126337    1.116386
     18          1           0       -3.363117    0.464135    1.379036
     19          1           0       -1.613737    0.559459    1.200972
     20          1           0       -3.641786    2.090829   -0.500469
     21          1           0       -1.893289    2.185857   -0.677469
     22          1           0       -1.700606    3.092435    1.662972
     23          1           0       -3.459037    2.996868    1.840977
     24          1           0       -2.747787    4.120957    0.670569
     25          6           0       -2.606255   -0.483374   -0.403278
     26          6           0       -2.469988   -1.886144    0.189725
     27          6           0       -2.517876   -2.984405   -0.872971
     28          1           0       -3.552739   -0.417527   -0.957558
     29          1           0       -1.803360   -0.322203   -1.135623
     30          1           0       -3.273187   -2.043924    0.920883
     31          1           0       -1.524690   -1.948897    0.743883
     32          1           0       -1.707440   -2.854935   -1.597564
     33          1           0       -3.465871   -2.950503   -1.419558
     34          1           0       -2.418690   -3.979025   -0.427155
 ---------------------------------------------------------------------

 SCF Done:  E(RHF) =  -669.534539668     A.U. after   15 cycles
 E2 =    -0.2095136511D+01 EUMP2 =    -0.67162967617868D+03

 The electronic state is 1-A.
 Alpha  occ. eigenvalues --  -20.60903 -20.60898 -15.85945 -11.31311 -11.27852
 Alpha  occ. eigenvalues --  -11.27848 -11.27580 -11.26872 -11.26821 -11.21989
 Alpha  occ. eigenvalues --  -11.21872 -11.21613 -11.21367 -11.21265 -11.20726
 Alpha  occ. eigenvalues --   -1.59969  -1.39523  -1.19476  -1.08872  -1.08561
 Alpha  occ. eigenvalues --   -1.04882  -1.03660  -0.96159  -0.95701  -0.87174
 Alpha  occ. eigenvalues --   -0.86268  -0.82537  -0.79755  -0.78302  -0.77592
 Alpha  occ. eigenvalues --   -0.72161  -0.71290  -0.70575  -0.65359  -0.65103
 Alpha  occ. eigenvalues --   -0.64853  -0.62284  -0.60954  -0.59574  -0.57718
 Alpha  occ. eigenvalues --   -0.55542  -0.55331  -0.53197  -0.52951  -0.52827
 Alpha  occ. eigenvalues --   -0.52529  -0.50098  -0.48921  -0.48918  -0.48048
 Alpha  occ. eigenvalues --   -0.46804  -0.45855  -0.45729  -0.44899  -0.43897
 Alpha  occ. eigenvalues --   -0.37425  -0.36403
 Alpha virt. eigenvalues --    0.04907   0.11076   0.16350   0.19764   0.23182
 Alpha virt. eigenvalues --    0.24070   0.25279   0.26747   0.26954   0.28506
 Alpha virt. eigenvalues --    0.29831   0.30475   0.31307   0.31815   0.32180

 Mulliken charges:
               1
     1  C   -0.172927
     2  C   -0.220231
     3  C   -0.172169
     4  C    0.157916
     5  C   -0.171490
     6  C   -0.217925
     7  H    0.226740
     8  H    0.232294
     9  H    0.276119
    10  H    0.275909
    11  H    0.223998
    12  N    0.488107
    13  O   -0.459390
    14  O   -0.460805
    15  C   -0.299028
    16  C   -0.304476
    17  C   -0.475252
    18  H    0.148662
    19  H    0.149560
    20  H    0.150513
    21  H    0.163628
    22  H    0.156225
    23  H    0.152004
    24  H    0.163335
    25  C   -0.298514
    26  C   -0.306002
    27  C   -0.478541
    28  H    0.151430
    29  H    0.146661
    30  H    0.154413
    31  H    0.154756
    32  H    0.144066
    33  H    0.162111
    34  H    0.158301
 Sum of Mulliken charges =  -0.00000

 Dipole moment (field-independent basis, Debye):
    X=             -0.2635    Y=             -4.7084    Z=              2.0019  Tot=              5.1231
 Quadrupole moment (field-independent basis, Debye-Ang):
   XX=            -93.4567   YY=            -97.3852   ZZ=            -93.6243
   XY=             -9.0843   XZ=              6.7992   YZ=              1.5694

 Normal termination of Gaussian 16 at Thu May  6 06:23:29 2021.
