 Gaussian 16, Revision A.03,
 Gaussian 16:  EM64L-G16RevA.03 25-Dec-2016

 -------------
 #p 6-31g* mp2
 -------------

 ------------------------------------------------------
 Input file generated by CHIRIPA (05-May-2021 14:53:16)
 ------------------------------------------------------
 Symbolic Z-matrix:
 Charge =  0 Multiplicity = 1

                         Standard orientation:
 ---------------------------------------------------------------------
 Center     Atomic      Atomic             Coordinates (Angstroms)
 Number     Number       Type             X           Y           Z
 ---------------------------------------------------------------------
      1          6           0       -2.574398    0.763457    0.388332
      2          6           0       -3.120655    2.130811   -0.023896
      3          6           0       -2.651595    3.257088    0.897666
      4          1           0       -2.884052    0.547873    1.420119
      5          1           0       -1.476245    0.801314    0.393001
      6          1           0       -4.217433    2.089987   -0.029126
      7          1           0       -2.809826    2.343079   -1.054887
      8          1           0       -1.559004    3.326673    0.895668
      9          1           0       -2.974609    3.072142    1.927258
     10          1           0       -3.053803    4.225671    0.584719
     11          6           0       -3.034513   -0.372674   -0.523386
     12          6           0       -2.488256   -1.740028   -0.111158
     13          6           0       -2.957316   -2.866305   -1.032720
     14          1           0       -4.132666   -0.410531   -0.528055
     15          1           0       -2.724859   -0.157091   -1.555173
     16          1           0       -2.799085   -1.952297    0.919834
     17          1           0       -1.391478   -1.699204   -0.105928
     18          1           0       -2.634302   -2.681360   -2.062311
     19          1           0       -4.049907   -2.935890   -1.030721
     20          1           0       -2.555109   -3.834888   -0.719773
     21          6           0        1.609023   -1.376444    2.181035
     22          6           0        2.354758   -0.194283    2.234860
     23          6           0        2.683002    0.492153    1.061996
     24          6           0        2.247242   -0.034337   -0.152999
     25          6           0        1.502868   -1.209812   -0.239357
     26          6           0        1.186204   -1.879548    0.946276
     27          1           0        1.358533   -1.903197    3.097104
     28          1           0        2.684466    0.198768    3.192382
     29          1           0        3.259107    1.409408    1.074783
     30          1           0        1.188324   -1.577031   -1.208702
     31          1           0        0.606928   -2.797413    0.901448
     32          7           0        2.588611    0.683522   -1.401417
     33          8           0        2.192780    0.198920   -2.459300
     34          8           0        3.245541    1.717189   -1.298403
 ---------------------------------------------------------------------

 SCF Done:  E(RHF) =  -669.534627834     A.U. after   15 cycles
 E2 =    -0.2093524146D+01 EUMP2 =    -0.67162815198001D+03

 The electronic state is 1-A.
 Alpha  occ. eigenvalues --  -20.60850 -20.60844 -15.85904 -11.31289 -11.27843
 Alpha  occ. eigenvalues --  -11.27830 -11.27556 -11.26853 -11.26834 -11.21956
 Alpha  occ. eigenvalues --  -11.21605 -11.21567 -11.21502 -11.21459 -11.21073
 Alpha  occ. eigenvalues --   -1.59926  -1.39478  -1.19456  -1.08841  -1.08606
 Alpha  occ. eigenvalues --   -1.04869  -1.03734  -0.96175  -0.95674  -0.87192
 Alpha  occ. eigenvalues --   -0.86247  -0.82522  -0.79825  -0.78418  -0.77543
 Alpha  occ. eigenvalues --   -0.72119  -0.71251  -0.70545  -0.65295  -0.65072
 Alpha  occ. eigenvalues --   -0.64848  -0.62245  -0.61103  -0.59566  -0.57788
 Alpha  occ. eigenvalues --   -0.55453  -0.55334  -0.53255  -0.52945  -0.52855
 Alpha  occ. eigenvalues --   -0.52598  -0.50112  -0.48881  -0.48875  -0.48125
 Alpha  occ. eigenvalues --   -0.46854  -0.45942  -0.45845  -0.44878  -0.43970
 Alpha  occ. eigenvalues --   -0.37418  -0.36350
 Alpha virt. eigenvalues --    0.04943   0.11166   0.16321   0.20651   0.22842
 Alpha virt. eigenvalues --    0.23990   0.26332   0.26612   0.27510   0.28201
 Alpha virt. eigenvalues --    0.28722   0.30159   0.31280   0.31682   0.32312

 Mulliken charges:
               1
     1  C   -0.299556
     2  C   -0.300452
     3  C   -0.475765
     4  H    0.146600
     5  H    0.151878
     6  H    0.151350
     7  H    0.156017
     8  H    0.156269
     9  H    0.152799
    10  H    0.161619
    11  C   -0.298263
    12  C   -0.307424
    13  C   -0.476529
    14  H    0.149980
    15  H    0.153985
    16  H    0.148678
    17  H    0.152497
    18  H    0.158321
    19  H    0.158236
    20  H    0.154592
    21  C   -0.171894
    22  C   -0.218127
    23  C   -0.171716
    24  C    0.157675
    25  C   -0.171335
    26  C   -0.215995
    27  H    0.226270
    28  H    0.223994
    29  H    0.275918
    30  H    0.276265
    31  H    0.226559
    32  N    0.487964
    33  O   -0.460387
    34  O   -0.460023
 Sum of Mulliken charges =  -0.00000

 Dipole moment (field-independent basis, Debye):
    X=             -1.1536    Y=             -2.4593    Z=              4.3861  Tot=              5.1591
 Quadrupole moment (field-independent basis, Debye-Ang):
   XX=            -99.0357   YY=            -93.4986   ZZ=            -95.0086
   XY=             -4.0308   XZ=             11.2885   YZ=              1.6041

 Normal termination of Gaussian 16 at Thu May  6 20:29:00 2021.
