 Gaussian 16, Revision A.03,
 Gaussian 16:  EM64L-G16RevA.03 25-Dec-2016

 -------------
 #p 6-31g* mp2
 -------------

 ------------------------------------------------------
 Input file generated by CHIRIPA (05-May-2021 14:51:13)
 ------------------------------------------------------
 Symbolic Z-matrix:
 Charge =  0 Multiplicity = 1

                         Standard orientation:
 ---------------------------------------------------------------------
 Center     Atomic      Atomic             Coordinates (Angstroms)
 Number     Number       Type             X           Y           Z
 ---------------------------------------------------------------------
      1          6           0        3.019068   -0.161475   -0.642641
      2          6           0        2.231923   -1.441555   -0.925101
      3          6           0        3.064397   -2.499681   -1.649775
      4          1           0        3.391492    0.249211   -1.591104
      5          1           0        3.904086   -0.408931   -0.040227
      6          1           0        1.347911   -1.191560   -1.525635
      7          1           0        1.861167   -1.849138    0.024126
      8          1           0        3.938585   -2.777809   -1.052246
      9          1           0        3.422414   -2.116495   -2.610813
     10          1           0        2.482225   -3.406380   -1.841689
     11          6           0        2.200337    0.905854    0.081387
     12          6           0        2.987481    2.185934    0.363847
     13          6           0        2.155007    3.244059    1.088521
     14          1           0        1.315318    1.153309   -0.521027
     15          1           0        1.827912    0.495168    1.029850
     16          1           0        3.358237    2.593516   -0.585380
     17          1           0        3.871493    1.935939    0.964381
     18          1           0        1.796991    2.860873    2.049559
     19          1           0        1.280819    3.522187    0.490992
     20          1           0        2.737179    4.150759    1.280436
     21          6           0       -1.915425   -0.617163    0.484096
     22          6           0       -1.938424   -1.600991    1.654368
     23          6           0       -0.541990   -2.082053    2.049775
     24          1           0       -1.432674   -1.095317   -0.379190
     25          1           0       -1.291392    0.246530    0.752448
     26          1           0       -2.563351   -2.461922    1.384410
     27          1           0       -2.421348   -1.120504    2.514910
     28          1           0        0.087515   -1.236405    2.345079
     29          1           0       -0.055294   -2.585446    1.208156
     30          1           0       -0.581784   -2.784428    2.888193
     31          6           0       -3.303979   -0.127216    0.077158
     32          6           0       -3.280980    0.856612   -1.093115
     33          6           0       -4.677414    1.337674   -1.488521
     34          1           0       -3.928013   -0.990908   -0.191194
     35          1           0       -3.786730    0.350939    0.940444
     36          1           0       -2.798056    0.376125   -1.953656
     37          1           0       -2.656052    1.717544   -0.823157
     38          1           0       -5.164110    1.841068   -0.646902
     39          1           0       -5.306920    0.492027   -1.783825
     40          1           0       -4.637621    2.040050   -2.326939
 ---------------------------------------------------------------------

 SCF Done:  E(RHF) =  -470.732866662     A.U. after   11 cycles
 E2 =    -0.1584226287D+01 EUMP2 =    -0.47231709294937D+03

 The electronic state is 1-A.
 Alpha  occ. eigenvalues --  -11.21606 -11.21594 -11.21589 -11.21507 -11.21371
 Alpha  occ. eigenvalues --  -11.21369 -11.21310 -11.21299 -11.21093 -11.21073
 Alpha  occ. eigenvalues --  -11.21060 -11.21042  -1.08438  -1.08373  -1.03543
 Alpha  occ. eigenvalues --   -1.03491  -0.95979  -0.95958  -0.87012  -0.86962
 Alpha  occ. eigenvalues --   -0.79677  -0.79513  -0.78411  -0.78007  -0.65050
 Alpha  occ. eigenvalues --   -0.65033  -0.61002  -0.60852  -0.59396  -0.59278
 Alpha  occ. eigenvalues --   -0.57627  -0.57534  -0.55348  -0.55169  -0.52681
 Alpha  occ. eigenvalues --   -0.52656  -0.52463  -0.52351  -0.50038  -0.49798
 Alpha  occ. eigenvalues --   -0.48138  -0.47800  -0.46706  -0.46450  -0.46179
 Alpha  occ. eigenvalues --   -0.45668  -0.45617  -0.45223  -0.43774  -0.43751
 Alpha virt. eigenvalues --    0.21097   0.23145   0.23358   0.23799   0.25144
 Alpha virt. eigenvalues --    0.26005   0.26654   0.27629   0.28805   0.29708
 Alpha virt. eigenvalues --    0.30639   0.31048   0.31747   0.31833   0.32215

 Mulliken charges:
               1
     1  C   -0.297795
     2  C   -0.307765
     3  C   -0.475424
     4  H    0.149286
     5  H    0.149226
     6  H    0.152287
     7  H    0.160537
     8  H    0.155136
     9  H    0.154945
    10  H    0.159379
    11  C   -0.302757
    12  C   -0.299542
    13  C   -0.475738
    14  H    0.151526
    15  H    0.152613
    16  H    0.152031
    17  H    0.151887
    18  H    0.154504
    19  H    0.154872
    20  H    0.160480
    21  C   -0.302204
    22  C   -0.299565
    23  C   -0.481556
    24  H    0.151653
    25  H    0.153003
    26  H    0.151707
    27  H    0.151700
    28  H    0.156457
    29  H    0.160091
    30  H    0.159901
    31  C   -0.298269
    32  C   -0.299578
    33  C   -0.475635
    34  H    0.149322
    35  H    0.149586
    36  H    0.151436
    37  H    0.151636
    38  H    0.155300
    39  H    0.155225
    40  H    0.160103
 Sum of Mulliken charges =  -0.00000

 Dipole moment (field-independent basis, Debye):
    X=             -0.0017    Y=             -0.0080    Z=              0.0123  Tot=              0.0147
 Quadrupole moment (field-independent basis, Debye-Ang):
   XX=            -85.8975   YY=            -85.0051   ZZ=            -84.0459
   XY=              0.7759   XZ=              0.2379   YZ=             -0.1322

 Normal termination of Gaussian 16 at Thu May  6 00:49:18 2021.
