 Gaussian 16, Revision A.03,
 Gaussian 16:  EM64L-G16RevA.03 25-Dec-2016

 -------------
 #p 6-31g* mp2
 -------------

 ------------------------------------------------------
 Input file generated by CHIRIPA (05-May-2021 14:55:25)
 ------------------------------------------------------
 Symbolic Z-matrix:
 Charge =  0 Multiplicity = 1

                         Standard orientation:
 ---------------------------------------------------------------------
 Center     Atomic      Atomic             Coordinates (Angstroms)
 Number     Number       Type             X           Y           Z
 ---------------------------------------------------------------------
      1          6           0        1.679212    1.831849    1.570932
      2          6           0        2.007130    0.614750    2.177282
      3          6           0        2.478084   -0.455879    1.411447
      4          6           0        2.609536   -0.273777    0.035639
      5          6           0        2.291124    0.926514   -0.597769
      6          6           0        1.822004    1.983579    0.187780
      7          1           0        1.314076    2.658271    2.173508
      8          1           0        1.897236    0.494054    3.251247
      9          1           0        2.739272   -1.409001    1.855022
     10          1           0        2.411212    1.016687   -1.670553
     11          1           0        1.568106    2.927654   -0.285828
     12          7           0        3.107144   -1.400024   -0.785552
     13          8           0        3.214054   -1.214143   -1.995781
     14          8           0        3.380836   -2.447332   -0.203422
     15          6           0       -3.820039   -0.289029    0.063867
     16          6           0       -3.576313   -1.798523    0.060574
     17          6           0       -4.755204   -2.588919    0.629157
     18          1           0       -4.022858    0.040977    1.091927
     19          1           0       -4.725171   -0.069519   -0.519182
     20          1           0       -2.671133   -2.014992    0.642301
     21          1           0       -3.373862   -2.124944   -0.967569
     22          1           0       -5.661910   -2.402233    0.044665
     23          1           0       -4.955189   -2.291657    1.663682
     24          1           0       -4.559650   -3.665709    0.617338
     25          6           0       -2.650424    0.514712   -0.501578
     26          6           0       -2.894149    2.024206   -0.498285
     27          6           0       -1.715259    2.814602   -1.066868
     28          1           0       -1.745292    0.295203    0.081471
     29          1           0       -2.447604    0.184707   -1.529637
     30          1           0       -3.096601    2.350627    0.529858
     31          1           0       -3.799329    2.240675   -1.080012
     32          1           0       -1.515272    2.517340   -2.101393
     33          1           0       -0.808552    2.627917   -0.482375
     34          1           0       -1.910812    3.891393   -1.055049
 ---------------------------------------------------------------------

 SCF Done:  E(RHF) =  -669.534920517     A.U. after   15 cycles
 E2 =    -0.2092464306D+01 EUMP2 =    -0.67162738482301D+03

 The electronic state is 1-A.
 Alpha  occ. eigenvalues --  -20.60803 -20.60798 -15.85857 -11.31252 -11.27819
 Alpha  occ. eigenvalues --  -11.27808 -11.27576 -11.26848 -11.26815 -11.21999
 Alpha  occ. eigenvalues --  -11.21683 -11.21610 -11.21581 -11.21536 -11.21137
 Alpha  occ. eigenvalues --   -1.59878  -1.39430  -1.19432  -1.08827  -1.08656
 Alpha  occ. eigenvalues --   -1.04841  -1.03788  -0.96256  -0.95648  -0.87292
 Alpha  occ. eigenvalues --   -0.86230  -0.82479  -0.79865  -0.78449  -0.77519
 Alpha  occ. eigenvalues --   -0.72076  -0.71200  -0.70529  -0.65318  -0.65080
 Alpha  occ. eigenvalues --   -0.64846  -0.62209  -0.61180  -0.59623  -0.57853
 Alpha  occ. eigenvalues --   -0.55592  -0.55316  -0.53245  -0.53028  -0.52909
 Alpha  occ. eigenvalues --   -0.52557  -0.50187  -0.48837  -0.48828  -0.48162
 Alpha  occ. eigenvalues --   -0.46881  -0.45995  -0.45904  -0.44829  -0.44032
 Alpha  occ. eigenvalues --   -0.37391  -0.36386
 Alpha virt. eigenvalues --    0.05013   0.11088   0.16477   0.21075   0.22686
 Alpha virt. eigenvalues --    0.24162   0.26314   0.26497   0.27379   0.28201
 Alpha virt. eigenvalues --    0.28522   0.30584   0.31277   0.31601   0.31927

 Mulliken charges:
               1
     1  C   -0.172273
     2  C   -0.218619
     3  C   -0.170955
     4  C    0.158593
     5  C   -0.171237
     6  C   -0.218000
     7  H    0.226419
     8  H    0.223709
     9  H    0.275854
    10  H    0.276381
    11  H    0.227233
    12  N    0.488132
    13  O   -0.460024
    14  O   -0.460295
    15  C   -0.298383
    16  C   -0.299943
    17  C   -0.475906
    18  H    0.147803
    19  H    0.149960
    20  H    0.152175
    21  H    0.154472
    22  H    0.155348
    23  H    0.153883
    24  H    0.161936
    25  C   -0.300043
    26  C   -0.298042
    27  C   -0.483742
    28  H    0.151425
    29  H    0.151947
    30  H    0.149528
    31  H    0.153699
    32  H    0.156822
    33  H    0.153974
    34  H    0.158167
 Sum of Mulliken charges =  -0.00000

 Dipole moment (field-independent basis, Debye):
    X=             -1.7193    Y=              3.8846    Z=              2.8767  Tot=              5.1304
 Quadrupole moment (field-independent basis, Debye-Ang):
   XX=           -105.1109   YY=            -96.5017   ZZ=            -90.6031
   XY=             10.3958   XZ=              8.6686   YZ=             -2.8926

 Normal termination of Gaussian 16 at Wed May  5 22:26:48 2021.
