 Gaussian 16, Revision A.03,
 Gaussian 16:  EM64L-G16RevA.03 25-Dec-2016

 -------------
 #p 6-31g* mp2
 -------------

 ------------------------------------------------------
 Input file generated by CHIRIPA (05-May-2021 14:51:09)
 ------------------------------------------------------
 Symbolic Z-matrix:
 Charge =  0 Multiplicity = 1

                         Standard orientation:
 ---------------------------------------------------------------------
 Center     Atomic      Atomic             Coordinates (Angstroms)
 Number     Number       Type             X           Y           Z
 ---------------------------------------------------------------------
      1          6           0        4.412881   -0.531118   -0.087640
      2          6           0        5.935504   -0.391140   -0.090987
      3          6           0        6.647934   -1.672871    0.341915
      4          1           0        4.079375   -0.815327    0.919804
      5          1           0        4.125898   -1.354828   -0.755873
      6          1           0        6.219445    0.432959    0.575987
      7          1           0        6.265408   -0.107044   -1.098493
      8          1           0        6.393572   -2.500220   -0.328455
      9          1           0        6.347348   -1.957148    1.355540
     10          1           0        7.735499   -1.550519    0.332310
     11          6           0        3.686527    0.741990   -0.518142
     12          6           0        2.163904    0.602012   -0.514795
     13          6           0        1.451474    1.883743   -0.947697
     14          1           0        3.973511    1.565701    0.150091
     15          1           0        4.020034    1.026199   -1.525586
     16          1           0        1.834001    0.317917    0.492711
     17          1           0        1.879963   -0.222087   -1.181769
     18          1           0        1.752060    2.168020   -1.961322
     19          1           0        1.705836    2.711092   -0.277327
     20          1           0        0.363909    1.761392   -0.938092
     21          6           0       -3.331247   -0.261726    0.509831
     22          6           0       -2.590331    0.944910    1.086942
     23          6           0       -1.154255    0.616428    1.496304
     24          1           0       -3.336261   -1.070737    1.253082
     25          1           0       -2.778343   -0.640626   -0.360874
     26          1           0       -3.145202    1.322270    1.955466
     27          1           0       -2.587246    1.751211    0.342303
     28          1           0       -0.579893    0.260693    0.634816
     29          1           0       -1.141019   -0.170685    2.257145
     30          1           0       -0.643129    1.493122    1.906204
     31          6           0       -4.768162    0.050854    0.095951
     32          6           0       -5.509077   -1.155783   -0.481160
     33          6           0       -6.945153   -0.827300   -0.890522
     34          1           0       -5.321065    0.429753    0.966656
     35          1           0       -4.763147    0.859865   -0.647300
     36          1           0       -5.512162   -1.962083    0.263479
     37          1           0       -4.954205   -1.533142   -1.349684
     38          1           0       -6.958389   -0.040187   -1.651363
     39          1           0       -7.519515   -0.471565   -0.029034
     40          1           0       -7.456279   -1.703994   -1.300422
 ---------------------------------------------------------------------

 SCF Done:  E(RHF) =  -470.732153922     A.U. after   11 cycles
 E2 =    -0.1583410743D+01 EUMP2 =    -0.47231556466558D+03

 The electronic state is 1-A.
 Alpha  occ. eigenvalues --  -11.21600 -11.21593 -11.21582 -11.21539 -11.21403
 Alpha  occ. eigenvalues --  -11.21377 -11.21344 -11.21318 -11.21069 -11.21056
 Alpha  occ. eigenvalues --  -11.21011 -11.20980  -1.08440  -1.08392  -1.03588
 Alpha  occ. eigenvalues --   -1.03446  -0.96071  -0.95861  -0.87040  -0.86922
 Alpha  occ. eigenvalues --   -0.79655  -0.79514  -0.78273  -0.78183  -0.65105
 Alpha  occ. eigenvalues --   -0.65007  -0.61123  -0.60829  -0.59383  -0.59269
 Alpha  occ. eigenvalues --   -0.57711  -0.57505  -0.55342  -0.55086  -0.52714
 Alpha  occ. eigenvalues --   -0.52584  -0.52445  -0.52306  -0.49894  -0.49844
 Alpha  occ. eigenvalues --   -0.47964  -0.47836  -0.46707  -0.46497  -0.45840
 Alpha  occ. eigenvalues --   -0.45739  -0.45711  -0.45576  -0.43775  -0.43754
 Alpha virt. eigenvalues --    0.21574   0.22981   0.23545   0.25142   0.26404
 Alpha virt. eigenvalues --    0.26491   0.27060   0.27556   0.27771   0.29447
 Alpha virt. eigenvalues --    0.29903   0.30983   0.31409   0.31888   0.32341

 Mulliken charges:
               1
     1  C   -0.298347
     2  C   -0.299633
     3  C   -0.475687
     4  H    0.149864
     5  H    0.149363
     6  H    0.151898
     7  H    0.151870
     8  H    0.155128
     9  H    0.155198
    10  H    0.160178
    11  C   -0.297867
    12  C   -0.304477
    13  C   -0.477828
    14  H    0.149482
    15  H    0.149367
    16  H    0.157640
    17  H    0.150623
    18  H    0.154644
    19  H    0.154920
    20  H    0.163225
    21  C   -0.298259
    22  C   -0.301623
    23  C   -0.481049
    24  H    0.149777
    25  H    0.149298
    26  H    0.151967
    27  H    0.152059
    28  H    0.163526
    29  H    0.154433
    30  H    0.160256
    31  C   -0.298279
    32  C   -0.299647
    33  C   -0.475707
    34  H    0.149576
    35  H    0.149639
    36  H    0.151943
    37  H    0.151898
    38  H    0.155197
    39  H    0.155189
    40  H    0.160243
 Sum of Mulliken charges =  -0.00000

 Dipole moment (field-independent basis, Debye):
    X=             -0.0003    Y=             -0.0052    Z=              0.0144  Tot=              0.0153
 Quadrupole moment (field-independent basis, Debye-Ang):
   XX=            -86.3736   YY=            -85.4057   ZZ=            -83.1949
   XY=              0.7175   XZ=             -0.8143   YZ=              0.3710

 Normal termination of Gaussian 16 at Thu May  6 02:07:21 2021.
