 Gaussian 16, Revision A.03,
 Gaussian 16:  EM64L-G16RevA.03 25-Dec-2016

 -------------
 #p 6-31g* mp2
 -------------

 ------------------------------------------------------
 Input file generated by CHIRIPA (05-May-2021 14:51:09)
 ------------------------------------------------------
 Symbolic Z-matrix:
 Charge =  0 Multiplicity = 1

                         Standard orientation:
 ---------------------------------------------------------------------
 Center     Atomic      Atomic             Coordinates (Angstroms)
 Number     Number       Type             X           Y           Z
 ---------------------------------------------------------------------
      1          6           0        2.421725   -1.426295    0.044011
      2          6           0        1.028108   -1.301656   -0.572659
      3          6           0        0.175701   -2.553912   -0.365174
      4          1           0        2.932401   -2.295639   -0.392333
      5          1           0        2.322422   -1.629354    1.119326
      6          1           0        1.130019   -1.097519   -1.646231
      7          1           0        0.520762   -0.432395   -0.134935
      8          1           0        0.044448   -2.758052    0.702394
      9          1           0        0.657166   -3.426955   -0.817489
     10          1           0       -0.816393   -2.443125   -0.813879
     11          6           0        3.285785   -0.182321   -0.155131
     12          6           0        4.679402   -0.306960    0.461540
     13          6           0        5.531809    0.945297    0.254055
     14          1           0        3.385088    0.020738   -1.230445
     15          1           0        2.775109    0.687023    0.281214
     16          1           0        5.186747   -1.176221    0.023816
     17          1           0        4.577490   -0.511097    1.535112
     18          1           0        5.050343    1.818339    0.706370
     19          1           0        5.663062    1.149436   -0.813513
     20          1           0        6.523902    0.834510    0.702760
     21          6           0       -3.445031    0.421218   -0.239510
     22          6           0       -4.090545   -0.551823    0.747651
     23          6           0       -5.271988   -1.310758    0.142670
     24          1           0       -4.202560    1.136585   -0.587856
     25          1           0       -3.109578   -0.135115   -1.125716
     26          1           0       -4.423438    0.005970    1.632336
     27          1           0       -3.331347   -1.264838    1.093834
     28          1           0       -4.951365   -1.891977   -0.727954
     29          1           0       -6.049661   -0.613950   -0.186394
     30          1           0       -5.718458   -2.000731    0.865486
     31          6           0       -2.262478    1.187398    0.350629
     32          6           0       -1.616964    2.160439   -0.636532
     33          6           0       -0.435521    2.919375   -0.031551
     34          1           0       -2.597931    1.743730    1.236834
     35          1           0       -1.504949    0.472031    0.698975
     36          1           0       -2.376163    2.873453   -0.982716
     37          1           0       -1.284071    1.602646   -1.521217
     38          1           0        0.342151    2.222565    0.297512
     39          1           0       -0.756146    3.500593    0.839073
     40          1           0        0.010949    3.609347   -0.754367
 ---------------------------------------------------------------------

 SCF Done:  E(RHF) =  -470.733073560     A.U. after   11 cycles
 E2 =    -0.1584268201D+01 EUMP2 =    -0.47231734176060D+03

 The electronic state is 1-A.
 Alpha  occ. eigenvalues --  -11.21661 -11.21626 -11.21587 -11.21585 -11.21454
 Alpha  occ. eigenvalues --  -11.21395 -11.21393 -11.21334 -11.21169 -11.21079
 Alpha  occ. eigenvalues --  -11.21078 -11.21061  -1.08501  -1.08408  -1.03593
 Alpha  occ. eigenvalues --   -1.03514  -0.96039  -0.95967  -0.87051  -0.86988
 Alpha  occ. eigenvalues --   -0.79659  -0.79579  -0.78343  -0.78197  -0.65328
 Alpha  occ. eigenvalues --   -0.64895  -0.61093  -0.60813  -0.59397  -0.59333
 Alpha  occ. eigenvalues --   -0.57658  -0.57572  -0.55393  -0.55189  -0.52728
 Alpha  occ. eigenvalues --   -0.52665  -0.52454  -0.52402  -0.50038  -0.49863
 Alpha  occ. eigenvalues --   -0.48048  -0.47852  -0.46863  -0.46555  -0.46042
 Alpha  occ. eigenvalues --   -0.45798  -0.45728  -0.45290  -0.43832  -0.43776
 Alpha virt. eigenvalues --    0.19544   0.21984   0.23568   0.24716   0.25647
 Alpha virt. eigenvalues --    0.26374   0.26689   0.27567   0.28950   0.29714
 Alpha virt. eigenvalues --    0.30517   0.31391   0.31717   0.31891   0.32546

 Mulliken charges:
               1
     1  C   -0.297662
     2  C   -0.309716
     3  C   -0.476910
     4  H    0.149969
     5  H    0.149442
     6  H    0.152115
     7  H    0.161142
     8  H    0.155228
     9  H    0.155997
    10  H    0.160753
    11  C   -0.301556
    12  C   -0.299643
    13  C   -0.475815
    14  H    0.149835
    15  H    0.152392
    16  H    0.152086
    17  H    0.152007
    18  H    0.155591
    19  H    0.155242
    20  H    0.160312
    21  C   -0.298272
    22  C   -0.300790
    23  C   -0.475585
    24  H    0.149702
    25  H    0.149631
    26  H    0.151792
    27  H    0.153233
    28  H    0.154989
    29  H    0.155108
    30  H    0.160315
    31  C   -0.303613
    32  C   -0.300218
    33  C   -0.480150
    34  H    0.149498
    35  H    0.154200
    36  H    0.152241
    37  H    0.153387
    38  H    0.157913
    39  H    0.155047
    40  H    0.160766
 Sum of Mulliken charges =  -0.00000

 Dipole moment (field-independent basis, Debye):
    X=              0.0219    Y=             -0.0067    Z=             -0.0043  Tot=              0.0233
 Quadrupole moment (field-independent basis, Debye-Ang):
   XX=            -85.5438   YY=            -85.1717   ZZ=            -83.9938
   XY=             -1.7710   XZ=             -0.7244   YZ=              0.4391

 Normal termination of Gaussian 16 at Wed May  5 19:45:38 2021.
