 Gaussian 16, Revision A.03,
 Gaussian 16:  EM64L-G16RevA.03 25-Dec-2016

 -------------
 #p 6-31g* mp2
 -------------

 ------------------------------------------------------
 Input file generated by CHIRIPA (05-May-2021 14:51:09)
 ------------------------------------------------------
 Symbolic Z-matrix:
 Charge =  0 Multiplicity = 1

                         Standard orientation:
 ---------------------------------------------------------------------
 Center     Atomic      Atomic             Coordinates (Angstroms)
 Number     Number       Type             X           Y           Z
 ---------------------------------------------------------------------
      1          6           0        3.259471   -0.315860    0.178842
      2          6           0        3.186152   -1.461891   -0.830723
      3          6           0        3.430399   -2.829250   -0.191607
      4          1           0        4.245478   -0.324914    0.663251
      5          1           0        2.519579   -0.487973    0.972776
      6          1           0        3.925010   -1.286957   -1.623253
      7          1           0        2.200273   -1.449991   -1.312924
      8          1           0        2.686138   -3.029540    0.585927
      9          1           0        4.420674   -2.865580    0.273835
     10          1           0        3.373405   -3.634026   -0.931165
     11          6           0        3.017413    1.057449   -0.444984
     12          6           0        3.090732    2.203481    0.564581
     13          6           0        2.846484    3.570839   -0.074535
     14          1           0        3.757305    1.229562   -1.238918
     15          1           0        2.031405    1.066503   -0.929394
     16          1           0        4.076610    2.191580    1.046781
     17          1           0        2.351874    2.028547    1.357111
     18          1           0        1.856209    3.607169   -0.539977
     19          1           0        3.590746    3.771129   -0.852070
     20          1           0        2.903479    4.375616    0.665023
     21          6           0       -2.612162   -0.900753   -0.026946
     22          6           0       -1.388796   -0.836101    0.888030
     23          6           0       -0.344855   -1.902587    0.555485
     24          1           0       -3.067173   -1.897766    0.049716
     25          1           0       -2.287569   -0.784693   -1.070288
     26          1           0       -1.715756   -0.950863    1.929444
     27          1           0       -0.936758    0.160936    0.809327
     28          1           0        0.009526   -1.787016   -0.473913
     29          1           0       -0.773898   -2.905132    0.652569
     30          1           0        0.521130   -1.838197    1.221655
     31          6           0       -3.664721    0.159165    0.293088
     32          6           0       -4.888088    0.094511   -0.621888
     33          6           0       -5.932029    1.160997   -0.289342
     34          1           0       -3.989315    0.043104    1.336430
     35          1           0       -3.209712    1.156177    0.216426
     36          1           0       -5.340126   -0.902526   -0.543185
     37          1           0       -4.561128    0.209274   -1.663302
     38          1           0       -5.502986    2.163544   -0.386427
     39          1           0       -6.286410    1.045426    0.740055
     40          1           0       -6.798014    1.096608   -0.955513
 ---------------------------------------------------------------------

 SCF Done:  E(RHF) =  -470.732025172     A.U. after   11 cycles
 E2 =    -0.1584307678D+01 EUMP2 =    -0.47231633285041D+03

 The electronic state is 1-A.
 Alpha  occ. eigenvalues --  -11.21683 -11.21638 -11.21598 -11.21501 -11.21463
 Alpha  occ. eigenvalues --  -11.21401 -11.21374 -11.21293 -11.21123 -11.21099
 Alpha  occ. eigenvalues --  -11.21078 -11.20964  -1.08501  -1.08384  -1.03623
 Alpha  occ. eigenvalues --   -1.03459  -0.96051  -0.95931  -0.87073  -0.86950
 Alpha  occ. eigenvalues --   -0.79664  -0.79554  -0.78302  -0.78217  -0.65266
 Alpha  occ. eigenvalues --   -0.64944  -0.61172  -0.60778  -0.59450  -0.59226
 Alpha  occ. eigenvalues --   -0.57664  -0.57546  -0.55320  -0.55236  -0.52741
 Alpha  occ. eigenvalues --   -0.52623  -0.52497  -0.52341  -0.50117  -0.49764
 Alpha  occ. eigenvalues --   -0.48022  -0.47866  -0.46791  -0.46451  -0.45882
 Alpha  occ. eigenvalues --   -0.45781  -0.45721  -0.45558  -0.43787  -0.43735
 Alpha virt. eigenvalues --    0.20238   0.23143   0.23643   0.24922   0.25538
 Alpha virt. eigenvalues --    0.26221   0.27047   0.27550   0.27991   0.29583
 Alpha virt. eigenvalues --    0.30308   0.30796   0.31677   0.32210   0.32312

 Mulliken charges:
               1
     1  C   -0.301780
     2  C   -0.301679
     3  C   -0.478508
     4  H    0.149401
     5  H    0.153134
     6  H    0.151572
     7  H    0.154791
     8  H    0.158954
     9  H    0.154431
    10  H    0.159784
    11  C   -0.298187
    12  C   -0.299862
    13  C   -0.475575
    14  H    0.149549
    15  H    0.148871
    16  H    0.152087
    17  H    0.151842
    18  H    0.154683
    19  H    0.155254
    20  H    0.160283
    21  C   -0.298643
    22  C   -0.300870
    23  C   -0.481623
    24  H    0.150069
    25  H    0.149469
    26  H    0.152241
    27  H    0.151686
    28  H    0.158845
    29  H    0.155736
    30  H    0.163546
    31  C   -0.298294
    32  C   -0.299696
    33  C   -0.475744
    34  H    0.149699
    35  H    0.149601
    36  H    0.152052
    37  H    0.151982
    38  H    0.155246
    39  H    0.155251
    40  H    0.160402
 Sum of Mulliken charges =  -0.00000

 Dipole moment (field-independent basis, Debye):
    X=             -0.0375    Y=             -0.0217    Z=              0.0098  Tot=              0.0444
 Quadrupole moment (field-independent basis, Debye-Ang):
   XX=            -84.4237   YY=            -85.9874   ZZ=            -84.4547
   XY=              1.1963   XZ=             -0.3884   YZ=             -0.2180

 Normal termination of Gaussian 16 at Wed May  5 22:59:34 2021.
