 Gaussian 16, Revision A.03,
 Gaussian 16:  EM64L-G16RevA.03 25-Dec-2016

 -------------
 #p 6-31g* mp2
 -------------

 ------------------------------------------------------
 Input file generated by CHIRIPA (05-May-2021 14:57:25)
 ------------------------------------------------------
 Symbolic Z-matrix:
 Charge =  0 Multiplicity = 1

                         Standard orientation:
 ---------------------------------------------------------------------
 Center     Atomic      Atomic             Coordinates (Angstroms)
 Number     Number       Type             X           Y           Z
 ---------------------------------------------------------------------
      1          6           0       -4.528371   -2.093883   -0.404374
      2          6           0       -4.612291   -0.975142   -1.239777
      3          6           0       -3.935253    0.204604   -0.916721
      4          6           0       -3.180003    0.230730    0.254690
      5          6           0       -3.076765   -0.867225    1.107407
      6          6           0       -3.762227   -2.036455    0.764491
      7          1           0       -5.057583   -3.006254   -0.663045
      8          1           0       -5.206542   -1.016866   -2.148166
      9          1           0       -3.982903    1.085408   -1.545476
     10          1           0       -2.476513   -0.795332    2.006266
     11          1           0       -3.695238   -2.903741    1.415161
     12          7           0       -2.458794    1.474108    0.607207
     13          8           0       -1.800065    1.471544    1.644852
     14          8           0       -2.565896    2.427689   -0.160809
     15          6           0        1.346161    1.495741   -0.684193
     16          6           0        2.597380    2.039616   -0.375693
     17          6           0        3.686375    1.206122   -0.103804
     18          6           0        3.487647   -0.172905   -0.149451
     19          6           0        2.253391   -0.745046   -0.453677
     20          6           0        1.178455    0.107593   -0.722133
     21          1           0        0.505665    2.150656   -0.894070
     22          1           0        2.730549    3.117299   -0.345503
     23          1           0        4.665936    1.600467    0.137798
     24          1           0        2.151476   -1.823252   -0.476125
     25          1           0        0.207886   -0.317587   -0.961428
     26          7           0        4.633076   -1.065421    0.136568
     27          8           0        4.431964   -2.277037    0.089896
     28          8           0        5.710284   -0.536461    0.402007
 ---------------------------------------------------------------------

 SCF Done:  E(RHF) =  -868.339638529     A.U. after   16 cycles
 E2 =    -0.2599658645D+01 EUMP2 =    -0.87093929717355D+03

 The electronic state is 1-A.
 Alpha  occ. eigenvalues --  -20.61950 -20.61894 -20.60318 -20.60306 -15.86936
 Alpha  occ. eigenvalues --  -15.85366 -11.32128 -11.30553 -11.28660 -11.28627
 Alpha  occ. eigenvalues --  -11.28314 -11.27591 -11.27566 -11.27181 -11.27113
 Alpha  occ. eigenvalues --  -11.26676 -11.26111 -11.25996  -1.61001  -1.59395
 Alpha  occ. eigenvalues --   -1.40547  -1.38954  -1.20267  -1.18709  -1.09689
 Alpha  occ. eigenvalues --   -1.08100  -1.05616  -1.04111  -0.96550  -0.94968
 Alpha  occ. eigenvalues --   -0.87019  -0.85505  -0.83372  -0.81828  -0.78456
 Alpha  occ. eigenvalues --   -0.76935  -0.73140  -0.72365  -0.71587  -0.71329
 Alpha  occ. eigenvalues --   -0.70717  -0.69705  -0.65897  -0.65588  -0.64356
 Alpha  occ. eigenvalues --   -0.64121  -0.62949  -0.61489  -0.56097  -0.54499
 Alpha  occ. eigenvalues --   -0.53964  -0.53682  -0.52415  -0.52204  -0.49925
 Alpha  occ. eigenvalues --   -0.49895  -0.48353  -0.48329  -0.45975  -0.44401
 Alpha  occ. eigenvalues --   -0.38232  -0.37218  -0.36592  -0.35726
 Alpha virt. eigenvalues --    0.04006   0.05638   0.10432   0.11939   0.15542
 Alpha virt. eigenvalues --    0.17192   0.20696   0.22005   0.26637   0.27492
 Alpha virt. eigenvalues --    0.27613   0.29054   0.30421   0.31565   0.31945

 Mulliken charges:
               1
     1  C   -0.169913
     2  C   -0.218592
     3  C   -0.173136
     4  C    0.153275
     5  C   -0.172860
     6  C   -0.218937
     7  H    0.229482
     8  H    0.226499
     9  H    0.276108
    10  H    0.279014
    11  H    0.227753
    12  N    0.485618
    13  O   -0.453982
    14  O   -0.465759
    15  C   -0.168498
    16  C   -0.219341
    17  C   -0.170971
    18  C    0.157228
    19  C   -0.171967
    20  C   -0.220448
    21  H    0.241188
    22  H    0.224857
    23  H    0.273785
    24  H    0.270903
    25  H    0.215934
    26  N    0.488360
    27  O   -0.463984
    28  O   -0.461615
 Sum of Mulliken charges =  -0.00000

 Dipole moment (field-independent basis, Debye):
    X=             -6.9514    Y=             -1.1747    Z=             -2.1563  Tot=              7.3724
 Quadrupole moment (field-independent basis, Debye-Ang):
   XX=           -115.3900   YY=           -104.1574   ZZ=           -102.5420
   XY=             28.0444   XZ=              2.6054   YZ=             -3.1717

 Normal termination of Gaussian 16 at Wed May  5 16:27:59 2021.
