 Gaussian 16, Revision A.03,
 Gaussian 16:  EM64L-G16RevA.03 25-Dec-2016

 -------------
 #p 6-31g* mp2
 -------------

 ------------------------------------------------------
 Input file generated by CHIRIPA (05-May-2021 14:51:09)
 ------------------------------------------------------
 Symbolic Z-matrix:
 Charge =  0 Multiplicity = 1

                         Standard orientation:
 ---------------------------------------------------------------------
 Center     Atomic      Atomic             Coordinates (Angstroms)
 Number     Number       Type             X           Y           Z
 ---------------------------------------------------------------------
      1          6           0       -3.612324    0.021474    0.452743
      2          6           0       -2.304085   -0.680133    0.086349
      3          6           0       -1.088529   -0.063862    0.779480
      4          1           0       -3.537352    1.084984    0.187658
      5          1           0       -3.750006   -0.020177    1.542102
      6          1           0       -2.169598   -0.638380   -1.002130
      7          1           0       -2.382249   -1.742136    0.352161
      8          1           0       -1.196337   -0.119219    1.867558
      9          1           0       -0.982477    0.990808    0.505572
     10          1           0       -0.164112   -0.580683    0.503420
     11          6           0       -4.836554   -0.583233   -0.232326
     12          6           0       -6.144793    0.118374    0.134068
     13          6           0       -7.360348   -0.497897   -0.559063
     14          1           0       -4.698872   -0.541582   -1.321685
     15          1           0       -4.911525   -1.646743    0.032759
     16          1           0       -6.066628    1.180377   -0.131744
     17          1           0       -6.279279    0.076621    1.222547
     18          1           0       -7.466400   -1.552567   -0.285155
     19          1           0       -7.252541   -0.442540   -1.647141
     20          1           0       -8.284766    0.018924   -0.283003
     21          6           0        4.949717    0.060397   -0.016451
     22          6           0        5.152767   -1.445348   -0.188175
     23          6           0        6.608886   -1.871023    0.002386
     24          1           0        5.586336    0.594135   -0.735329
     25          1           0        5.291578    0.357616    0.984641
     26          1           0        4.809342   -1.739869   -1.188142
     27          1           0        4.515448   -1.975568    0.531066
     28          1           0        6.959872   -1.605379    1.004805
     29          1           0        7.255436   -1.368340   -0.724171
     30          1           0        6.731318   -2.951163   -0.124770
     31          6           0        3.499160    0.501363   -0.203966
     32          6           0        3.296111    2.007107   -0.032242
     33          6           0        1.839992    2.432783   -0.222803
     34          1           0        3.157299    0.204142   -1.205058
     35          1           0        2.862542   -0.032376    0.514912
     36          1           0        3.933430    2.537327   -0.751483
     37          1           0        3.639536    2.301627    0.967724
     38          1           0        1.193443    1.930099    0.503754
     39          1           0        1.489007    2.167138   -1.225222
     40          1           0        1.717560    3.512922   -0.095648
 ---------------------------------------------------------------------

 SCF Done:  E(RHF) =  -470.732901109     A.U. after   11 cycles
 E2 =    -0.1582674420D+01 EUMP2 =    -0.47231557552909D+03

 The electronic state is 1-A.
 Alpha  occ. eigenvalues --  -11.21591 -11.21588 -11.21578 -11.21547 -11.21390
 Alpha  occ. eigenvalues --  -11.21379 -11.21331 -11.21320 -11.21063 -11.21060
 Alpha  occ. eigenvalues --  -11.21022 -11.20940  -1.08418  -1.08395  -1.03534
 Alpha  occ. eigenvalues --   -1.03470  -0.96009  -0.95900  -0.87058  -0.86893
 Alpha  occ. eigenvalues --   -0.79667  -0.79477  -0.78246  -0.78192  -0.65060
 Alpha  occ. eigenvalues --   -0.65017  -0.60986  -0.60831  -0.59392  -0.59249
 Alpha  occ. eigenvalues --   -0.57625  -0.57520  -0.55398  -0.55108  -0.52724
 Alpha  occ. eigenvalues --   -0.52641  -0.52491  -0.52217  -0.50061  -0.49723
 Alpha  occ. eigenvalues --   -0.47965  -0.47781  -0.46693  -0.46478  -0.45813
 Alpha  occ. eigenvalues --   -0.45728  -0.45691  -0.45619  -0.43764  -0.43727
 Alpha virt. eigenvalues --    0.22234   0.22948   0.23632   0.24747   0.26053
 Alpha virt. eigenvalues --    0.26464   0.27017   0.27157   0.27822   0.29177
 Alpha virt. eigenvalues --    0.30321   0.30769   0.31543   0.31870   0.32014

 Mulliken charges:
               1
     1  C   -0.298598
     2  C   -0.299686
     3  C   -0.480902
     4  H    0.149979
     5  H    0.149372
     6  H    0.152090
     7  H    0.151618
     8  H    0.154214
     9  H    0.159761
    10  H    0.162185
    11  C   -0.298256
    12  C   -0.299638
    13  C   -0.475696
    14  H    0.149528
    15  H    0.149597
    16  H    0.151983
    17  H    0.151879
    18  H    0.155146
    19  H    0.155177
    20  H    0.160224
    21  C   -0.298229
    22  C   -0.299650
    23  C   -0.475679
    24  H    0.149671
    25  H    0.149539
    26  H    0.151826
    27  H    0.151830
    28  H    0.155192
    29  H    0.155166
    30  H    0.160180
    31  C   -0.299794
    32  C   -0.299389
    33  C   -0.481944
    34  H    0.149244
    35  H    0.151062
    36  H    0.151450
    37  H    0.151665
    38  H    0.164744
    39  H    0.154088
    40  H    0.159053
 Sum of Mulliken charges =  -0.00000

 Dipole moment (field-independent basis, Debye):
    X=             -0.0167    Y=              0.0012    Z=              0.0097  Tot=              0.0193
 Quadrupole moment (field-independent basis, Debye-Ang):
   XX=            -86.8537   YY=            -84.7669   ZZ=            -83.3544
   XY=              0.1798   XZ=             -0.7510   YZ=             -0.7143

 Normal termination of Gaussian 16 at Wed May  5 21:21:08 2021.
