 Gaussian 16, Revision A.03,
 Gaussian 16:  EM64L-G16RevA.03 25-Dec-2016

 -------------
 #p 6-31g* mp2
 -------------

 ------------------------------------------------------
 Input file generated by CHIRIPA (05-May-2021 14:53:13)
 ------------------------------------------------------
 Symbolic Z-matrix:
 Charge =  0 Multiplicity = 1

                         Standard orientation:
 ---------------------------------------------------------------------
 Center     Atomic      Atomic             Coordinates (Angstroms)
 Number     Number       Type             X           Y           Z
 ---------------------------------------------------------------------
      1          6           0       -2.411482   -0.518107   -0.454891
      2          6           0       -3.256534   -1.745287   -0.111524
      3          6           0       -2.665549   -3.043123   -0.663024
      4          1           0       -2.312388   -0.442794   -1.546428
      5          1           0       -1.396490   -0.657723   -0.057784
      6          1           0       -4.270018   -1.602794   -0.507960
      7          1           0       -3.353788   -1.817579    0.979316
      8          1           0       -1.662567   -3.212336   -0.258059
      9          1           0       -2.584003   -2.996332   -1.753786
     10          1           0       -3.285522   -3.907647   -0.405942
     11          6           0       -2.989364    0.787008    0.089588
     12          6           0       -2.144312    2.014188   -0.253780
     13          6           0       -2.735298    3.312024    0.297720
     14          1           0       -4.004356    0.926624   -0.307519
     15          1           0       -3.088458    0.711695    1.181125
     16          1           0       -2.047058    2.086480   -1.344619
     17          1           0       -1.130828    1.871695    0.142657
     18          1           0       -2.816843    3.265233    1.388482
     19          1           0       -3.738279    3.481238   -0.107244
     20          1           0       -2.115324    4.176548    0.040638
     21          6           0        2.522596    2.333483   -0.356355
     22          6           0        3.203432    1.346513   -1.076685
     23          6           0        2.982537   -0.007712   -0.808677
     24          6           0        2.069789   -0.340786    0.190943
     25          6           0        1.375998    0.619298    0.925915
     26          6           0        1.612657    1.967370    0.640888
     27          1           0        2.700315    3.383089   -0.571160
     28          1           0        3.910672    1.627910   -1.851715
     29          1           0        3.495978   -0.792312   -1.351079
     30          1           0        0.676983    0.307901    1.692614
     31          1           0        1.082482    2.731713    1.201905
     32          7           0        1.827593   -1.771188    0.483679
     33          8           0        1.018398   -2.038552    1.369318
     34          8           0        2.451541   -2.597887   -0.178057
 ---------------------------------------------------------------------

 SCF Done:  E(RHF) =  -669.535003357     A.U. after   15 cycles
 E2 =    -0.2094872522D+01 EUMP2 =    -0.67162987587969D+03

 The electronic state is 1-A.
 Alpha  occ. eigenvalues --  -20.61010 -20.61001 -15.86022 -11.31330 -11.27889
 Alpha  occ. eigenvalues --  -11.27875 -11.27607 -11.26887 -11.26873 -11.21734
 Alpha  occ. eigenvalues --  -11.21456 -11.21351 -11.21092 -11.21031 -11.20239
 Alpha  occ. eigenvalues --   -1.60054  -1.39612  -1.19503  -1.08902  -1.08284
 Alpha  occ. eigenvalues --   -1.04909  -1.03338  -0.95790  -0.95746  -0.86806
 Alpha  occ. eigenvalues --   -0.86294  -0.82595  -0.79461  -0.78079  -0.77605
 Alpha  occ. eigenvalues --   -0.72243  -0.71362  -0.70604  -0.65169  -0.64947
 Alpha  occ. eigenvalues --   -0.64903  -0.62245  -0.60731  -0.59244  -0.57383
 Alpha  occ. eigenvalues --   -0.55390  -0.55072  -0.53277  -0.52980  -0.52483
 Alpha  occ. eigenvalues --   -0.52208  -0.49746  -0.49003  -0.48988  -0.47743
 Alpha  occ. eigenvalues --   -0.46510  -0.45708  -0.45537  -0.44791  -0.43592
 Alpha  occ. eigenvalues --   -0.37459  -0.36360
 Alpha virt. eigenvalues --    0.04847   0.11023   0.16216   0.20471   0.23189
 Alpha virt. eigenvalues --    0.24276   0.26307   0.27355   0.27444   0.28400
 Alpha virt. eigenvalues --    0.29076   0.30851   0.31558   0.31710   0.32497

 Mulliken charges:
               1
     1  C   -0.303114
     2  C   -0.297592
     3  C   -0.481629
     4  H    0.147794
     5  H    0.153536
     6  H    0.148215
     7  H    0.153371
     8  H    0.172458
     9  H    0.150893
    10  H    0.158624
    11  C   -0.298085
    12  C   -0.306254
    13  C   -0.475939
    14  H    0.149839
    15  H    0.147773
    16  H    0.152440
    17  H    0.151775
    18  H    0.153070
    19  H    0.158507
    20  H    0.154429
    21  C   -0.171398
    22  C   -0.218333
    23  C   -0.170877
    24  C    0.159605
    25  C   -0.169964
    26  C   -0.217510
    27  H    0.226435
    28  H    0.224083
    29  H    0.276016
    30  H    0.276137
    31  H    0.225949
    32  N    0.488589
    33  O   -0.461026
    34  O   -0.457816
 Sum of Mulliken charges =  -0.00000

 Dipole moment (field-independent basis, Debye):
    X=              1.0730    Y=              4.9030    Z=             -1.0284  Tot=              5.1233
 Quadrupole moment (field-independent basis, Debye-Ang):
   XX=            -89.4958   YY=            -99.4979   ZZ=            -92.4918
   XY=              9.7185   XZ=             -4.2966   YZ=              1.7330

 Normal termination of Gaussian 16 at Thu May  6 04:11:57 2021.
