 Gaussian 16, Revision A.03,
 Gaussian 16:  EM64L-G16RevA.03 25-Dec-2016

 -------------
 #p 6-31g* mp2
 -------------

 ------------------------------------------------------
 Input file generated by CHIRIPA (05-May-2021 14:55:23)
 ------------------------------------------------------
 Symbolic Z-matrix:
 Charge =  0 Multiplicity = 1

                         Standard orientation:
 ---------------------------------------------------------------------
 Center     Atomic      Atomic             Coordinates (Angstroms)
 Number     Number       Type             X           Y           Z
 ---------------------------------------------------------------------
      1          6           0        2.137942    2.033640    0.746828
      2          6           0        3.181552    1.555871    1.546288
      3          6           0        3.876419    0.396634    1.188690
      4          6           0        3.499549   -0.262811    0.019762
      5          6           0        2.464266    0.188207   -0.797588
      6          6           0        1.783255    1.349489   -0.420500
      7          1           0        1.603534    2.934958    1.032189
      8          1           0        3.459179    2.085139    2.453396
      9          1           0        4.688310    0.004706    1.789226
     10          1           0        2.210403   -0.361021   -1.696098
     11          1           0        0.973189    1.718219   -1.043298
     12          7           0        4.227840   -1.491126   -0.369127
     13          8           0        3.876493   -2.053840   -1.403800
     14          8           0        5.136230   -1.867908    0.368097
     15          6           0       -5.057357   -0.137640   -0.062118
     16          6           0       -5.253444   -1.474727    0.653238
     17          6           0       -6.722302   -1.891188    0.735757
     18          1           0       -5.631251    0.638915    0.461858
     19          1           0       -5.477334   -0.206670   -1.075157
     20          1           0       -4.831985   -1.403635    1.664145
     21          1           0       -4.678862   -2.248153    0.127609
     22          1           0       -7.151640   -1.989853   -0.266509
     23          1           0       -7.305632   -1.140536    1.278758
     24          1           0       -6.839496   -2.849703    1.250902
     25          6           0       -3.594210    0.292188   -0.152554
     26          6           0       -3.398122    1.629275   -0.867909
     27          6           0       -1.929265    2.045735   -0.950428
     28          1           0       -3.174232    0.361216    0.860486
     29          1           0       -3.020316   -0.484368   -0.676530
     30          1           0       -3.972704    2.402700   -0.342280
     31          1           0       -3.819582    1.558182   -1.878817
     32          1           0       -1.345935    1.295084   -1.493430
     33          1           0       -1.499927    2.144400    0.051837
     34          1           0       -1.812071    3.004251   -1.465573
 ---------------------------------------------------------------------

 SCF Done:  E(RHF) =  -669.535221026     A.U. after   15 cycles
 E2 =    -0.2091293362D+01 EUMP2 =    -0.67162651438794D+03

 The electronic state is 1-A.
 Alpha  occ. eigenvalues --  -20.60705 -20.60700 -15.85756 -11.31103 -11.27663
 Alpha  occ. eigenvalues --  -11.27641 -11.27386 -11.26688 -11.26579 -11.22390
 Alpha  occ. eigenvalues --  -11.22233 -11.21958 -11.21918 -11.21797 -11.21321
 Alpha  occ. eigenvalues --   -1.59780  -1.39334  -1.19263  -1.08981  -1.08662
 Alpha  occ. eigenvalues --   -1.04663  -1.04131  -0.96619  -0.95503  -0.87667
 Alpha  occ. eigenvalues --   -0.86050  -0.82337  -0.80225  -0.78745  -0.77381
 Alpha  occ. eigenvalues --   -0.71975  -0.71102  -0.70376  -0.65608  -0.64912
 Alpha  occ. eigenvalues --   -0.64676  -0.62040  -0.61522  -0.59999  -0.58184
 Alpha  occ. eigenvalues --   -0.55920  -0.55161  -0.53419  -0.53185  -0.52962
 Alpha  occ. eigenvalues --   -0.52528  -0.50558  -0.48751  -0.48732  -0.48473
 Alpha  occ. eigenvalues --   -0.47220  -0.46294  -0.46190  -0.44744  -0.44364
 Alpha  occ. eigenvalues --   -0.37242  -0.36254
 Alpha virt. eigenvalues --    0.05132   0.11348   0.16615   0.20758   0.22396
 Alpha virt. eigenvalues --    0.23862   0.25619   0.26033   0.27122   0.27656
 Alpha virt. eigenvalues --    0.28942   0.29874   0.30914   0.31549   0.32069

 Mulliken charges:
               1
     1  C   -0.174456
     2  C   -0.218330
     3  C   -0.171604
     4  C    0.158956
     5  C   -0.173691
     6  C   -0.222179
     7  H    0.225365
     8  H    0.222853
     9  H    0.275149
    10  H    0.274776
    11  H    0.236222
    12  N    0.488060
    13  O   -0.460736
    14  O   -0.460725
    15  C   -0.298916
    16  C   -0.300202
    17  C   -0.476062
    18  H    0.149937
    19  H    0.150613
    20  H    0.152338
    21  H    0.153606
    22  H    0.155795
    23  H    0.155155
    24  H    0.161814
    25  C   -0.299079
    26  C   -0.299816
    27  C   -0.482194
    28  H    0.150073
    29  H    0.151387
    30  H    0.154121
    31  H    0.155179
    32  H    0.151668
    33  H    0.153862
    34  H    0.161059
 Sum of Mulliken charges =  -0.00000

 Dipole moment (field-independent basis, Debye):
    X=             -2.7916    Y=              4.3090    Z=              1.3730  Tot=              5.3146
 Quadrupole moment (field-independent basis, Debye-Ang):
   XX=           -112.1018   YY=            -97.6841   ZZ=            -90.9170
   XY=             15.7867   XZ=              7.5912   YZ=              0.6705

 Normal termination of Gaussian 16 at Thu May  6 03:08:20 2021.
