 Gaussian 16, Revision A.03,
 Gaussian 16:  EM64L-G16RevA.03 25-Dec-2016

 -------------
 #p 6-31g* mp2
 -------------

 ------------------------------------------------------
 Input file generated by CHIRIPA (05-May-2021 14:55:19)
 ------------------------------------------------------
 Symbolic Z-matrix:
 Charge =  0 Multiplicity = 1

                         Standard orientation:
 ---------------------------------------------------------------------
 Center     Atomic      Atomic             Coordinates (Angstroms)
 Number     Number       Type             X           Y           Z
 ---------------------------------------------------------------------
      1          6           0        0.009848   -1.459957    0.919236
      2          6           0        0.739588   -0.587646    1.733531
      3          6           0        1.982007   -0.100032    1.317390
      4          6           0        2.466794   -0.507225    0.075430
      5          6           0        1.763509   -1.375117   -0.758503
      6          6           0        0.523233   -1.850220   -0.321994
      7          1           0       -0.954461   -1.833888    1.250416
      8          1           0        0.343357   -0.282864    2.697976
      9          1           0        2.567923    0.576351    1.927822
     10          1           0        2.184523   -1.661042   -1.714752
     11          1           0       -0.041293   -2.527556   -0.956479
     12          7           0        3.780953    0.002368   -0.375902
     13          8           0        4.186073   -0.371479   -1.474425
     14          8           0        4.380988    0.765984    0.377414
     15          6           0       -2.430387    1.241131    0.190888
     16          6           0       -1.551774    2.100166   -0.719102
     17          6           0       -0.657426    3.064133    0.061093
     18          1           0       -3.052592    1.897182    0.814910
     19          1           0       -1.788691    0.672570    0.878172
     20          1           0       -2.194873    2.665893   -1.405390
     21          1           0       -0.931727    1.441991   -1.341166
     22          1           0        0.007842    2.513390    0.733923
     23          1           0       -1.262482    3.744244    0.669333
     24          1           0       -0.037882    3.668386   -0.608911
     25          6           0       -3.330136    0.272371   -0.574413
     26          6           0       -4.208750   -0.586665    0.335577
     27          6           0       -5.103097   -1.550631   -0.444618
     28          1           0       -3.971832    0.840933   -1.261697
     29          1           0       -2.707932   -0.383680   -1.198434
     30          1           0       -4.828797    0.071511    0.957641
     31          1           0       -3.565650   -1.152391    1.021866
     32          1           0       -4.498041   -2.230742   -1.052859
     33          1           0       -5.768366   -0.999887   -1.117448
     34          1           0       -5.722642   -2.154883    0.225385
 ---------------------------------------------------------------------

 SCF Done:  E(RHF) =  -669.534502655     A.U. after   15 cycles
 E2 =    -0.2095248433D+01 EUMP2 =    -0.67162975108752D+03

 The electronic state is 1-A.
 Alpha  occ. eigenvalues --  -20.60853 -20.60846 -15.85910 -11.31328 -11.27923
 Alpha  occ. eigenvalues --  -11.27914 -11.27654 -11.26935 -11.26919 -11.22494
 Alpha  occ. eigenvalues --  -11.22045 -11.21865 -11.21853 -11.21775 -11.21224
 Alpha  occ. eigenvalues --   -1.59927  -1.39479  -1.19525  -1.09066  -1.08850
 Alpha  occ. eigenvalues --   -1.04935  -1.04055  -0.96499  -0.95726  -0.87514
 Alpha  occ. eigenvalues --   -0.86325  -0.82558  -0.80157  -0.78806  -0.77588
 Alpha  occ. eigenvalues --   -0.72127  -0.71251  -0.70653  -0.65702  -0.65175
 Alpha  occ. eigenvalues --   -0.64894  -0.62274  -0.61485  -0.59881  -0.58101
 Alpha  occ. eigenvalues --   -0.55819  -0.55409  -0.53251  -0.53181  -0.53012
 Alpha  occ. eigenvalues --   -0.52914  -0.50466  -0.48891  -0.48878  -0.48455
 Alpha  occ. eigenvalues --   -0.47224  -0.46328  -0.46272  -0.44873  -0.44302
 Alpha  occ. eigenvalues --   -0.37389  -0.36483
 Alpha virt. eigenvalues --    0.04899   0.10965   0.16265   0.19254   0.23186
 Alpha virt. eigenvalues --    0.23459   0.25283   0.26021   0.27014   0.27904
 Alpha virt. eigenvalues --    0.29652   0.30009   0.31238   0.31304   0.31943

 Mulliken charges:
               1
     1  C   -0.171639
     2  C   -0.219087
     3  C   -0.170798
     4  C    0.158875
     5  C   -0.170784
     6  C   -0.220735
     7  H    0.231947
     8  H    0.225420
     9  H    0.276810
    10  H    0.276465
    11  H    0.224402
    12  N    0.488137
    13  O   -0.460104
    14  O   -0.459795
    15  C   -0.301099
    16  C   -0.299280
    17  C   -0.478355
    18  H    0.149095
    19  H    0.148417
    20  H    0.152383
    21  H    0.154149
    22  H    0.154240
    23  H    0.153603
    24  H    0.164167
    25  C   -0.299521
    26  C   -0.300492
    27  C   -0.475197
    28  H    0.153436
    29  H    0.145895
    30  H    0.156010
    31  H    0.140359
    32  H    0.152160
    33  H    0.159288
    34  H    0.161627
 Sum of Mulliken charges =  -0.00000

 Dipole moment (field-independent basis, Debye):
    X=             -4.5681    Y=             -1.7896    Z=              1.5472  Tot=              5.1443
 Quadrupole moment (field-independent basis, Debye-Ang):
   XX=           -117.9635   YY=            -92.2106   ZZ=            -91.2648
   XY=             -2.9491   XZ=              3.9515   YZ=              1.1924

 Normal termination of Gaussian 16 at Thu May  6 02:55:24 2021.
