 Gaussian 16, Revision A.03,
 Gaussian 16:  EM64L-G16RevA.03 25-Dec-2016

 -------------
 #p 6-31g* mp2
 -------------

 ------------------------------------------------------
 Input file generated by CHIRIPA (05-May-2021 14:53:18)
 ------------------------------------------------------
 Symbolic Z-matrix:
 Charge =  0 Multiplicity = 1

                         Standard orientation:
 ---------------------------------------------------------------------
 Center     Atomic      Atomic             Coordinates (Angstroms)
 Number     Number       Type             X           Y           Z
 ---------------------------------------------------------------------
      1          6           0        3.563894    0.641192   -0.733194
      2          6           0        2.218541    0.992212   -0.096958
      3          6           0        1.387536    1.943628   -0.958371
      4          1           0        4.130112    1.565544   -0.911842
      5          1           0        3.388384    0.186845   -1.718161
      6          1           0        2.396489    1.444497    0.887109
      7          1           0        1.655539    0.066902    0.080372
      8          1           0        1.180803    1.496802   -1.936230
      9          1           0        1.925962    2.882225   -1.124909
     10          1           0        0.429936    2.181281   -0.484680
     11          6           0        4.406104   -0.309145    0.116083
     12          6           0        5.751456   -0.660165   -0.520153
     13          6           0        6.582461   -1.611581    0.341260
     14          1           0        4.581614    0.145202    1.101050
     15          1           0        3.839885   -1.233496    0.294731
     16          1           0        6.314459    0.265145   -0.697483
     17          1           0        5.573509   -1.112450   -1.504221
     18          1           0        6.044035   -2.550178    0.507798
     19          1           0        6.789195   -1.164755    1.319119
     20          1           0        7.540061   -1.849234   -0.132431
     21          6           0       -1.276951    1.112068    1.445972
     22          6           0       -2.216297    1.816518    0.685775
     23          6           0       -3.238039    1.138863    0.013930
     24          6           0       -3.290810   -0.249756    0.124573
     25          6           0       -2.369766   -0.979856    0.874186
     26          6           0       -1.356543   -0.281414    1.537591
     27          1           0       -0.486546    1.646561    1.964599
     28          1           0       -2.156938    2.898738    0.612832
     29          1           0       -3.978354    1.659306   -0.581463
     30          1           0       -2.454792   -2.058415    0.928031
     31          1           0       -0.628408   -0.831110    2.127249
     32          7           0       -4.367973   -0.978162   -0.582212
     33          8           0       -4.392636   -2.201751   -0.468804
     34          8           0       -5.167195   -0.311706   -1.236213
 ---------------------------------------------------------------------

 SCF Done:  E(RHF) =  -669.534474080     A.U. after   15 cycles
 E2 =    -0.2093277600D+01 EUMP2 =    -0.67162775168010D+03

 The electronic state is 1-A.
 Alpha  occ. eigenvalues --  -20.60792 -20.60787 -15.85848 -11.31226 -11.27819
 Alpha  occ. eigenvalues --  -11.27812 -11.27546 -11.26812 -11.26802 -11.22309
 Alpha  occ. eigenvalues --  -11.22014 -11.21941 -11.21875 -11.21576 -11.21436
 Alpha  occ. eigenvalues --   -1.59868  -1.39421  -1.19420  -1.08983  -1.08801
 Alpha  occ. eigenvalues --   -1.04824  -1.04052  -0.96494  -0.95630  -0.87505
 Alpha  occ. eigenvalues --   -0.86219  -0.82467  -0.80134  -0.78787  -0.77508
 Alpha  occ. eigenvalues --   -0.72067  -0.71192  -0.70537  -0.65594  -0.65073
 Alpha  occ. eigenvalues --   -0.64830  -0.62168  -0.61443  -0.59922  -0.58160
 Alpha  occ. eigenvalues --   -0.55758  -0.55299  -0.53555  -0.53027  -0.52910
 Alpha  occ. eigenvalues --   -0.52589  -0.50413  -0.48826  -0.48820  -0.48451
 Alpha  occ. eigenvalues --   -0.47167  -0.46323  -0.46242  -0.44825  -0.44322
 Alpha  occ. eigenvalues --   -0.37299  -0.36403
 Alpha virt. eigenvalues --    0.05014   0.11050   0.16455   0.20476   0.22563
 Alpha virt. eigenvalues --    0.24142   0.25777   0.26289   0.26897   0.27789
 Alpha virt. eigenvalues --    0.28821   0.30031   0.31192   0.31404   0.32168

 Mulliken charges:
               1
     1  C   -0.298399
     2  C   -0.302009
     3  C   -0.479669
     4  H    0.150850
     5  H    0.152707
     6  H    0.143675
     7  H    0.152462
     8  H    0.159808
     9  H    0.154202
    10  H    0.159457
    11  C   -0.298426
    12  C   -0.300059
    13  C   -0.475987
    14  H    0.147968
    15  H    0.148628
    16  H    0.152694
    17  H    0.153569
    18  H    0.155381
    19  H    0.154813
    20  H    0.161881
    21  C   -0.167721
    22  C   -0.219592
    23  C   -0.170626
    24  C    0.158187
    25  C   -0.171333
    26  C   -0.219481
    27  H    0.228955
    28  H    0.224384
    29  H    0.276055
    30  H    0.275842
    31  H    0.224382
    32  N    0.488121
    33  O   -0.460446
    34  O   -0.460270
 Sum of Mulliken charges =  -0.00000

 Dipole moment (field-independent basis, Debye):
    X=              3.8025    Y=              2.5238    Z=              2.4501  Tot=              5.1799
 Quadrupole moment (field-independent basis, Debye-Ang):
   XX=           -119.8236   YY=            -92.3855   ZZ=            -94.1762
   XY=            -10.5979   XZ=             -7.4181   YZ=             -1.3210

 Normal termination of Gaussian 16 at Wed May  5 15:47:47 2021.
