 Gaussian 16, Revision A.03,
 Gaussian 16:  EM64L-G16RevA.03 25-Dec-2016

 -------------
 #p 6-31g* mp2
 -------------

 ------------------------------------------------------
 Input file generated by CHIRIPA (05-May-2021 14:51:12)
 ------------------------------------------------------
 Symbolic Z-matrix:
 Charge =  0 Multiplicity = 1

                         Standard orientation:
 ---------------------------------------------------------------------
 Center     Atomic      Atomic             Coordinates (Angstroms)
 Number     Number       Type             X           Y           Z
 ---------------------------------------------------------------------
      1          6           0        3.923532   -0.558098    0.052485
      2          6           0        2.767831   -1.549380   -0.087878
      3          6           0        3.217657   -3.004579    0.045706
      4          1           0        4.683144   -0.779996   -0.709549
      5          1           0        4.407198   -0.705259    1.028090
      6          1           0        2.285620   -1.399458   -1.062358
      7          1           0        2.010794   -1.324976    0.674457
      8          1           0        3.679988   -3.176716    1.023060
      9          1           0        3.956375   -3.251621   -0.723622
     10          1           0        2.375726   -3.696162   -0.057859
     11          6           0        3.489674    0.900764   -0.078730
     12          6           0        4.645375    1.892046    0.061633
     13          6           0        4.195549    3.347246   -0.071951
     14          1           0        3.006008    1.047926   -1.054335
     15          1           0        2.730062    1.122662    0.683305
     16          1           0        5.402412    1.667642   -0.700701
     17          1           0        5.127587    1.742124    1.036113
     18          1           0        3.456831    3.594288    0.697377
     19          1           0        3.733218    3.519382   -1.049305
     20          1           0        5.037480    4.038828    0.031614
     21          6           0       -3.054538   -0.385790    0.348162
     22          6           0       -2.267235   -1.416589   -0.461524
     23          6           0       -0.965216   -1.835730    0.221749
     24          1           0       -2.424831    0.498919    0.514612
     25          1           0       -3.277524   -0.801895    1.340395
     26          1           0       -2.046997   -0.999189   -1.452426
     27          1           0       -2.898955   -2.298868   -0.626229
     28          1           0       -1.169581   -2.276551    1.202827
     29          1           0       -0.312783   -0.969487    0.371935
     30          1           0       -0.418370   -2.573049   -0.374221
     31          6           0       -4.358668    0.043123   -0.321917
     32          6           0       -5.145972    1.073923    0.487768
     33          6           0       -6.447990    1.493064   -0.195504
     34          1           0       -4.135682    0.459229   -1.314150
     35          1           0       -4.988375   -0.841585   -0.488368
     36          1           0       -4.514251    1.956202    0.652474
     37          1           0       -5.366209    0.656523    1.478671
     38          1           0       -7.100423    0.626821   -0.345690
     39          1           0       -6.243625    1.933885   -1.176581
     40          1           0       -6.994837    2.230383    0.400466
 ---------------------------------------------------------------------

 SCF Done:  E(RHF) =  -470.732581197     A.U. after   11 cycles
 E2 =    -0.1582979879D+01 EUMP2 =    -0.47231556107583D+03

 The electronic state is 1-A.
 Alpha  occ. eigenvalues --  -11.21597 -11.21595 -11.21565 -11.21470 -11.21392
 Alpha  occ. eigenvalues --  -11.21384 -11.21333 -11.21303 -11.21075 -11.21066
 Alpha  occ. eigenvalues --  -11.21013 -11.20991  -1.08423  -1.08387  -1.03548
 Alpha  occ. eigenvalues --   -1.03454  -0.96000  -0.95909  -0.87011  -0.86939
 Alpha  occ. eigenvalues --   -0.79716  -0.79436  -0.78274  -0.78154  -0.65063
 Alpha  occ. eigenvalues --   -0.65012  -0.60963  -0.60848  -0.59480  -0.59186
 Alpha  occ. eigenvalues --   -0.57615  -0.57515  -0.55273  -0.55217  -0.52726
 Alpha  occ. eigenvalues --   -0.52561  -0.52458  -0.52309  -0.49988  -0.49851
 Alpha  occ. eigenvalues --   -0.48025  -0.47751  -0.46700  -0.46500  -0.45867
 Alpha  occ. eigenvalues --   -0.45725  -0.45681  -0.45475  -0.43773  -0.43717
 Alpha virt. eigenvalues --    0.22055   0.23036   0.23495   0.24761   0.25663
 Alpha virt. eigenvalues --    0.26736   0.26762   0.27109   0.27782   0.29141
 Alpha virt. eigenvalues --    0.30533   0.30866   0.31594   0.31746   0.32486

 Mulliken charges:
               1
     1  C   -0.298176
     2  C   -0.302318
     3  C   -0.477045
     4  H    0.149128
     5  H    0.149160
     6  H    0.151360
     7  H    0.158772
     8  H    0.154943
     9  H    0.154645
    10  H    0.160826
    11  C   -0.298406
    12  C   -0.299477
    13  C   -0.475703
    14  H    0.149181
    15  H    0.148786
    16  H    0.152056
    17  H    0.152009
    18  H    0.155030
    19  H    0.155027
    20  H    0.160288
    21  C   -0.298516
    22  C   -0.300093
    23  C   -0.477968
    24  H    0.149643
    25  H    0.149342
    26  H    0.151722
    27  H    0.151462
    28  H    0.153937
    29  H    0.158410
    30  H    0.162028
    31  C   -0.298208
    32  C   -0.299632
    33  C   -0.475692
    34  H    0.149507
    35  H    0.149625
    36  H    0.151923
    37  H    0.151860
    38  H    0.155160
    39  H    0.155182
    40  H    0.160220
 Sum of Mulliken charges =  -0.00000

 Dipole moment (field-independent basis, Debye):
    X=             -0.0027    Y=             -0.0049    Z=              0.0092  Tot=              0.0107
 Quadrupole moment (field-independent basis, Debye-Ang):
   XX=            -85.6987   YY=            -85.6409   ZZ=            -83.6715
   XY=              0.9440   XZ=             -0.7485   YZ=             -0.1101

 Normal termination of Gaussian 16 at Thu May  6 05:31:53 2021.
