 Gaussian 16, Revision A.03,
 Gaussian 16:  EM64L-G16RevA.03 25-Dec-2016

 -------------
 #p 6-31g* mp2
 -------------

 ------------------------------------------------------
 Input file generated by CHIRIPA (05-May-2021 14:51:09)
 ------------------------------------------------------
 Symbolic Z-matrix:
 Charge =  0 Multiplicity = 1

                         Standard orientation:
 ---------------------------------------------------------------------
 Center     Atomic      Atomic             Coordinates (Angstroms)
 Number     Number       Type             X           Y           Z
 ---------------------------------------------------------------------
      1          6           0        3.190300   -0.561791   -0.257389
      2          6           0        3.347368    0.912289   -0.632095
      3          6           0        4.660470    1.200417   -1.360476
      4          1           0        4.036101   -0.864983    0.374782
      5          1           0        3.246690   -1.172666   -1.169006
      6          1           0        3.289314    1.520309    0.279802
      7          1           0        2.500995    1.212057   -1.263290
      8          1           0        4.723392    0.618712   -2.285820
      9          1           0        5.516190    0.928715   -0.733960
     10          1           0        4.752077    2.259977   -1.618935
     11          6           0        1.882518   -0.865588    0.471405
     12          6           0        1.725450   -2.339668    0.846111
     13          6           0        0.412348   -2.627796    1.574492
     14          1           0        1.826128   -0.254713    1.383022
     15          1           0        1.036717   -0.562396   -0.160767
     16          1           0        2.571823   -2.639437    1.477306
     17          1           0        1.783504   -2.947688   -0.065786
     18          1           0       -0.443372   -2.356094    0.947976
     19          1           0        0.349426   -2.046091    2.499836
     20          1           0        0.320742   -3.687356    1.832951
     21          6           0       -2.726818   -0.024993   -0.067958
     22          6           0       -3.438734   -0.534755   -1.321474
     23          6           0       -3.813267   -2.014222   -1.228205
     24          1           0       -1.821464   -0.623946    0.100966
     25          1           0       -3.375231   -0.185740    0.804462
     26          1           0       -2.789738   -0.371832   -2.191460
     27          1           0       -4.342396    0.065606   -1.487541
     28          1           0       -4.480578   -2.189836   -0.378231
     29          1           0       -2.919098   -2.629758   -1.086151
     30          1           0       -4.321080   -2.357725   -2.134843
     31          6           0       -2.346001    1.452372   -0.146058
     32          6           0       -1.634084    1.962135    1.107458
     33          6           0       -1.259552    3.441601    1.014190
     34          1           0       -1.697588    1.613119   -1.018477
     35          1           0       -3.251354    2.051325   -0.314981
     36          1           0       -0.730422    1.361774    1.273524
     37          1           0       -2.283080    1.799211    1.977444
     38          1           0       -2.153720    4.057138    0.872134
     39          1           0       -0.592240    3.617215    0.164216
     40          1           0       -0.751738    3.785105    1.920827
 ---------------------------------------------------------------------

 SCF Done:  E(RHF) =  -470.733176426     A.U. after   11 cycles
 E2 =    -0.1584023286D+01 EUMP2 =    -0.47231719971262D+03

 The electronic state is 1-A.
 Alpha  occ. eigenvalues --  -11.21665 -11.21661 -11.21604 -11.21522 -11.21492
 Alpha  occ. eigenvalues --  -11.21426 -11.21373 -11.21314 -11.21114 -11.21092
 Alpha  occ. eigenvalues --  -11.21086 -11.21022  -1.08512  -1.08400  -1.03588
 Alpha  occ. eigenvalues --   -1.03503  -0.96039  -0.95956  -0.87059  -0.86967
 Alpha  occ. eigenvalues --   -0.79662  -0.79562  -0.78405  -0.78139  -0.65229
 Alpha  occ. eigenvalues --   -0.64960  -0.61030  -0.60864  -0.59406  -0.59328
 Alpha  occ. eigenvalues --   -0.57679  -0.57537  -0.55340  -0.55242  -0.52723
 Alpha  occ. eigenvalues --   -0.52651  -0.52513  -0.52339  -0.50020  -0.49877
 Alpha  occ. eigenvalues --   -0.48040  -0.47872  -0.46814  -0.46559  -0.46181
 Alpha  occ. eigenvalues --   -0.45767  -0.45718  -0.45190  -0.43846  -0.43757
 Alpha virt. eigenvalues --    0.19986   0.22814   0.23607   0.24181   0.25724
 Alpha virt. eigenvalues --    0.26346   0.27052   0.27462   0.28325   0.29780
 Alpha virt. eigenvalues --    0.30490   0.31438   0.31767   0.31922   0.32330

 Mulliken charges:
               1
     1  C   -0.298269
     2  C   -0.299767
     3  C   -0.475744
     4  H    0.150150
     5  H    0.149701
     6  H    0.152357
     7  H    0.151366
     8  H    0.155257
     9  H    0.155379
    10  H    0.160525
    11  C   -0.302691
    12  C   -0.299735
    13  C   -0.482276
    14  H    0.150952
    15  H    0.151903
    16  H    0.152352
    17  H    0.151806
    18  H    0.161117
    19  H    0.155758
    20  H    0.160803
    21  C   -0.308607
    22  C   -0.299103
    23  C   -0.476603
    24  H    0.159179
    25  H    0.149776
    26  H    0.151150
    27  H    0.152163
    28  H    0.155642
    29  H    0.155146
    30  H    0.160382
    31  C   -0.297098
    32  C   -0.303672
    33  C   -0.475511
    34  H    0.148541
    35  H    0.149568
    36  H    0.156744
    37  H    0.151462
    38  H    0.154824
    39  H    0.155259
    40  H    0.159813
 Sum of Mulliken charges =  -0.00000

 Dipole moment (field-independent basis, Debye):
    X=              0.0341    Y=             -0.0222    Z=              0.0178  Tot=              0.0445
 Quadrupole moment (field-independent basis, Debye-Ang):
   XX=            -84.6162   YY=            -85.9984   ZZ=            -84.0988
   XY=             -0.7974   XZ=              0.4886   YZ=              0.3492

 Normal termination of Gaussian 16 at Wed May  5 21:20:38 2021.
