 Gaussian 16, Revision A.03,
 Gaussian 16:  EM64L-G16RevA.03 25-Dec-2016

 -------------
 #p 6-31g* mp2
 -------------

 ------------------------------------------------------
 Input file generated by CHIRIPA (05-May-2021 14:55:22)
 ------------------------------------------------------
 Symbolic Z-matrix:
 Charge =  0 Multiplicity = 1

                         Standard orientation:
 ---------------------------------------------------------------------
 Center     Atomic      Atomic             Coordinates (Angstroms)
 Number     Number       Type             X           Y           Z
 ---------------------------------------------------------------------
      1          6           0        5.609604   -1.067757   -0.695114
      2          6           0        5.232008   -1.171340    0.647724
      3          6           0        4.019230   -0.632793    1.087819
      4          6           0        3.204678    0.005522    0.153822
      5          6           0        3.553044    0.124846   -1.190683
      6          6           0        4.770396   -0.421134   -1.608421
      7          1           0        6.553497   -1.489000   -1.028306
      8          1           0        5.881753   -1.672966    1.359234
      9          1           0        3.702340   -0.698758    2.121573
     10          1           0        2.884322    0.630673   -1.876517
     11          1           0        5.061067   -0.339199   -2.651897
     12          7           0        1.918343    0.579592    0.607897
     13          8           0        1.218471    1.137069   -0.234740
     14          8           0        1.634341    0.461202    1.797840
     15          6           0       -3.817630    0.533160    0.213449
     16          6           0       -3.503893    1.809112   -0.568537
     17          6           0       -2.390047    2.636945    0.073206
     18          1           0       -4.102709    0.800680    1.240146
     19          1           0       -2.905625   -0.074854    0.290645
     20          1           0       -4.416553    2.413888   -0.645427
     21          1           0       -3.219713    1.538535   -1.593546
     22          1           0       -1.464745    2.055117    0.135587
     23          1           0       -2.668385    2.935444    1.089093
     24          1           0       -2.182011    3.544488   -0.502075
     25          6           0       -4.929075   -0.305085   -0.415650
     26          6           0       -5.242813   -1.581037    0.366335
     27          6           0       -6.356658   -2.408871   -0.275407
     28          1           0       -5.841080    0.302929   -0.492848
     29          1           0       -4.643996   -0.572605   -1.442348
     30          1           0       -5.526993   -1.310460    1.391345
     31          1           0       -4.330153   -2.185813    0.443226
     32          1           0       -6.078321   -2.707370   -1.291295
     33          1           0       -7.281961   -1.827042   -0.337788
     34          1           0       -6.564695   -3.316414    0.299873
 ---------------------------------------------------------------------

 SCF Done:  E(RHF) =  -669.536476971     A.U. after   15 cycles
 E2 =    -0.2090956607D+01 EUMP2 =    -0.67162743357846D+03

 The electronic state is 1-A.
 Alpha  occ. eigenvalues --  -20.61044 -20.61022 -15.86050 -11.31346 -11.27902
 Alpha  occ. eigenvalues --  -11.27899 -11.27635 -11.26902 -11.26893 -11.20895
 Alpha  occ. eigenvalues --  -11.20525 -11.20515 -11.20315 -11.20218 -11.19238
 Alpha  occ. eigenvalues --   -1.60085  -1.39642  -1.19509  -1.08919  -1.07426
 Alpha  occ. eigenvalues --   -1.04900  -1.02459  -0.95765  -0.94885  -0.86302
 Alpha  occ. eigenvalues --   -0.85897  -0.82599  -0.78567  -0.77656  -0.77189
 Alpha  occ. eigenvalues --   -0.72268  -0.71394  -0.70616  -0.65164  -0.64902
 Alpha  occ. eigenvalues --   -0.64064  -0.62246  -0.59853  -0.58337  -0.56496
 Alpha  occ. eigenvalues --   -0.55407  -0.54161  -0.53233  -0.52990  -0.51595
 Alpha  occ. eigenvalues --   -0.51309  -0.49228  -0.49022  -0.48608  -0.46835
 Alpha  occ. eigenvalues --   -0.45589  -0.45061  -0.44735  -0.44597  -0.42730
 Alpha  occ. eigenvalues --   -0.37487  -0.36499
 Alpha virt. eigenvalues --    0.04875   0.11157   0.16381   0.21295   0.23804
 Alpha virt. eigenvalues --    0.25457   0.27216   0.27635   0.28171   0.28473
 Alpha virt. eigenvalues --    0.29208   0.30864   0.32361   0.32540   0.32680

 Mulliken charges:
               1
     1  C   -0.170475
     2  C   -0.218610
     3  C   -0.170527
     4  C    0.157584
     5  C   -0.170806
     6  C   -0.218557
     7  H    0.226183
     8  H    0.224011
     9  H    0.276040
    10  H    0.275957
    11  H    0.224010
    12  N    0.489527
    13  O   -0.460221
    14  O   -0.458230
    15  C   -0.298248
    16  C   -0.298020
    17  C   -0.487818
    18  H    0.148269
    19  H    0.154786
    20  H    0.145273
    21  H    0.148340
    22  H    0.187801
    23  H    0.149192
    24  H    0.152633
    25  C   -0.297460
    26  C   -0.298860
    27  C   -0.475067
    28  H    0.147074
    29  H    0.147336
    30  H    0.151453
    31  H    0.151646
    32  H    0.153650
    33  H    0.154100
    34  H    0.158034
 Sum of Mulliken charges =  -0.00000

 Dipole moment (field-independent basis, Debye):
    X=              4.9654    Y=             -2.0711    Z=             -1.5422  Tot=              5.5967
 Quadrupole moment (field-independent basis, Debye-Ang):
   XX=            -67.5942   YY=            -95.8998   ZZ=            -90.8391
   XY=             -7.7604   XZ=             -4.3761   YZ=             -1.9052

 Normal termination of Gaussian 16 at Wed May  5 20:38:10 2021.
