 Gaussian 16, Revision A.03,
 Gaussian 16:  EM64L-G16RevA.03 25-Dec-2016

 -------------
 #p 6-31g* mp2
 -------------

 ------------------------------------------------------
 Input file generated by CHIRIPA (05-May-2021 14:57:27)
 ------------------------------------------------------
 Symbolic Z-matrix:
 Charge =  0 Multiplicity = 1

                         Standard orientation:
 ---------------------------------------------------------------------
 Center     Atomic      Atomic             Coordinates (Angstroms)
 Number     Number       Type             X           Y           Z
 ---------------------------------------------------------------------
      1          6           0       -6.445470    1.105706   -0.901048
      2          6           0       -5.315161    1.856017   -0.560525
      3          6           0       -4.168028    1.227527   -0.066931
      4          6           0       -4.185958   -0.159228    0.074060
      5          6           0       -5.296488   -0.934317   -0.256469
      6          6           0       -6.432549   -0.284615   -0.748202
      7          1           0       -7.332289    1.602171   -1.283761
      8          1           0       -5.322346    2.935901   -0.678182
      9          1           0       -3.279194    1.784096    0.204405
     10          1           0       -5.259306   -2.009294   -0.128176
     11          1           0       -7.308917   -0.869863   -1.011849
     12          7           0       -2.977400   -0.835810    0.595621
     13          8           0       -3.018541   -2.058814    0.710543
     14          8           0       -2.011877   -0.130301    0.879623
     15          6           0        2.087384   -0.075754    1.046783
     16          6           0        2.980197    0.925855    1.441984
     17          6           0        4.255880    1.003856    0.875332
     18          6           0        4.607282    0.059657   -0.088149
     19          6           0        3.740170   -0.950023   -0.502826
     20          6           0        2.469546   -1.008851    0.077348
     21          1           0        1.098368   -0.128900    1.492225
     22          1           0        2.686120    1.651855    2.194638
     23          1           0        4.966850    1.768901    1.162815
     24          1           0        4.061930   -1.659572   -1.255440
     25          1           0        1.778249   -1.787801   -0.231505
     26          7           0        5.955112    0.132084   -0.695196
     27          8           0        6.240541   -0.711714   -1.542057
     28          8           0        6.700591    1.031280   -0.312645
 ---------------------------------------------------------------------

 SCF Done:  E(RHF) =  -868.340625621     A.U. after   16 cycles
 E2 =    -0.2597931647D+01 EUMP2 =    -0.87093855726833D+03

 The electronic state is 1-A.
 Alpha  occ. eigenvalues --  -20.61861 -20.61838 -20.60067 -20.60061 -15.86876
 Alpha  occ. eigenvalues --  -15.85115 -11.31934 -11.30264 -11.28473 -11.28454
 Alpha  occ. eigenvalues --  -11.28143 -11.27409 -11.27396 -11.26857 -11.26812
 Alpha  occ. eigenvalues --  -11.26283 -11.25750 -11.25649  -1.60912  -1.59149
 Alpha  occ. eigenvalues --   -1.40473  -1.38708  -1.20075  -1.18403  -1.09527
 Alpha  occ. eigenvalues --   -1.07787  -1.05432  -1.03788  -0.96414  -0.94664
 Alpha  occ. eigenvalues --   -0.86844  -0.85164  -0.83260  -0.81522  -0.78339
 Alpha  occ. eigenvalues --   -0.76643  -0.73122  -0.72207  -0.71335  -0.71177
 Alpha  occ. eigenvalues --   -0.70472  -0.69366  -0.65732  -0.65430  -0.64030
 Alpha  occ. eigenvalues --   -0.63760  -0.62783  -0.61151  -0.55940  -0.54097
 Alpha  occ. eigenvalues --   -0.53777  -0.53518  -0.52121  -0.51854  -0.49880
 Alpha  occ. eigenvalues --   -0.49834  -0.48104  -0.48070  -0.45943  -0.44163
 Alpha  occ. eigenvalues --   -0.38034  -0.37021  -0.36301  -0.35422
 Alpha virt. eigenvalues --    0.04177   0.05903   0.10639   0.12255   0.15738
 Alpha virt. eigenvalues --    0.17474   0.20806   0.22609   0.26744   0.27649
 Alpha virt. eigenvalues --    0.28319   0.29564   0.30430   0.31798   0.32336

 Mulliken charges:
               1
     1  C   -0.169630
     2  C   -0.218422
     3  C   -0.170353
     4  C    0.157513
     5  C   -0.170223
     6  C   -0.218517
     7  H    0.228235
     8  H    0.225574
     9  H    0.274504
    10  H    0.276474
    11  H    0.225793
    12  N    0.491415
    13  O   -0.457937
    14  O   -0.471935
    15  C   -0.176531
    16  C   -0.221123
    17  C   -0.172165
    18  C    0.156767
    19  C   -0.172507
    20  C   -0.221707
    21  H    0.249245
    22  H    0.220588
    23  H    0.271824
    24  H    0.272571
    25  H    0.228588
    26  N    0.488318
    27  O   -0.462864
    28  O   -0.463493
 Sum of Mulliken charges =  -0.00000

 Dipole moment (field-independent basis, Debye):
    X=             -9.6630    Y=              2.0707    Z=              0.3114  Tot=              9.8873
 Quadrupole moment (field-independent basis, Debye-Ang):
   XX=           -113.1468   YY=            -98.8046   ZZ=           -105.2829
   XY=             -7.8814   XZ=             19.1236   YZ=              3.4808

 Normal termination of Gaussian 16 at Wed May  5 18:03:44 2021.
