 Gaussian 16, Revision A.03,
 Gaussian 16:  EM64L-G16RevA.03 25-Dec-2016

 -------------
 #p 6-31g* mp2
 -------------

 ------------------------------------------------------
 Input file generated by CHIRIPA (05-May-2021 14:51:12)
 ------------------------------------------------------
 Symbolic Z-matrix:
 Charge =  0 Multiplicity = 1

                         Standard orientation:
 ---------------------------------------------------------------------
 Center     Atomic      Atomic             Coordinates (Angstroms)
 Number     Number       Type             X           Y           Z
 ---------------------------------------------------------------------
      1          6           0        1.748200    1.312847    0.108536
      2          6           0        1.916098    2.832526    0.127792
      3          6           0        0.601003    3.569378    0.383464
      4          1           0        1.017389    1.040845   -0.665335
      5          1           0        1.323988    0.985619    1.067890
      6          1           0        2.341157    3.156640   -0.830796
      7          1           0        2.646737    3.100928    0.901577
      8          1           0        0.175485    3.274581    1.348156
      9          1           0       -0.131831    3.330610   -0.394061
     10          1           0        0.744069    4.654412    0.393123
     11          6           0        3.054164    0.562238   -0.145968
     12          6           0        2.886265   -0.957441   -0.165224
     13          6           0        4.201360   -1.694293   -0.420896
     14          1           0        3.478376    0.889466   -1.105322
     15          1           0        3.784974    0.834240    0.627903
     16          1           0        2.155626   -1.225843   -0.939010
     17          1           0        2.461207   -1.281556    0.793364
     18          1           0        4.934195   -1.455526    0.356628
     19          1           0        4.626878   -1.399496   -1.385588
     20          1           0        4.058295   -2.779327   -0.430555
     21          6           0       -2.161454   -1.633969    0.221083
     22          6           0       -0.651750   -1.823331    0.069687
     23          6           0       -0.187420   -3.221591    0.478418
     24          1           0       -2.445798   -1.825809    1.264774
     25          1           0       -2.681250   -2.386547   -0.387878
     26          1           0       -0.134955   -1.069740    0.677666
     27          1           0       -0.370940   -1.630831   -0.973724
     28          1           0       -0.676480   -3.984738   -0.135606
     29          1           0       -0.439156   -3.420459    1.525167
     30          1           0        0.894937   -3.335102    0.362317
     31          6           0       -2.640910   -0.241116   -0.183651
     32          6           0       -4.150613   -0.051753   -0.032254
     33          6           0       -4.614944    1.346506   -0.440986
     34          1           0       -2.121114    0.511462    0.425310
     35          1           0       -2.356565   -0.049275   -1.227342
     36          1           0       -4.431425   -0.244254    1.011156
     37          1           0       -4.667408   -0.805344   -0.640233
     38          1           0       -4.363208    1.545374   -1.487734
     39          1           0       -4.125884    2.109654    0.173039
     40          1           0       -5.697301    1.460017   -0.324885
 ---------------------------------------------------------------------

 SCF Done:  E(RHF) =  -470.731517355     A.U. after   11 cycles
 E2 =    -0.1585620543D+01 EUMP2 =    -0.47231713789851D+03

 The electronic state is 1-A.
 Alpha  occ. eigenvalues --  -11.21597 -11.21566 -11.21528 -11.21437 -11.21388
 Alpha  occ. eigenvalues --  -11.21343 -11.21329 -11.21274 -11.21082 -11.21062
 Alpha  occ. eigenvalues --  -11.21041 -11.20962  -1.08481  -1.08317  -1.03581
 Alpha  occ. eigenvalues --   -1.03412  -0.95991  -0.95910  -0.87000  -0.86929
 Alpha  occ. eigenvalues --   -0.79706  -0.79503  -0.78547  -0.77839  -0.65154
 Alpha  occ. eigenvalues --   -0.64917  -0.61005  -0.60790  -0.59631  -0.59080
 Alpha  occ. eigenvalues --   -0.57726  -0.57378  -0.55270  -0.55207  -0.52710
 Alpha  occ. eigenvalues --   -0.52585  -0.52438  -0.52298  -0.49921  -0.49865
 Alpha  occ. eigenvalues --   -0.47939  -0.47862  -0.46797  -0.46530  -0.46266
 Alpha  occ. eigenvalues --   -0.45911  -0.45348  -0.44995  -0.43770  -0.43709
 Alpha virt. eigenvalues --    0.21383   0.22387   0.23542   0.24415   0.24897
 Alpha virt. eigenvalues --    0.26122   0.26386   0.27639   0.28305   0.30150
 Alpha virt. eigenvalues --    0.30396   0.30841   0.31439   0.31664   0.32553

 Mulliken charges:
               1
     1  C   -0.301572
     2  C   -0.299237
     3  C   -0.476289
     4  H    0.153816
     5  H    0.148795
     6  H    0.151918
     7  H    0.151694
     8  H    0.154259
     9  H    0.156381
    10  H    0.160370
    11  C   -0.297791
    12  C   -0.304296
    13  C   -0.476434
    14  H    0.149113
    15  H    0.149079
    16  H    0.157440
    17  H    0.153680
    18  H    0.155029
    19  H    0.155082
    20  H    0.159957
    21  C   -0.297861
    22  C   -0.303870
    23  C   -0.480053
    24  H    0.148888
    25  H    0.148758
    26  H    0.160935
    27  H    0.149897
    28  H    0.154380
    29  H    0.154103
    30  H    0.164761
    31  C   -0.299550
    32  C   -0.299486
    33  C   -0.475807
    34  H    0.151302
    35  H    0.148416
    36  H    0.151837
    37  H    0.151807
    38  H    0.154768
    39  H    0.155658
    40  H    0.160122
 Sum of Mulliken charges =  -0.00000

 Dipole moment (field-independent basis, Debye):
    X=              0.0275    Y=              0.0246    Z=             -0.0044  Tot=              0.0372
 Quadrupole moment (field-independent basis, Debye-Ang):
   XX=            -85.9841   YY=            -86.2506   ZZ=            -82.9206
   XY=              1.0311   XZ=              0.3109   YZ=              0.4007

 Normal termination of Gaussian 16 at Wed May  5 15:17:52 2021.
