 Gaussian 16, Revision A.03,
 Gaussian 16:  EM64L-G16RevA.03 25-Dec-2016

 -------------
 #p 6-31g* mp2
 -------------

 ------------------------------------------------------
 Input file generated by CHIRIPA (05-May-2021 14:51:14)
 ------------------------------------------------------
 Symbolic Z-matrix:
 Charge =  0 Multiplicity = 1

                         Standard orientation:
 ---------------------------------------------------------------------
 Center     Atomic      Atomic             Coordinates (Angstroms)
 Number     Number       Type             X           Y           Z
 ---------------------------------------------------------------------
      1          6           0        4.937212   -0.352137   -0.443893
      2          6           0        5.564085   -1.019893    0.780492
      3          6           0        6.866734   -1.750546    0.453312
      4          1           0        4.748893   -1.113817   -1.212869
      5          1           0        5.657658    0.356386   -0.875571
      6          1           0        4.842158   -1.725932    1.210547
      7          1           0        5.750757   -0.256566    1.546717
      8          1           0        7.606679   -1.054620    0.044938
      9          1           0        6.692917   -2.532335   -0.293142
     10          1           0        7.297731   -2.220560    1.342799
     11          6           0        3.634331    0.382343   -0.132816
     12          6           0        3.007458    1.050099   -1.357200
     13          6           0        1.704810    1.780752   -1.030020
     14          1           0        2.913885   -0.326181    0.298863
     15          1           0        3.822651    1.144022    0.636161
     16          1           0        2.820786    0.286771   -2.123425
     17          1           0        3.729385    1.756138   -1.787255
     18          1           0        1.878626    2.562541   -0.283566
     19          1           0        0.964865    1.084826   -0.621646
     20          1           0        1.273812    2.250766   -1.919508
     21          6           0       -4.816696   -0.557632    0.373286
     22          6           0       -5.741319   -0.695899   -0.836648
     23          6           0       -6.798114   -1.785278   -0.651627
     24          1           0       -4.323256   -1.520949    0.561651
     25          1           0       -5.420673   -0.336342    1.264149
     26          1           0       -5.135648   -0.915494   -1.725219
     27          1           0       -6.232471    0.267911   -1.022272
     28          1           0       -7.426832   -1.568359    0.218006
     29          1           0       -6.323778   -2.758488   -0.488935
     30          1           0       -7.448181   -1.867025   -1.528320
     31          6           0       -3.754847    0.527426    0.203422
     32          6           0       -2.830224    0.665694    1.413356
     33          6           0       -1.773429    1.755072    1.228335
     34          1           0       -3.150870    0.306136   -0.687441
     35          1           0       -4.248287    1.490744    0.015057
     36          1           0       -2.339074   -0.298116    1.598980
     37          1           0       -3.435895    0.885289    2.301927
     38          1           0       -2.247765    2.728282    1.065643
     39          1           0       -1.144711    1.538153    0.358703
     40          1           0       -1.123362    1.836819    2.105028
 ---------------------------------------------------------------------

 SCF Done:  E(RHF) =  -470.733132549     A.U. after   11 cycles
 E2 =    -0.1582260813D+01 EUMP2 =    -0.47231539336204D+03

 The electronic state is 1-A.
 Alpha  occ. eigenvalues --  -11.21604 -11.21599 -11.21589 -11.21556 -11.21406
 Alpha  occ. eigenvalues --  -11.21382 -11.21346 -11.21322 -11.21074 -11.21063
 Alpha  occ. eigenvalues --  -11.21054 -11.20954  -1.08432  -1.08402  -1.03539
 Alpha  occ. eigenvalues --   -1.03486  -0.96008  -0.95916  -0.87051  -0.86907
 Alpha  occ. eigenvalues --   -0.79648  -0.79506  -0.78251  -0.78207  -0.65078
 Alpha  occ. eigenvalues --   -0.65022  -0.61011  -0.60829  -0.59350  -0.59306
 Alpha  occ. eigenvalues --   -0.57638  -0.57519  -0.55425  -0.55102  -0.52710
 Alpha  occ. eigenvalues --   -0.52642  -0.52498  -0.52239  -0.50089  -0.49720
 Alpha  occ. eigenvalues --   -0.48001  -0.47773  -0.46715  -0.46479  -0.45817
 Alpha  occ. eigenvalues --   -0.45738  -0.45719  -0.45614  -0.43785  -0.43750
 Alpha virt. eigenvalues --    0.22311   0.22999   0.23654   0.24736   0.26107
 Alpha virt. eigenvalues --    0.26756   0.27001   0.27576   0.27690   0.28992
 Alpha virt. eigenvalues --    0.30404   0.31503   0.31782   0.31922   0.32094

 Mulliken charges:
               1
     1  C   -0.298279
     2  C   -0.299642
     3  C   -0.475704
     4  H    0.149549
     5  H    0.149573
     6  H    0.151871
     7  H    0.151994
     8  H    0.155207
     9  H    0.155143
    10  H    0.160259
    11  C   -0.298276
    12  C   -0.299891
    13  C   -0.478422
    14  H    0.149429
    15  H    0.149828
    16  H    0.151606
    17  H    0.151938
    18  H    0.156340
    19  H    0.157730
    20  H    0.160140
    21  C   -0.298229
    22  C   -0.299628
    23  C   -0.475683
    24  H    0.149424
    25  H    0.149532
    26  H    0.151849
    27  H    0.151966
    28  H    0.155182
    29  H    0.155093
    30  H    0.160204
    31  C   -0.298218
    32  C   -0.299525
    33  C   -0.481863
    34  H    0.149253
    35  H    0.149734
    36  H    0.151135
    37  H    0.151693
    38  H    0.154859
    39  H    0.163041
    40  H    0.159789
 Sum of Mulliken charges =  -0.00000

 Dipole moment (field-independent basis, Debye):
    X=              0.0202    Y=              0.0172    Z=             -0.0076  Tot=              0.0275
 Quadrupole moment (field-independent basis, Debye-Ang):
   XX=            -85.7732   YY=            -84.4391   ZZ=            -84.6502
   XY=             -0.0484   XZ=             -0.0506   YZ=              0.3955

 Normal termination of Gaussian 16 at Wed May  5 16:54:42 2021.
