 Gaussian 16, Revision A.03,
 Gaussian 16:  EM64L-G16RevA.03 25-Dec-2016

 -------------
 #p 6-31g* mp2
 -------------

 ------------------------------------------------------
 Input file generated by CHIRIPA (05-May-2021 14:53:15)
 ------------------------------------------------------
 Symbolic Z-matrix:
 Charge =  0 Multiplicity = 1

                         Standard orientation:
 ---------------------------------------------------------------------
 Center     Atomic      Atomic             Coordinates (Angstroms)
 Number     Number       Type             X           Y           Z
 ---------------------------------------------------------------------
      1          6           0        3.907301   -0.711242   -0.291686
      2          6           0        2.785955   -1.546835    0.326659
      3          6           0        2.841281   -3.015310   -0.095613
      4          1           0        3.847674   -0.781952   -1.386396
      5          1           0        4.876782   -1.140442   -0.003087
      6          1           0        1.818898   -1.115372    0.038115
      7          1           0        2.848142   -1.473972    1.420021
      8          1           0        3.791478   -3.467490    0.206480
      9          1           0        2.756386   -3.106852   -1.183277
     10          1           0        2.030705   -3.594259    0.357869
     11          6           0        3.865391    0.759003    0.121053
     12          6           0        4.986738    1.594596   -0.497292
     13          6           0        4.931412    3.063072   -0.075021
     14          1           0        2.895911    1.188203   -0.167547
     15          1           0        3.925019    0.829714    1.215762
     16          1           0        4.924551    1.521734   -1.590654
     17          1           0        5.953794    1.163133   -0.208748
     18          1           0        5.016306    3.154613    1.012644
     19          1           0        3.981215    3.515251   -0.377114
     20          1           0        5.741987    3.642020   -0.528502
     21          6           0       -1.070719   -1.540908    0.497383
     22          6           0       -1.796229   -1.654301   -0.693120
     23          6           0       -2.887063   -0.816153   -0.942393
     24          6           0       -3.226224    0.128509    0.025013
     25          6           0       -2.523078    0.265914    1.220836
     26          6           0       -1.435815   -0.582852    1.448884
     27          1           0       -0.224720   -2.196125    0.682781
     28          1           0       -1.514965   -2.397427   -1.433862
     29          1           0       -3.466109   -0.882383   -1.855485
     30          1           0       -2.827423    1.016321    1.940336
     31          1           0       -0.874196   -0.492529    2.374341
     32          7           0       -4.379151    1.021439   -0.227648
     33          8           0       -4.657717    1.845563    0.640602
     34          8           0       -4.982417    0.880285   -1.289147
 ---------------------------------------------------------------------

 SCF Done:  E(RHF) =  -669.535137378     A.U. after   15 cycles
 E2 =    -0.2092008346D+01 EUMP2 =    -0.67162714572405D+03

 The electronic state is 1-A.
 Alpha  occ. eigenvalues --  -20.60756 -20.60751 -15.85810 -11.31175 -11.27745
 Alpha  occ. eigenvalues --  -11.27740 -11.27428 -11.26753 -11.26740 -11.22617
 Alpha  occ. eigenvalues --  -11.22244 -11.22147 -11.22064 -11.21960 -11.21428
 Alpha  occ. eigenvalues --   -1.59832  -1.39385  -1.19349  -1.09163  -1.08738
 Alpha  occ. eigenvalues --   -1.04748  -1.04289  -0.96729  -0.95574  -0.87736
 Alpha  occ. eigenvalues --   -0.86142  -0.82414  -0.80380  -0.78932  -0.77455
 Alpha  occ. eigenvalues --   -0.72027  -0.71156  -0.70480  -0.65781  -0.64994
 Alpha  occ. eigenvalues --   -0.64748  -0.62094  -0.61676  -0.60180  -0.58363
 Alpha  occ. eigenvalues --   -0.56006  -0.55157  -0.53436  -0.53167  -0.53065
 Alpha  occ. eigenvalues --   -0.52835  -0.50644  -0.48788  -0.48783  -0.48676
 Alpha  occ. eigenvalues --   -0.47384  -0.46473  -0.46358  -0.44791  -0.44521
 Alpha  occ. eigenvalues --   -0.37284  -0.36359
 Alpha virt. eigenvalues --    0.05040   0.11292   0.16436   0.19883   0.22486
 Alpha virt. eigenvalues --    0.23850   0.25916   0.26011   0.26652   0.27543
 Alpha virt. eigenvalues --    0.29209   0.30186   0.30749   0.31458   0.32383

 Mulliken charges:
               1
     1  C   -0.297602
     2  C   -0.309236
     3  C   -0.479251
     4  H    0.151631
     5  H    0.151585
     6  H    0.153553
     7  H    0.150735
     8  H    0.162141
     9  H    0.158182
    10  H    0.152047
    11  C   -0.299499
    12  C   -0.300245
    13  C   -0.476275
    14  H    0.151686
    15  H    0.149043
    16  H    0.153110
    17  H    0.152515
    18  H    0.155243
    19  H    0.156723
    20  H    0.161996
    21  C   -0.173679
    22  C   -0.222274
    23  C   -0.170733
    24  C    0.158396
    25  C   -0.170742
    26  C   -0.221349
    27  H    0.236144
    28  H    0.223807
    29  H    0.275490
    30  H    0.275551
    31  H    0.224248
    32  N    0.488024
    33  O   -0.460447
    34  O   -0.460518
 Sum of Mulliken charges =  -0.00000

 Dipole moment (field-independent basis, Debye):
    X=              4.2304    Y=             -3.0860    Z=              0.8512  Tot=              5.3051
 Quadrupole moment (field-independent basis, Debye-Ang):
   XX=           -120.6707   YY=            -96.3187   ZZ=            -90.3568
   XY=             10.9383   XZ=             -1.7077   YZ=              1.9683

 Normal termination of Gaussian 16 at Wed May  5 18:40:56 2021.
