 Gaussian 16, Revision A.03,
 Gaussian 16:  EM64L-G16RevA.03 25-Dec-2016

 -------------
 #p 6-31g* mp2
 -------------

 ------------------------------------------------------
 Input file generated by CHIRIPA (05-May-2021 14:57:22)
 ------------------------------------------------------
 Symbolic Z-matrix:
 Charge =  0 Multiplicity = 1

                         Standard orientation:
 ---------------------------------------------------------------------
 Center     Atomic      Atomic             Coordinates (Angstroms)
 Number     Number       Type             X           Y           Z
 ---------------------------------------------------------------------
      1          6           0        0.753576   -1.734615   -0.512012
      2          6           0        0.975048   -0.595823   -1.293436
      3          6           0        2.121050    0.182520   -1.105259
      4          6           0        3.028751   -0.208840   -0.122302
      5          6           0        2.836278   -1.337997    0.672209
      6          6           0        1.683259   -2.101421    0.466591
      7          1           0       -0.139392   -2.333456   -0.664966
      8          1           0        0.254761   -0.308561   -2.054168
      9          1           0        2.317375    1.068942   -1.696131
     10          1           0        3.572388   -1.599111    1.422795
     11          1           0        1.513867   -2.985317    1.074932
     12          7           0        4.245687    0.607260    0.086144
     13          8           0        5.030099    0.241160    0.958673
     14          8           0        4.392066    1.597566   -0.626951
     15          6           0       -2.278915    2.793990    0.398629
     16          6           0       -2.644474    2.278445   -0.849209
     17          6           0       -2.950928    0.922205   -0.994982
     18          6           0       -2.881287    0.106423    0.133263
     19          6           0       -2.520365    0.590230    1.389829
     20          6           0       -2.218135    1.949726    1.512202
     21          1           0       -2.042494    3.848814    0.502781
     22          1           0       -2.692516    2.931764   -1.715761
     23          1           0       -3.236837    0.496754   -1.949270
     24          1           0       -2.481327   -0.085764    2.235361
     25          1           0       -1.934542    2.347345    2.482521
     26          7           0       -3.203481   -1.331090   -0.008674
     27          8           0       -3.134652   -2.028915    1.000752
     28          8           0       -3.518745   -1.732769   -1.126663
 ---------------------------------------------------------------------

 SCF Done:  E(RHF) =  -868.339303164     A.U. after   16 cycles
 E2 =    -0.2600332208D+01 EUMP2 =    -0.87093963537223D+03

 The electronic state is 1-A.
 Alpha  occ. eigenvalues --  -20.61786 -20.61777 -20.60782 -20.60771 -15.86816
 Alpha  occ. eigenvalues --  -15.85828 -11.31954 -11.31089 -11.28521 -11.28453
 Alpha  occ. eigenvalues --  -11.28135 -11.27661 -11.27619 -11.27456 -11.27387
 Alpha  occ. eigenvalues --  -11.27241 -11.26616 -11.26555  -1.60878  -1.59858
 Alpha  occ. eigenvalues --   -1.40427  -1.39414  -1.20095  -1.19235  -1.09526
 Alpha  occ. eigenvalues --   -1.08628  -1.05458  -1.04624  -0.96399  -0.95486
 Alpha  occ. eigenvalues --   -0.86863  -0.86011  -0.83233  -0.82327  -0.78323
 Alpha  occ. eigenvalues --   -0.77410  -0.73023  -0.72261  -0.72045  -0.71183
 Alpha  occ. eigenvalues --   -0.71175  -0.70244  -0.65740  -0.65442  -0.64874
 Alpha  occ. eigenvalues --   -0.64606  -0.62808  -0.61979  -0.55932  -0.55037
 Alpha  occ. eigenvalues --   -0.53844  -0.53536  -0.52918  -0.52691  -0.49803
 Alpha  occ. eigenvalues --   -0.49769  -0.48810  -0.48793  -0.45878  -0.44844
 Alpha  occ. eigenvalues --   -0.38103  -0.37125  -0.37048  -0.36224
 Alpha virt. eigenvalues --    0.04146   0.05125   0.10541   0.11433   0.15729
 Alpha virt. eigenvalues --    0.16647   0.20741   0.21636   0.26580   0.27301
 Alpha virt. eigenvalues --    0.27830   0.28424   0.30542   0.30958   0.31919

 Mulliken charges:
               1
     1  C   -0.178285
     2  C   -0.217268
     3  C   -0.172370
     4  C    0.157608
     5  C   -0.172455
     6  C   -0.219314
     7  H    0.238947
     8  H    0.221734
     9  H    0.272345
    10  H    0.274798
    11  H    0.227480
    12  N    0.488029
    13  O   -0.460704
    14  O   -0.462677
    15  C   -0.169089
    16  C   -0.219380
    17  C   -0.177226
    18  C    0.157648
    19  C   -0.168721
    20  C   -0.217003
    21  H    0.230059
    22  H    0.225514
    23  H    0.274236
    24  H    0.276371
    25  H    0.227569
    26  N    0.484715
    27  O   -0.459994
    28  O   -0.462568
 Sum of Mulliken charges =  -0.00000

 Dipole moment (field-independent basis, Debye):
    X=             -3.3124    Y=              2.2604    Z=             -0.0794  Tot=              4.0109
 Quadrupole moment (field-independent basis, Debye-Ang):
   XX=           -138.7743   YY=           -100.8610   ZZ=            -97.4323
   XY=            -24.1121   XZ=             -0.9705   YZ=             -2.0033

 Normal termination of Gaussian 16 at Thu May  6 14:32:21 2021.
