 Gaussian 16, Revision A.03,
 Gaussian 16:  EM64L-G16RevA.03 25-Dec-2016

 -------------
 #p 6-31g* mp2
 -------------

 ------------------------------------------------------
 Input file generated by CHIRIPA (05-May-2021 14:53:16)
 ------------------------------------------------------
 Symbolic Z-matrix:
 Charge =  0 Multiplicity = 1

                         Standard orientation:
 ---------------------------------------------------------------------
 Center     Atomic      Atomic             Coordinates (Angstroms)
 Number     Number       Type             X           Y           Z
 ---------------------------------------------------------------------
      1          6           0        4.566578   -0.163196    0.374634
      2          6           0        6.020342   -0.340820   -0.064688
      3          6           0        6.666436   -1.595713    0.523189
      4          1           0        4.524416   -0.119513    1.471566
      5          1           0        3.989376   -1.048777    0.074668
      6          1           0        6.594334    0.545442    0.234795
      7          1           0        6.059070   -0.383892   -1.160708
      8          1           0        6.118928   -2.491897    0.213850
      9          1           0        6.657234   -1.557282    1.617282
     10          1           0        7.705384   -1.703128    0.196220
     11          6           0        3.907003    1.086935   -0.204901
     12          6           0        2.453239    1.264559    0.234422
     13          6           0        1.807145    2.519452   -0.353455
     14          1           0        4.484205    1.972516    0.095066
     15          1           0        3.949166    1.043253   -1.301832
     16          1           0        2.414511    1.307632    1.330442
     17          1           0        1.879247    0.378297   -0.065061
     18          1           0        1.816348    2.481021   -1.447548
     19          1           0        2.354653    3.415636   -0.044116
     20          1           0        0.768197    2.626867   -0.026486
     21          6           0       -1.200370   -1.599055   -0.684550
     22          6           0       -2.347619   -2.310359   -0.317957
     23          6           0       -3.522097   -1.634733    0.026538
     24          6           0       -3.513943   -0.241129   -0.006533
     25          6           0       -2.387046    0.495840   -0.367463
     26          6           0       -1.223705   -0.200691   -0.708091
     27          1           0       -0.292333   -2.132018   -0.950660
     28          1           0       -2.332401   -3.396382   -0.298786
     29          1           0       -4.424495   -2.160446    0.314150
     30          1           0       -2.432821    1.578074   -0.377202
     31          1           0       -0.334230    0.354333   -0.992393
     32          7           0       -4.751416    0.485192    0.356123
     33          8           0       -4.718395    1.713270    0.319076
     34          8           0       -5.730937   -0.187348    0.670551
 ---------------------------------------------------------------------

 SCF Done:  E(RHF) =  -669.535247066     A.U. after   15 cycles
 E2 =    -0.2091721380D+01 EUMP2 =    -0.67162696844625D+03

 The electronic state is 1-A.
 Alpha  occ. eigenvalues --  -20.60734 -20.60729 -15.85787 -11.31151 -11.27717
 Alpha  occ. eigenvalues --  -11.27704 -11.27457 -11.26738 -11.26669 -11.22615
 Alpha  occ. eigenvalues --  -11.22211 -11.22194 -11.22101 -11.22092 -11.21598
 Alpha  occ. eigenvalues --   -1.59810  -1.39363  -1.19318  -1.09228  -1.08715
 Alpha  occ. eigenvalues --   -1.04726  -1.04327  -0.96773  -0.95552  -0.87783
 Alpha  occ. eigenvalues --   -0.86122  -0.82383  -0.80398  -0.79015  -0.77432
 Alpha  occ. eigenvalues --   -0.72006  -0.71132  -0.70434  -0.65921  -0.64970
 Alpha  occ. eigenvalues --   -0.64734  -0.62226  -0.61600  -0.60119  -0.58362
 Alpha  occ. eigenvalues --   -0.56061  -0.55214  -0.53476  -0.53197  -0.53043
 Alpha  occ. eigenvalues --   -0.52760  -0.50711  -0.48781  -0.48761  -0.48689
 Alpha  occ. eigenvalues --   -0.47433  -0.46551  -0.46469  -0.44769  -0.44574
 Alpha  occ. eigenvalues --   -0.37298  -0.36313
 Alpha virt. eigenvalues --    0.05095   0.11264   0.16562   0.19486   0.22577
 Alpha virt. eigenvalues --    0.23682   0.25282   0.26062   0.26528   0.27836
 Alpha virt. eigenvalues --    0.28922   0.30510   0.30916   0.31576   0.31665

 Mulliken charges:
               1
     1  C   -0.297916
     2  C   -0.300244
     3  C   -0.475962
     4  H    0.152043
     5  H    0.145640
     6  H    0.153929
     7  H    0.152187
     8  H    0.154224
     9  H    0.156435
    10  H    0.162223
    11  C   -0.298542
    12  C   -0.302516
    13  C   -0.481894
    14  H    0.153376
    15  H    0.149492
    16  H    0.158352
    17  H    0.142203
    18  H    0.154621
    19  H    0.163797
    20  H    0.158052
    21  C   -0.172767
    22  C   -0.218328
    23  C   -0.171265
    24  C    0.158921
    25  C   -0.173825
    26  C   -0.223444
    27  H    0.224946
    28  H    0.223197
    29  H    0.275457
    30  H    0.275537
    31  H    0.235035
    32  N    0.488063
    33  O   -0.460455
    34  O   -0.460573
 Sum of Mulliken charges =  -0.00000

 Dipole moment (field-independent basis, Debye):
    X=              4.5795    Y=             -2.4837    Z=             -1.2180  Tot=              5.3502
 Quadrupole moment (field-independent basis, Debye-Ang):
   XX=           -124.3232   YY=            -90.0448   ZZ=            -94.9152
   XY=             11.2954   XZ=              4.2737   YZ=              0.3406

 Normal termination of Gaussian 16 at Thu May  6 18:52:41 2021.
