 Gaussian 16, Revision A.03,
 Gaussian 16:  EM64L-G16RevA.03 25-Dec-2016

 -------------
 #p 6-31g* mp2
 -------------

 ------------------------------------------------------
 Input file generated by CHIRIPA (05-May-2021 14:55:18)
 ------------------------------------------------------
 Symbolic Z-matrix:
 Charge =  0 Multiplicity = 1

                         Standard orientation:
 ---------------------------------------------------------------------
 Center     Atomic      Atomic             Coordinates (Angstroms)
 Number     Number       Type             X           Y           Z
 ---------------------------------------------------------------------
      1          6           0       -1.029044    0.188589    0.465221
      2          6           0       -1.956657    1.151488    0.876172
      3          6           0       -3.325658    0.948557    0.678172
      4          6           0       -3.733875   -0.234046    0.063273
      5          6           0       -2.834154   -1.212281   -0.357261
      6          6           0       -1.469976   -0.988147   -0.149101
      7          1           0        0.032555    0.354466    0.622978
      8          1           0       -1.617100    2.066299    1.353525
      9          1           0       -4.065388    1.677346    0.986529
     10          1           0       -3.202945   -2.114279   -0.830348
     11          1           0       -0.751844   -1.737693   -0.469278
     12          7           0       -5.180622   -0.460103   -0.151718
     13          8           0       -5.514677   -1.510362   -0.695777
     14          8           0       -5.953132    0.417253    0.227901
     15          6           0        3.743090    0.466431   -0.180645
     16          6           0        3.569110    1.951680   -0.499630
     17          6           0        2.101015    2.365648   -0.605074
     18          1           0        3.247534   -0.129752   -0.959063
     19          1           0        3.228194    0.238432    0.762909
     20          1           0        4.085353    2.177097   -1.441594
     21          1           0        4.065303    2.544394    0.279537
     22          1           0        1.576799    2.169078    0.335755
     23          1           0        1.596962    1.799694   -1.395156
     24          1           0        1.999771    3.431184   -0.833643
     25          6           0        5.205219    0.037349   -0.072044
     26          6           0        5.379199   -1.447900    0.246941
     27          6           0        6.847294   -1.861868    0.352385
     28          1           0        5.720115    0.265348   -1.015598
     29          1           0        5.700775    0.633532    0.706375
     30          1           0        4.883006   -2.040613   -0.532226
     31          1           0        4.862956   -1.673318    1.188905
     32          1           0        7.351347   -1.295914    1.142467
     33          1           0        7.371510   -1.665297   -0.588444
     34          1           0        6.948538   -2.927403    0.580955
 ---------------------------------------------------------------------

 SCF Done:  E(RHF) =  -669.535384293     A.U. after   15 cycles
 E2 =    -0.2091282951D+01 EUMP2 =    -0.67162666724389D+03

 The electronic state is 1-A.
 Alpha  occ. eigenvalues --  -20.60692 -20.60687 -15.85746 -11.31088 -11.27665
 Alpha  occ. eigenvalues --  -11.27661 -11.27332 -11.26659 -11.26649 -11.22608
 Alpha  occ. eigenvalues --  -11.22449 -11.22328 -11.22294 -11.22187 -11.21654
 Alpha  occ. eigenvalues --   -1.59769  -1.39323  -1.19259  -1.09351  -1.08651
 Alpha  occ. eigenvalues --   -1.04663  -1.04425  -0.96895  -0.95490  -0.87910
 Alpha  occ. eigenvalues --   -0.86057  -0.82333  -0.80501  -0.79159  -0.77383
 Alpha  occ. eigenvalues --   -0.71964  -0.71092  -0.70371  -0.65973  -0.64909
 Alpha  occ. eigenvalues --   -0.64671  -0.62018  -0.61811  -0.60270  -0.58513
 Alpha  occ. eigenvalues --   -0.56209  -0.55172  -0.53555  -0.53299  -0.52961
 Alpha  occ. eigenvalues --   -0.52752  -0.50832  -0.48808  -0.48720  -0.48702
 Alpha  occ. eigenvalues --   -0.47526  -0.46689  -0.46602  -0.44734  -0.44675
 Alpha  occ. eigenvalues --   -0.37217  -0.36274
 Alpha virt. eigenvalues --    0.05147   0.11372   0.16615   0.19617   0.22361
 Alpha virt. eigenvalues --    0.23747   0.25210   0.26187   0.26437   0.27584
 Alpha virt. eigenvalues --    0.29224   0.30169   0.30818   0.31123   0.31565

 Mulliken charges:
               1
     1  C   -0.173285
     2  C   -0.220463
     3  C   -0.170915
     4  C    0.158028
     5  C   -0.170802
     6  C   -0.220784
     7  H    0.233201
     8  H    0.222924
     9  H    0.275208
    10  H    0.275105
    11  H    0.223326
    12  N    0.488095
    13  O   -0.460788
    14  O   -0.460757
    15  C   -0.300361
    16  C   -0.299912
    17  C   -0.479396
    18  H    0.148273
    19  H    0.144485
    20  H    0.156687
    21  H    0.154976
    22  H    0.144797
    23  H    0.158474
    24  H    0.166658
    25  C   -0.298560
    26  C   -0.300328
    27  C   -0.476205
    28  H    0.152383
    29  H    0.151857
    30  H    0.151585
    31  H    0.151436
    32  H    0.156413
    33  H    0.156593
    34  H    0.162052
 Sum of Mulliken charges =  -0.00000

 Dipole moment (field-independent basis, Debye):
    X=              5.3883    Y=              0.8560    Z=              0.6891  Tot=              5.4993
 Quadrupole moment (field-independent basis, Debye-Ang):
   XX=           -133.3248   YY=            -91.2915   ZZ=            -93.4616
   XY=             -4.6494   XZ=             -3.3000   YZ=              2.1917

 Normal termination of Gaussian 16 at Thu May  6 12:21:10 2021.
