 Gaussian 16, Revision A.03,
 Gaussian 16:  EM64L-G16RevA.03 25-Dec-2016

 -------------
 #p 6-31g* mp2
 -------------

 ------------------------------------------------------
 Input file generated by CHIRIPA (05-May-2021 14:55:23)
 ------------------------------------------------------
 Symbolic Z-matrix:
 Charge =  0 Multiplicity = 1

                         Standard orientation:
 ---------------------------------------------------------------------
 Center     Atomic      Atomic             Coordinates (Angstroms)
 Number     Number       Type             X           Y           Z
 ---------------------------------------------------------------------
      1          6           0        1.353092    1.847929   -0.198832
      2          6           0        2.562327    2.202603    0.408193
      3          6           0        3.649209    1.323399    0.392818
      4          6           0        3.491202    0.092092   -0.241380
      5          6           0        2.299299   -0.290169   -0.855003
      6          6           0        1.225662    0.604867   -0.827384
      7          1           0        0.513921    2.537065   -0.182133
      8          1           0        2.664162    3.167317    0.897070
      9          1           0        4.596730    1.572483    0.854965
     10          1           0        2.228041   -1.258848   -1.334588
     11          1           0        0.287747    0.326750   -1.299624
     12          7           0        4.634824   -0.847062   -0.264137
     13          8           0        4.470076   -1.925932   -0.829411
     14          8           0        5.674289   -0.486518    0.283730
     15          6           0       -3.512411   -0.583801    0.284426
     16          6           0       -2.780288   -0.456908    1.620793
     17          6           0       -1.350919   -0.996934    1.565384
     18          1           0       -3.529346   -1.639740   -0.018313
     19          1           0       -2.946011   -0.046082   -0.488520
     20          1           0       -3.348621   -0.993543    2.391272
     21          1           0       -2.765261    0.598829    1.920479
     22          1           0       -0.763202   -0.455289    0.817179
     23          1           0       -1.349876   -2.056707    1.290647
     24          1           0       -0.846031   -0.896346    2.531215
     25          6           0       -4.942551   -0.048201    0.323905
     26          6           0       -5.674674   -0.175095   -1.012464
     27          6           0       -7.104043    0.364933   -0.957053
     28          1           0       -5.508951   -0.585920    1.096850
     29          1           0       -4.925616    1.007738    0.626643
     30          1           0       -5.689701   -1.230831   -1.312149
     31          1           0       -5.106342    0.361540   -1.782942
     32          1           0       -7.105086    1.424706   -0.682316
     33          1           0       -7.691760   -0.176713   -0.208849
     34          1           0       -7.608931    0.264343   -1.922885
 ---------------------------------------------------------------------

 SCF Done:  E(RHF) =  -669.534765556     A.U. after   15 cycles
 E2 =    -0.2092156672D+01 EUMP2 =    -0.67162692222824D+03

 The electronic state is 1-A.
 Alpha  occ. eigenvalues --  -20.60776 -20.60771 -15.85830 -11.31217 -11.27786
 Alpha  occ. eigenvalues --  -11.27782 -11.27544 -11.26809 -11.26799 -11.22175
 Alpha  occ. eigenvalues --  -11.22116 -11.22069 -11.21934 -11.21504 -11.21498
 Alpha  occ. eigenvalues --   -1.59850  -1.39403  -1.19398  -1.09016  -1.08792
 Alpha  occ. eigenvalues --   -1.04811  -1.04055  -0.96501  -0.95618  -0.87519
 Alpha  occ. eigenvalues --   -0.86206  -0.82452  -0.80121  -0.78840  -0.77493
 Alpha  occ. eigenvalues --   -0.72049  -0.71173  -0.70501  -0.65672  -0.65051
 Alpha  occ. eigenvalues --   -0.64824  -0.62182  -0.61439  -0.59864  -0.58119
 Alpha  occ. eigenvalues --   -0.55839  -0.55304  -0.53307  -0.53138  -0.52933
 Alpha  occ. eigenvalues --   -0.52750  -0.50423  -0.48813  -0.48801  -0.48425
 Alpha  occ. eigenvalues --   -0.47161  -0.46370  -0.46312  -0.44804  -0.44322
 Alpha  occ. eigenvalues --   -0.37350  -0.36353
 Alpha virt. eigenvalues --    0.05044   0.11126   0.16500   0.20063   0.22614
 Alpha virt. eigenvalues --    0.23880   0.25366   0.26556   0.27495   0.28196
 Alpha virt. eigenvalues --    0.28618   0.30308   0.31237   0.31569   0.31768

 Mulliken charges:
               1
     1  C   -0.170109
     2  C   -0.218303
     3  C   -0.170627
     4  C    0.158608
     5  C   -0.170733
     6  C   -0.218661
     7  H    0.225676
     8  H    0.223606
     9  H    0.275796
    10  H    0.276310
    11  H    0.225290
    12  N    0.488093
    13  O   -0.460124
    14  O   -0.460374
    15  C   -0.297143
    16  C   -0.299982
    17  C   -0.480837
    18  H    0.152187
    19  H    0.140003
    20  H    0.154944
    21  H    0.149136
    22  H    0.154050
    23  H    0.156479
    24  H    0.163481
    25  C   -0.298292
    26  C   -0.299778
    27  C   -0.475946
    28  H    0.152132
    29  H    0.148798
    30  H    0.153324
    31  H    0.149896
    32  H    0.155023
    33  H    0.156544
    34  H    0.161531
 Sum of Mulliken charges =  -0.00000

 Dipole moment (field-independent basis, Debye):
    X=             -4.0562    Y=              3.2819    Z=              0.1138  Tot=              5.2189
 Quadrupole moment (field-independent basis, Debye-Ang):
   XX=           -122.3488   YY=            -91.5384   ZZ=            -94.0315
   XY=             14.1936   XZ=              2.6140   YZ=              0.9363

 Normal termination of Gaussian 16 at Thu May  6 15:56:04 2021.
