 Gaussian 16, Revision A.03,
 Gaussian 16:  EM64L-G16RevA.03 25-Dec-2016

 -------------
 #p 6-31g* mp2
 -------------

 ------------------------------------------------------
 Input file generated by CHIRIPA (05-May-2021 14:51:13)
 ------------------------------------------------------
 Symbolic Z-matrix:
 Charge =  0 Multiplicity = 1

                         Standard orientation:
 ---------------------------------------------------------------------
 Center     Atomic      Atomic             Coordinates (Angstroms)
 Number     Number       Type             X           Y           Z
 ---------------------------------------------------------------------
      1          6           0        3.811933   -0.181694   -0.082842
      2          6           0        3.137750   -1.444120   -0.621119
      3          6           0        4.038004   -2.677060   -0.536288
      4          1           0        4.738353   -0.000389   -0.644819
      5          1           0        4.107909   -0.349548    0.961964
      6          1           0        2.841893   -1.273453   -1.664171
      7          1           0        2.212728   -1.622333   -0.057923
      8          1           0        4.323025   -2.875243    0.502022
      9          1           0        4.955765   -2.524381   -1.113353
     10          1           0        3.536269   -3.568111   -0.926354
     11          6           0        2.924471    1.059291   -0.160915
     12          6           0        3.598653    2.321718    0.377362
     13          6           0        2.698399    3.554658    0.292531
     14          1           0        2.628494    1.227146   -1.205720
     15          1           0        1.998050    0.877987    0.401062
     16          1           0        4.523675    2.499931   -0.185834
     17          1           0        3.894510    2.151051    1.420414
     18          1           0        1.780638    3.401979    0.869596
     19          1           0        2.413378    3.752841   -0.745779
     20          1           0        3.200134    4.445708    0.682598
     21          6           0       -4.109471   -0.340108   -0.033723
     22          6           0       -4.487981    1.120628   -0.280634
     23          6           0       -5.974193    1.301913   -0.590638
     24          1           0       -4.376514   -0.935840   -0.917316
     25          1           0       -4.709206   -0.731164    0.799817
     26          1           0       -3.886721    1.509219   -1.112559
     27          1           0       -4.219830    1.712983    0.603575
     28          1           0       -6.588016    0.940503    0.240749
     29          1           0       -6.253015    0.735580   -1.485136
     30          1           0       -6.222815    2.353612   -0.763770
     31          6           0       -2.626932   -0.537489    0.277480
     32          6           0       -2.248422   -1.998226    0.524390
     33          6           0       -0.762210   -2.179511    0.834395
     34          1           0       -2.027197   -0.146433   -0.556060
     35          1           0       -2.359889    0.058242    1.161073
     36          1           0       -2.516573   -2.590581   -0.359819
     37          1           0       -2.849681   -2.386817    1.356316
     38          1           0       -0.483388   -1.613178    1.728893
     39          1           0       -0.148387   -1.818101    0.003008
     40          1           0       -0.513588   -3.231210    1.007526
 ---------------------------------------------------------------------

 SCF Done:  E(RHF) =  -470.733228682     A.U. after   11 cycles
 E2 =    -0.1582647112D+01 EUMP2 =    -0.47231587579476D+03

 The electronic state is 1-A.
 Alpha  occ. eigenvalues --  -11.21622 -11.21604 -11.21573 -11.21500 -11.21416
 Alpha  occ. eigenvalues --  -11.21358 -11.21356 -11.21298 -11.21094 -11.21073
 Alpha  occ. eigenvalues --  -11.21048 -11.21015  -1.08444  -1.08382  -1.03551
 Alpha  occ. eigenvalues --   -1.03477  -0.96001  -0.95932  -0.87031  -0.86941
 Alpha  occ. eigenvalues --   -0.79671  -0.79499  -0.78280  -0.78170  -0.65088
 Alpha  occ. eigenvalues --   -0.65003  -0.60999  -0.60836  -0.59363  -0.59308
 Alpha  occ. eigenvalues --   -0.57618  -0.57537  -0.55310  -0.55203  -0.52701
 Alpha  occ. eigenvalues --   -0.52636  -0.52457  -0.52334  -0.50012  -0.49830
 Alpha  occ. eigenvalues --   -0.48067  -0.47765  -0.46739  -0.46476  -0.45908
 Alpha  occ. eigenvalues --   -0.45743  -0.45693  -0.45445  -0.43798  -0.43735
 Alpha virt. eigenvalues --    0.22091   0.23006   0.23892   0.24424   0.25754
 Alpha virt. eigenvalues --    0.26622   0.27045   0.27608   0.28028   0.29362
 Alpha virt. eigenvalues --    0.30639   0.31417   0.31738   0.31871   0.32031

 Mulliken charges:
               1
     1  C   -0.297457
     2  C   -0.308938
     3  C   -0.475019
     4  H    0.149277
     5  H    0.149330
     6  H    0.150411
     7  H    0.163143
     8  H    0.155055
     9  H    0.154747
    10  H    0.159969
    11  C   -0.299115
    12  C   -0.299572
    13  C   -0.475670
    14  H    0.148942
    15  H    0.150570
    16  H    0.151877
    17  H    0.151852
    18  H    0.155274
    19  H    0.155042
    20  H    0.160100
    21  C   -0.298296
    22  C   -0.299671
    23  C   -0.475722
    24  H    0.149704
    25  H    0.149513
    26  H    0.152112
    27  H    0.151916
    28  H    0.155155
    29  H    0.155181
    30  H    0.160320
    31  C   -0.298543
    32  C   -0.299817
    33  C   -0.480480
    34  H    0.150158
    35  H    0.149285
    36  H    0.152151
    37  H    0.151894
    38  H    0.154313
    39  H    0.160512
    40  H    0.160498
 Sum of Mulliken charges =  -0.00000

 Dipole moment (field-independent basis, Debye):
    X=             -0.0273    Y=             -0.0107    Z=              0.0055  Tot=              0.0299
 Quadrupole moment (field-independent basis, Debye-Ang):
   XX=            -86.1520   YY=            -85.8105   ZZ=            -82.9747
   XY=              0.8768   XZ=             -0.7193   YZ=             -0.0119

 Normal termination of Gaussian 16 at Wed May  5 18:21:47 2021.
