 Gaussian 16, Revision A.03,
 Gaussian 16:  EM64L-G16RevA.03 25-Dec-2016

 -------------
 #p 6-31g* mp2
 -------------

 ------------------------------------------------------
 Input file generated by CHIRIPA (05-May-2021 14:51:12)
 ------------------------------------------------------
 Symbolic Z-matrix:
 Charge =  0 Multiplicity = 1

                         Standard orientation:
 ---------------------------------------------------------------------
 Center     Atomic      Atomic             Coordinates (Angstroms)
 Number     Number       Type             X           Y           Z
 ---------------------------------------------------------------------
      1          6           0        4.280470    0.046129   -0.162918
      2          6           0        5.617123   -0.681857   -0.309141
      3          6           0        6.695740    0.187028   -0.956766
      4          1           0        3.940421    0.377583   -1.153599
      5          1           0        4.429475    0.954854    0.436591
      6          1           0        5.465372   -1.589664   -0.907032
      7          1           0        5.953935   -1.011784    0.681980
      8          1           0        6.876218    1.086368   -0.359091
      9          1           0        6.384879    0.505204   -1.957131
     10          1           0        7.642947   -0.353034   -1.051592
     11          6           0        3.192099   -0.809506    0.482888
     12          6           0        1.855446   -0.081521    0.629112
     13          6           0        0.776829   -0.950406    1.276737
     14          1           0        3.043094   -1.718232   -0.116621
     15          1           0        3.532148   -1.140960    1.473569
     16          1           0        1.518634    0.248406   -0.362010
     17          1           0        2.007197    0.826286    1.227003
     18          1           0        1.087690   -1.268582    2.277102
     19          1           0        0.596351   -1.849746    0.679061
     20          1           0       -0.170378   -0.410344    1.371563
     21          6           0       -4.132281   -0.147777   -0.542457
     22          6           0       -5.472519   -0.490638    0.108842
     23          6           0       -6.253091   -1.551341   -0.667954
     24          1           0       -4.309501    0.203290   -1.568269
     25          1           0       -3.528108   -1.061873   -0.624919
     26          1           0       -6.073433    0.424083    0.191311
     27          1           0       -5.292101   -0.840748    1.133288
     28          1           0       -5.676381   -2.479242   -0.738700
     29          1           0       -6.462152   -1.207225   -1.686030
     30          1           0       -7.207835   -1.781288   -0.184791
     31          6           0       -3.340288    0.911154    0.222488
     32          6           0       -2.000050    1.254016   -0.428812
     33          6           0       -1.219478    2.314719    0.347984
     34          1           0       -3.944460    1.825250    0.304949
     35          1           0       -3.163068    0.560088    1.248299
     36          1           0       -2.180468    1.604125   -1.453258
     37          1           0       -1.399136    0.339294   -0.511281
     38          1           0       -1.010416    1.970602    1.366059
     39          1           0       -1.796188    3.242620    0.418729
     40          1           0       -0.264733    2.544666   -0.135179
 ---------------------------------------------------------------------

 SCF Done:  E(RHF) =  -470.732435915     A.U. after   11 cycles
 E2 =    -0.1583908185D+01 EUMP2 =    -0.47231634409998D+03

 The electronic state is 1-A.
 Alpha  occ. eigenvalues --  -11.21603 -11.21593 -11.21589 -11.21548 -11.21406
 Alpha  occ. eigenvalues --  -11.21397 -11.21347 -11.21337 -11.21072 -11.21061
 Alpha  occ. eigenvalues --  -11.21055 -11.21033  -1.08461  -1.08394  -1.03620
 Alpha  occ. eigenvalues --   -1.03438  -0.96066  -0.95891  -0.87011  -0.86980
 Alpha  occ. eigenvalues --   -0.79635  -0.79541  -0.78250  -0.78228  -0.65143
 Alpha  occ. eigenvalues --   -0.65031  -0.61187  -0.60905  -0.59408  -0.59165
 Alpha  occ. eigenvalues --   -0.57675  -0.57455  -0.55280  -0.55208  -0.52666
 Alpha  occ. eigenvalues --   -0.52656  -0.52444  -0.52318  -0.49958  -0.49882
 Alpha  occ. eigenvalues --   -0.48030  -0.47765  -0.46658  -0.46581  -0.45783
 Alpha  occ. eigenvalues --   -0.45767  -0.45739  -0.45657  -0.43825  -0.43707
 Alpha virt. eigenvalues --    0.20641   0.23038   0.23560   0.25342   0.26124
 Alpha virt. eigenvalues --    0.26503   0.26760   0.27282   0.28129   0.29241
 Alpha virt. eigenvalues --    0.29971   0.31345   0.31385   0.31680   0.32577

 Mulliken charges:
               1
     1  C   -0.298294
     2  C   -0.299632
     3  C   -0.475716
     4  H    0.149517
     5  H    0.149593
     6  H    0.151920
     7  H    0.151960
     8  H    0.155210
     9  H    0.155169
    10  H    0.160261
    11  C   -0.298515
    12  C   -0.300517
    13  C   -0.482427
    14  H    0.149376
    15  H    0.149672
    16  H    0.153504
    17  H    0.152982
    18  H    0.155176
    19  H    0.154204
    20  H    0.167017
    21  C   -0.298208
    22  C   -0.299673
    23  C   -0.475716
    24  H    0.149569
    25  H    0.149812
    26  H    0.151865
    27  H    0.152080
    28  H    0.155233
    29  H    0.155095
    30  H    0.160234
    31  C   -0.298950
    32  C   -0.307006
    33  C   -0.477586
    34  H    0.149815
    35  H    0.149372
    36  H    0.152435
    37  H    0.158081
    38  H    0.155411
    39  H    0.155069
    40  H    0.162611
 Sum of Mulliken charges =  -0.00000

 Dipole moment (field-independent basis, Debye):
    X=              0.0096    Y=              0.0099    Z=             -0.0037  Tot=              0.0143
 Quadrupole moment (field-independent basis, Debye-Ang):
   XX=            -85.8275   YY=            -85.0036   ZZ=            -84.0441
   XY=             -1.1396   XZ=              0.6163   YZ=             -0.1867

 Normal termination of Gaussian 16 at Thu May  6 02:19:29 2021.
