 Gaussian 16, Revision A.03,
 Gaussian 16:  EM64L-G16RevA.03 25-Dec-2016

 -------------
 #p 6-31g* mp2
 -------------

 ------------------------------------------------------
 Input file generated by CHIRIPA (05-May-2021 14:55:20)
 ------------------------------------------------------
 Symbolic Z-matrix:
 Charge =  0 Multiplicity = 1

                         Standard orientation:
 ---------------------------------------------------------------------
 Center     Atomic      Atomic             Coordinates (Angstroms)
 Number     Number       Type             X           Y           Z
 ---------------------------------------------------------------------
      1          6           0       -3.775988   -1.992210    0.259816
      2          6           0       -3.563712   -1.414654   -0.996325
      3          6           0       -3.024758   -0.129237   -1.104851
      4          6           0       -2.708125    0.553263    0.068702
      5          6           0       -2.907864    0.004883    1.334670
      6          6           0       -3.447965   -1.281850    1.419260
      7          1           0       -4.195106   -2.991265    0.334825
      8          1           0       -3.817517   -1.963994   -1.898463
      9          1           0       -2.850046    0.341759   -2.064569
     10          1           0       -2.644933    0.577099    2.216063
     11          1           0       -3.611734   -1.727886    2.396131
     12          7           0       -2.136951    1.914773   -0.033520
     13          8           0       -1.866377    2.495281    1.015498
     14          8           0       -1.970654    2.375637   -1.160723
     15          6           0        4.275934   -0.567888    0.185567
     16          6           0        5.308813    0.518563   -0.115710
     17          6           0        6.682297    0.210305    0.481209
     18          1           0        4.185840   -0.687553    1.273919
     19          1           0        4.639534   -1.528254   -0.205441
     20          1           0        4.942741    1.476853    0.274530
     21          1           0        5.396318    0.635788   -1.203468
     22          1           0        7.072556   -0.732043    0.083365
     23          1           0        6.616403    0.113802    1.569761
     24          1           0        7.405271    0.999885    0.253763
     25          6           0        2.897854   -0.274017   -0.404574
     26          6           0        1.864976   -1.360469   -0.103297
     27          6           0        0.491491   -1.052211   -0.700216
     28          1           0        2.534254    0.686349   -0.013566
     29          1           0        2.987948   -0.154353   -1.492926
     30          1           0        1.777471   -1.477694    0.984461
     31          1           0        2.231047   -2.318759   -0.493538
     32          1           0        0.557385   -0.955707   -1.788768
     33          1           0        0.101232   -0.109863   -0.302372
     34          1           0       -0.231483   -1.841791   -0.472770
 ---------------------------------------------------------------------

 SCF Done:  E(RHF) =  -669.534524321     A.U. after   15 cycles
 E2 =    -0.2093294295D+01 EUMP2 =    -0.67162781861545D+03

 The electronic state is 1-A.
 Alpha  occ. eigenvalues --  -20.60795 -20.60783 -15.85832 -11.31128 -11.27737
 Alpha  occ. eigenvalues --  -11.27715 -11.27509 -11.26773 -11.26760 -11.21448
 Alpha  occ. eigenvalues --  -11.21327 -11.21151 -11.21068 -11.20939 -11.20850
 Alpha  occ. eigenvalues --   -1.59870  -1.39421  -1.19351  -1.08762  -1.08194
 Alpha  occ. eigenvalues --   -1.04750  -1.03330  -0.95789  -0.95590  -0.86813
 Alpha  occ. eigenvalues --   -0.86151  -0.82426  -0.79406  -0.77998  -0.77471
 Alpha  occ. eigenvalues --   -0.72059  -0.71214  -0.70468  -0.65007  -0.64828
 Alpha  occ. eigenvalues --   -0.64760  -0.62100  -0.60740  -0.59166  -0.57391
 Alpha  occ. eigenvalues --   -0.55271  -0.55123  -0.53378  -0.52848  -0.52238
 Alpha  occ. eigenvalues --   -0.52130  -0.49711  -0.48816  -0.48814  -0.47722
 Alpha  occ. eigenvalues --   -0.46428  -0.45549  -0.45458  -0.44824  -0.43560
 Alpha  occ. eigenvalues --   -0.37272  -0.36327
 Alpha virt. eigenvalues --    0.05039   0.11274   0.16547   0.21409   0.23078
 Alpha virt. eigenvalues --    0.24422   0.26850   0.27254   0.27629   0.27996
 Alpha virt. eigenvalues --    0.28408   0.30802   0.31444   0.31793   0.32044

 Mulliken charges:
               1
     1  C   -0.171702
     2  C   -0.218202
     3  C   -0.166752
     4  C    0.156935
     5  C   -0.171527
     6  C   -0.217991
     7  H    0.225570
     8  H    0.223477
     9  H    0.275483
    10  H    0.275243
    11  H    0.223335
    12  N    0.490669
    13  O   -0.461177
    14  O   -0.459749
    15  C   -0.298093
    16  C   -0.299937
    17  C   -0.475613
    18  H    0.148887
    19  H    0.147585
    20  H    0.154645
    21  H    0.152028
    22  H    0.153943
    23  H    0.154746
    24  H    0.160368
    25  C   -0.299573
    26  C   -0.299940
    27  C   -0.475904
    28  H    0.155898
    29  H    0.149963
    30  H    0.150324
    31  H    0.149298
    32  H    0.153988
    33  H    0.155080
    34  H    0.158696
 Sum of Mulliken charges =  -0.00000

 Dipole moment (field-independent basis, Debye):
    X=             -2.0772    Y=             -4.7403    Z=              0.3375  Tot=              5.1864
 Quadrupole moment (field-independent basis, Debye-Ang):
   XX=            -85.7946   YY=           -100.6817   ZZ=            -89.1120
   XY=             12.3411   XZ=             -1.4129   YZ=              0.6073

 Normal termination of Gaussian 16 at Thu May  6 12:26:18 2021.
