 Gaussian 16, Revision A.03,
 Gaussian 16:  EM64L-G16RevA.03 25-Dec-2016

 -------------
 #p 6-31g* mp2
 -------------

 ------------------------------------------------------
 Input file generated by CHIRIPA (05-May-2021 14:55:19)
 ------------------------------------------------------
 Symbolic Z-matrix:
 Charge =  0 Multiplicity = 1

                         Standard orientation:
 ---------------------------------------------------------------------
 Center     Atomic      Atomic             Coordinates (Angstroms)
 Number     Number       Type             X           Y           Z
 ---------------------------------------------------------------------
      1          6           0       -4.722069    0.055063   -1.752466
      2          6           0       -4.519708   -1.218675   -1.211021
      3          6           0       -3.627255   -1.406133   -0.151335
      4          6           0       -2.950857   -0.292708    0.344710
      5          6           0       -3.130939    0.988883   -0.173347
      6          6           0       -4.028262    1.152842   -1.232818
      7          1           0       -5.417240    0.191558   -2.575572
      8          1           0       -5.057154   -2.073044   -1.612581
      9          1           0       -3.451593   -2.381157    0.286714
     10          1           0       -2.580706    1.821381    0.248090
     11          1           0       -4.183426    2.143203   -1.651332
     12          7           0       -2.003479   -0.478722    1.466438
     13          8           0       -1.419797    0.518399    1.885605
     14          8           0       -1.862545   -1.618120    1.905242
     15          6           0        4.661434    0.069139    0.005201
     16          6           0        5.244280   -0.946575   -0.977958
     17          6           0        6.613886   -1.470121   -0.544514
     18          1           0        5.360331    0.910138    0.111078
     19          1           0        4.579926   -0.396328    0.997215
     20          1           0        5.323374   -0.479768   -1.968135
     21          1           0        4.543827   -1.785163   -1.081653
     22          1           0        6.547451   -1.960440    0.432098
     23          1           0        7.331427   -0.647628   -0.459420
     24          1           0        7.011983   -2.194814   -1.261591
     25          6           0        3.292476    0.601710   -0.414381
     26          6           0        2.709630    1.617425    0.568777
     27          6           0        1.340024    2.140970    0.135335
     28          1           0        3.373985    1.067177   -1.406395
     29          1           0        2.593580   -0.239289   -0.520258
     30          1           0        3.410083    2.456012    0.672472
     31          1           0        2.630536    1.150617    1.558955
     32          1           0        0.622483    1.318478    0.050240
     33          1           0        1.406459    2.631289   -0.841279
     34          1           0        0.941928    2.865664    0.852411
 ---------------------------------------------------------------------

 SCF Done:  E(RHF) =  -669.535988832     A.U. after   15 cycles
 E2 =    -0.2091164188D+01 EUMP2 =    -0.67162715302056D+03

 The electronic state is 1-A.
 Alpha  occ. eigenvalues --  -20.60909 -20.60893 -15.85925 -11.31246 -11.27813
 Alpha  occ. eigenvalues --  -11.27797 -11.27550 -11.26820 -11.26806 -11.21164
 Alpha  occ. eigenvalues --  -11.20844 -11.20811 -11.20735 -11.20688 -11.20210
 Alpha  occ. eigenvalues --   -1.59966  -1.39521  -1.19416  -1.08823  -1.07831
 Alpha  occ. eigenvalues --   -1.04810  -1.02909  -0.95668  -0.95363  -0.86394
 Alpha  occ. eigenvalues --   -0.86211  -0.82496  -0.78996  -0.77654  -0.77536
 Alpha  occ. eigenvalues --   -0.72152  -0.71286  -0.70523  -0.65072  -0.64814
 Alpha  occ. eigenvalues --   -0.64452  -0.62156  -0.60290  -0.58749  -0.56979
 Alpha  occ. eigenvalues --   -0.55318  -0.54649  -0.53143  -0.52902  -0.52062
 Alpha  occ. eigenvalues --   -0.51811  -0.49354  -0.48912  -0.48885  -0.47319
 Alpha  occ. eigenvalues --   -0.46054  -0.45237  -0.45121  -0.44748  -0.43176
 Alpha  occ. eigenvalues --   -0.37398  -0.36410
 Alpha virt. eigenvalues --    0.04958   0.11212   0.16432   0.21313   0.23467
 Alpha virt. eigenvalues --    0.24868   0.26964   0.27275   0.27813   0.28095
 Alpha virt. eigenvalues --    0.28893   0.30798   0.31760   0.32209   0.32521

 Mulliken charges:
               1
     1  C   -0.170569
     2  C   -0.218593
     3  C   -0.170963
     4  C    0.157701
     5  C   -0.171289
     6  C   -0.218626
     7  H    0.225844
     8  H    0.223616
     9  H    0.275567
    10  H    0.277673
    11  H    0.223960
    12  N    0.487339
    13  O   -0.457966
    14  O   -0.459713
    15  C   -0.298294
    16  C   -0.299260
    17  C   -0.475479
    18  H    0.148063
    19  H    0.152036
    20  H    0.149878
    21  H    0.152049
    22  H    0.155986
    23  H    0.154303
    24  H    0.158563
    25  C   -0.298151
    26  C   -0.299935
    27  C   -0.474684
    28  H    0.145495
    29  H    0.150565
    30  H    0.147728
    31  H    0.160416
    32  H    0.160865
    33  H    0.144497
    34  H    0.161381
 Sum of Mulliken charges =  -0.00000

 Dipole moment (field-independent basis, Debye):
    X=             -3.5127    Y=              0.5996    Z=             -3.8253  Tot=              5.2280
 Quadrupole moment (field-independent basis, Debye-Ang):
   XX=            -76.7867   YY=            -90.2766   ZZ=            -97.9959
   XY=              0.8261   XZ=             10.7546   YZ=              1.1502

 Normal termination of Gaussian 16 at Thu May  6 12:23:59 2021.
