 Gaussian 16, Revision A.03,
 Gaussian 16:  EM64L-G16RevA.03 25-Dec-2016

 -------------
 #p 6-31g* mp2
 -------------

 ------------------------------------------------------
 Input file generated by CHIRIPA (05-May-2021 14:51:10)
 ------------------------------------------------------
 Symbolic Z-matrix:
 Charge =  0 Multiplicity = 1

                         Standard orientation:
 ---------------------------------------------------------------------
 Center     Atomic      Atomic             Coordinates (Angstroms)
 Number     Number       Type             X           Y           Z
 ---------------------------------------------------------------------
      1          6           0        3.188579   -0.665463   -0.280497
      2          6           0        4.440879    0.197914   -0.124584
      3          6           0        5.426404    0.024134   -1.280584
      4          1           0        3.485391   -1.720543   -0.355702
      5          1           0        2.692556   -0.412025   -1.227664
      6          1           0        4.933637   -0.056102    0.822666
      7          1           0        4.141039    1.251044   -0.049549
      8          1           0        4.956926    0.296666   -2.231330
      9          1           0        5.754027   -1.017907   -1.354160
     10          1           0        6.314250    0.650413   -1.148814
     11          6           0        2.193780   -0.502728    0.867379
     12          6           0        0.941480   -1.366106    0.711466
     13          6           0       -0.044044   -1.192326    1.867466
     14          1           0        2.689803   -0.756166    1.814546
     15          1           0        1.896968    0.552351    0.942584
     16          1           0        1.241320   -2.419236    0.636431
     17          1           0        0.448722   -1.112090   -0.235783
     18          1           0       -0.371668   -0.150285    1.941042
     19          1           0        0.425434   -1.464858    2.818212
     20          1           0       -0.931891   -1.818605    1.735696
     21          6           0       -2.768465   -0.078182   -0.666064
     22          6           0       -3.993460   -0.881322   -0.227501
     23          6           0       -4.134474   -2.203690   -0.981987
     24          1           0       -2.834041    0.118741   -1.744890
     25          1           0       -1.866119   -0.686401   -0.513632
     26          1           0       -4.893101   -0.271254   -0.379420
     27          1           0       -3.925056   -1.076190    0.850443
     28          1           0       -3.254356   -2.834687   -0.821242
     29          1           0       -4.227902   -2.025176   -2.058093
     30          1           0       -5.016628   -2.761634   -0.652800
     31          6           0       -2.613893    1.246374    0.079182
     32          6           0       -1.388899    2.049514   -0.359381
     33          6           0       -1.247885    3.371882    0.395105
     34          1           0       -3.516240    1.854593   -0.073250
     35          1           0       -2.548318    1.049451    1.158008
     36          1           0       -1.457304    2.244382   -1.437325
     37          1           0       -0.489259    1.439446   -0.207462
     38          1           0       -1.154457    3.193367    1.471212
     39          1           0       -2.128003    4.002879    0.234360
     40          1           0       -0.365731    3.929826    0.065917
 ---------------------------------------------------------------------

 SCF Done:  E(RHF) =  -470.732161673     A.U. after   11 cycles
 E2 =    -0.1585548023D+01 EUMP2 =    -0.47231770969658D+03

 The electronic state is 1-A.
 Alpha  occ. eigenvalues --  -11.21678 -11.21628 -11.21628 -11.21573 -11.21463
 Alpha  occ. eigenvalues --  -11.21397 -11.21363 -11.21282 -11.21163 -11.21118
 Alpha  occ. eigenvalues --  -11.21089 -11.21063  -1.08540  -1.08380  -1.03606
 Alpha  occ. eigenvalues --   -1.03532  -0.96089  -0.95940  -0.87063  -0.87000
 Alpha  occ. eigenvalues --   -0.79669  -0.79601  -0.78356  -0.78186  -0.65572
 Alpha  occ. eigenvalues --   -0.64742  -0.61151  -0.60779  -0.59411  -0.59333
 Alpha  occ. eigenvalues --   -0.57702  -0.57551  -0.55556  -0.55019  -0.52740
 Alpha  occ. eigenvalues --   -0.52677  -0.52477  -0.52401  -0.50056  -0.49868
 Alpha  occ. eigenvalues --   -0.48027  -0.47887  -0.46798  -0.46643  -0.46029
 Alpha  occ. eigenvalues --   -0.45812  -0.45673  -0.45325  -0.43843  -0.43774
 Alpha virt. eigenvalues --    0.19482   0.22271   0.23496   0.24519   0.26129
 Alpha virt. eigenvalues --    0.26173   0.26963   0.28039   0.28419   0.29686
 Alpha virt. eigenvalues --    0.30304   0.31530   0.31698   0.31972   0.32450

 Mulliken charges:
               1
     1  C   -0.298500
     2  C   -0.299743
     3  C   -0.475778
     4  H    0.149838
     5  H    0.150048
     6  H    0.151968
     7  H    0.152140
     8  H    0.155350
     9  H    0.155211
    10  H    0.160369
    11  C   -0.300507
    12  C   -0.306860
    13  C   -0.481657
    14  H    0.150061
    15  H    0.151344
    16  H    0.153085
    17  H    0.156726
    18  H    0.159585
    19  H    0.156572
    20  H    0.160821
    21  C   -0.307285
    22  C   -0.300067
    23  C   -0.475897
    24  H    0.148853
    25  H    0.160702
    26  H    0.151852
    27  H    0.152425
    28  H    0.154799
    29  H    0.155219
    30  H    0.160236
    31  C   -0.299403
    32  C   -0.307369
    33  C   -0.475735
    34  H    0.149800
    35  H    0.151326
    36  H    0.152212
    37  H    0.157577
    38  H    0.154845
    39  H    0.155860
    40  H    0.159976
 Sum of Mulliken charges =  -0.00000

 Dipole moment (field-independent basis, Debye):
    X=              0.0308    Y=             -0.0126    Z=              0.0098  Tot=              0.0347
 Quadrupole moment (field-independent basis, Debye-Ang):
   XX=            -85.0020   YY=            -84.9970   ZZ=            -84.8083
   XY=             -0.8521   XZ=              1.1106   YZ=             -1.1912

 Normal termination of Gaussian 16 at Wed May  5 15:12:47 2021.
