 Gaussian 16, Revision A.03,
 Gaussian 16:  EM64L-G16RevA.03 25-Dec-2016

 -------------
 #p 6-31g* mp2
 -------------

 ------------------------------------------------------
 Input file generated by CHIRIPA (05-May-2021 14:53:11)
 ------------------------------------------------------
 Symbolic Z-matrix:
 Charge =  0 Multiplicity = 1

                         Standard orientation:
 ---------------------------------------------------------------------
 Center     Atomic      Atomic             Coordinates (Angstroms)
 Number     Number       Type             X           Y           Z
 ---------------------------------------------------------------------
      1          6           0        3.536022    0.999705   -0.517286
      2          6           0        2.861106    1.951234    0.471181
      3          6           0        2.641950    3.348686   -0.109243
      4          1           0        4.500574    1.425497   -0.825968
      5          1           0        2.920977    0.928405   -1.425048
      6          1           0        3.476545    2.019642    1.377367
      7          1           0        1.898136    1.523036    0.777694
      8          1           0        2.009291    3.300396   -1.001438
      9          1           0        3.596668    3.799824   -0.398358
     10          1           0        2.158273    4.012524    0.614107
     11          6           0        3.761878   -0.401259    0.048414
     12          6           0        4.436793   -1.352788   -0.940053
     13          6           0        4.655950   -2.750240   -0.359629
     14          1           0        4.376922   -0.329960    0.956176
     15          1           0        2.797326   -0.827052    0.357097
     16          1           0        5.399764   -0.924590   -1.246565
     17          1           0        3.821355   -1.421196   -1.846238
     18          1           0        3.701231   -3.201379   -0.070514
     19          1           0        5.288608   -2.701951    0.532566
     20          1           0        5.139627   -3.414079   -1.082979
     21          6           0       -5.012185    0.215688   -1.038354
     22          6           0       -4.637082   -1.098324   -0.739705
     23          6           0       -3.441683   -1.359146   -0.063286
     24          6           0       -2.641782   -0.277220    0.301244
     25          6           0       -2.988103    1.043056    0.018003
     26          6           0       -4.187951    1.280307   -0.659215
     27          1           0       -5.942528    0.409146   -1.564122
     28          1           0       -5.275222   -1.927084   -1.032927
     29          1           0       -3.127111   -2.366623    0.180543
     30          1           0       -2.331212    1.848523    0.323180
     31          1           0       -4.476726    2.301812   -0.889825
     32          7           0       -1.373912   -0.540864    1.017761
     33          8           0       -0.686725    0.429775    1.328038
     34          8           0       -1.091349   -1.713155    1.255524
 ---------------------------------------------------------------------

 SCF Done:  E(RHF) =  -669.536427462     A.U. after   15 cycles
 E2 =    -0.2091071311D+01 EUMP2 =    -0.67162749877217D+03

 The electronic state is 1-A.
 Alpha  occ. eigenvalues --  -20.61042 -20.61037 -15.86070 -11.31350 -11.27909
 Alpha  occ. eigenvalues --  -11.27904 -11.27640 -11.26907 -11.26897 -11.20718
 Alpha  occ. eigenvalues --  -11.20357 -11.20268 -11.20236 -11.20220 -11.20199
 Alpha  occ. eigenvalues --   -1.60099  -1.39656  -1.19515  -1.08927  -1.07365
 Alpha  occ. eigenvalues --   -1.04905  -1.02533  -0.95775  -0.95025  -0.86307
 Alpha  occ. eigenvalues --   -0.86044  -0.82611  -0.78583  -0.77668  -0.77148
 Alpha  occ. eigenvalues --   -0.72292  -0.71411  -0.70623  -0.65172  -0.64907
 Alpha  occ. eigenvalues --   -0.63990  -0.62252  -0.59927  -0.58389  -0.56621
 Alpha  occ. eigenvalues --   -0.55411  -0.54323  -0.53240  -0.52996  -0.51748
 Alpha  occ. eigenvalues --   -0.51445  -0.49087  -0.49048  -0.48945  -0.46909
 Alpha  occ. eigenvalues --   -0.45627  -0.45094  -0.44724  -0.44472  -0.42779
 Alpha  occ. eigenvalues --   -0.37492  -0.36505
 Alpha virt. eigenvalues --    0.04831   0.11151   0.16314   0.21268   0.23912
 Alpha virt. eigenvalues --    0.25212   0.27213   0.27639   0.28121   0.28764
 Alpha virt. eigenvalues --    0.28952   0.30867   0.32167   0.32478   0.32723

 Mulliken charges:
               1
     1  C   -0.296261
     2  C   -0.312540
     3  C   -0.474082
     4  H    0.144161
     5  H    0.144850
     6  H    0.148489
     7  H    0.181168
     8  H    0.149577
     9  H    0.150868
    10  H    0.157414
    11  C   -0.301621
    12  C   -0.298456
    13  C   -0.475846
    14  H    0.147706
    15  H    0.163610
    16  H    0.148288
    17  H    0.148889
    18  H    0.159171
    19  H    0.154171
    20  H    0.155994
    21  C   -0.170459
    22  C   -0.218601
    23  C   -0.170558
    24  C    0.157506
    25  C   -0.170751
    26  C   -0.218570
    27  H    0.226247
    28  H    0.224019
    29  H    0.275916
    30  H    0.276116
    31  H    0.224175
    32  N    0.491503
    33  O   -0.463159
    34  O   -0.458936
 Sum of Mulliken charges =  -0.00000

 Dipole moment (field-independent basis, Debye):
    X=             -4.8142    Y=              0.8074    Z=             -2.3818  Tot=              5.4315
 Quadrupole moment (field-independent basis, Debye-Ang):
   XX=            -71.8411   YY=            -92.1169   ZZ=            -97.2216
   XY=              0.0121   XZ=              6.3585   YZ=              1.5841

 Normal termination of Gaussian 16 at Wed May  5 15:25:20 2021.
