 Gaussian 16, Revision A.03,
 Gaussian 16:  EM64L-G16RevA.03 25-Dec-2016

 -------------
 #p 6-31g* mp2
 -------------

 ------------------------------------------------------
 Input file generated by CHIRIPA (05-May-2021 14:55:20)
 ------------------------------------------------------
 Symbolic Z-matrix:
 Charge =  0 Multiplicity = 1

                         Standard orientation:
 ---------------------------------------------------------------------
 Center     Atomic      Atomic             Coordinates (Angstroms)
 Number     Number       Type             X           Y           Z
 ---------------------------------------------------------------------
      1          6           0       -1.619277    2.192404    0.981978
      2          6           0       -1.135007    1.090844    1.695120
      3          6           0       -1.384263   -0.209996    1.247644
      4          6           0       -2.124624   -0.373418    0.077837
      5          6           0       -2.620621    0.703879   -0.654767
      6          6           0       -2.359234    1.995752   -0.188625
      7          1           0       -1.420936    3.199445    1.336838
      8          1           0       -0.560058    1.240560    2.604550
      9          1           0       -1.021276   -1.080622    1.780248
     10          1           0       -3.190715    0.522955   -1.557916
     11          1           0       -2.736573    2.849368   -0.744503
     12          7           0       -2.394922   -1.745812   -0.405766
     13          8           0       -3.049751   -1.863041   -1.439252
     14          8           0       -1.946835   -2.678280    0.257829
     15          6           0        3.065700   -0.429916   -0.397809
     16          6           0        2.861062   -1.612774    0.549268
     17          6           0        3.674293   -2.842383    0.143666
     18          1           0        2.790981   -0.732980   -1.417430
     19          1           0        4.133398   -0.171745   -0.425435
     20          1           0        1.793880   -1.867750    0.576164
     21          1           0        3.136118   -1.306800    1.566785
     22          1           0        4.744314   -2.610909    0.135115
     23          1           0        3.394449   -3.175046   -0.861135
     24          1           0        3.513033   -3.676036    0.834228
     25          6           0        2.259295    0.806826   -0.005494
     26          6           0        2.463932    1.989683   -0.952571
     27          6           0        1.650702    3.219293   -0.546969
     28          1           0        1.191596    0.548655    0.022132
     29          1           0        2.534013    1.109890    1.014127
     30          1           0        2.188877    1.683710   -1.970088
     31          1           0        3.531115    2.244660   -0.979467
     32          1           0        1.930545    3.551956    0.457832
     33          1           0        0.580680    2.987819   -0.538418
     34          1           0        1.811962    4.052946   -1.237531
 ---------------------------------------------------------------------

 SCF Done:  E(RHF) =  -669.533904248     A.U. after   15 cycles
 E2 =    -0.2095437105D+01 EUMP2 =    -0.67162934135310D+03

 The electronic state is 1-A.
 Alpha  occ. eigenvalues --  -20.60889 -20.60884 -15.85940 -11.31326 -11.27893
 Alpha  occ. eigenvalues --  -11.27865 -11.27582 -11.26899 -11.26841 -11.21837
 Alpha  occ. eigenvalues --  -11.21599 -11.21460 -11.21441 -11.21385 -11.20929
 Alpha  occ. eigenvalues --   -1.59962  -1.39515  -1.19511  -1.08902  -1.08527
 Alpha  occ. eigenvalues --   -1.04902  -1.03646  -0.96117  -0.95707  -0.87131
 Alpha  occ. eigenvalues --   -0.86287  -0.82542  -0.79737  -0.78372  -0.77582
 Alpha  occ. eigenvalues --   -0.72154  -0.71288  -0.70591  -0.65197  -0.65129
 Alpha  occ. eigenvalues --   -0.64877  -0.62235  -0.61059  -0.59488  -0.57728
 Alpha  occ. eigenvalues --   -0.55450  -0.55341  -0.53378  -0.52974  -0.52787
 Alpha  occ. eigenvalues --   -0.52547  -0.50070  -0.48916  -0.48910  -0.48025
 Alpha  occ. eigenvalues --   -0.46732  -0.45895  -0.45747  -0.44903  -0.43883
 Alpha  occ. eigenvalues --   -0.37376  -0.36407
 Alpha virt. eigenvalues --    0.04901   0.10981   0.16369   0.20910   0.22960
 Alpha virt. eigenvalues --    0.24029   0.26237   0.26297   0.27369   0.28218
 Alpha virt. eigenvalues --    0.28737   0.30517   0.31353   0.31697   0.31977

 Mulliken charges:
               1
     1  C   -0.170977
     2  C   -0.214085
     3  C   -0.175145
     4  C    0.159621
     5  C   -0.171222
     6  C   -0.219060
     7  H    0.228810
     8  H    0.225208
     9  H    0.277179
    10  H    0.276204
    11  H    0.224892
    12  N    0.488184
    13  O   -0.459785
    14  O   -0.460539
    15  C   -0.297853
    16  C   -0.302366
    17  C   -0.475285
    18  H    0.152089
    19  H    0.148707
    20  H    0.155384
    21  H    0.147369
    22  H    0.153628
    23  H    0.158581
    24  H    0.162021
    25  C   -0.305805
    26  C   -0.297397
    27  C   -0.483060
    28  H    0.160441
    29  H    0.141935
    30  H    0.153548
    31  H    0.152018
    32  H    0.148850
    33  H    0.158491
    34  H    0.159416
 Sum of Mulliken charges =  -0.00000

 Dipole moment (field-independent basis, Debye):
    X=              0.8005    Y=              4.7308    Z=              1.6961  Tot=              5.0890
 Quadrupole moment (field-independent basis, Debye-Ang):
   XX=            -98.0713   YY=            -99.2453   ZZ=            -91.3958
   XY=            -11.5097   XZ=             -0.9627   YZ=             -1.7535

 Normal termination of Gaussian 16 at Wed May  5 20:32:54 2021.
