 Gaussian 16, Revision A.03,
 Gaussian 16:  EM64L-G16RevA.03 25-Dec-2016

 -------------
 #p 6-31g* mp2
 -------------

 ------------------------------------------------------
 Input file generated by CHIRIPA (05-May-2021 14:53:14)
 ------------------------------------------------------
 Symbolic Z-matrix:
 Charge =  0 Multiplicity = 1

                         Standard orientation:
 ---------------------------------------------------------------------
 Center     Atomic      Atomic             Coordinates (Angstroms)
 Number     Number       Type             X           Y           Z
 ---------------------------------------------------------------------
      1          6           0       -2.652054    1.216324    0.290565
      2          6           0       -2.287311    2.162844   -0.853572
      3          6           0       -1.702861    3.487293   -0.361591
      4          1           0       -3.373536    1.713430    0.953357
      5          1           0       -1.755625    1.020541    0.895114
      6          1           0       -3.183856    2.355685   -1.456593
      7          1           0       -1.566759    1.663355   -1.513823
      8          1           0       -0.793308    3.313685    0.222512
      9          1           0       -2.419594    4.009949    0.280068
     10          1           0       -1.449206    4.148727   -1.195872
     11          6           0       -3.237584   -0.111977   -0.185354
     12          6           0       -3.602327   -1.058497    0.958782
     13          6           0       -4.186777   -2.382947    0.466802
     14          1           0       -4.134013    0.083805   -0.789903
     15          1           0       -2.516102   -0.609083   -0.848147
     16          1           0       -4.322879   -0.559009    1.619034
     17          1           0       -2.705782   -1.251339    1.561803
     18          1           0       -3.470044   -2.905603   -0.174857
     19          1           0       -5.096330   -2.209339   -0.117301
     20          1           0       -4.440432   -3.044381    1.301083
     21          6           0        3.688961    1.577978    0.592104
     22          6           0        4.291780    0.322030    0.466704
     23          6           0        3.532322   -0.798250    0.116355
     24          6           0        2.166422   -0.625643   -0.102313
     25          6           0        1.536756    0.612538    0.014807
     26          6           0        2.315794    1.718976    0.366154
     27          1           0        4.286532    2.442862    0.864651
     28          1           0        5.357994    0.209558    0.641584
     29          1           0        3.973358   -1.782167    0.012377
     30          1           0        0.471737    0.693345   -0.165808
     31          1           0        1.844950    2.693145    0.462817
     32          7           0        1.352053   -1.804306   -0.473740
     33          8           0        0.150521   -1.625804   -0.661080
     34          8           0        1.930703   -2.884325   -0.570493
 ---------------------------------------------------------------------

 SCF Done:  E(RHF) =  -669.535746552     A.U. after   15 cycles
 E2 =    -0.2093596176D+01 EUMP2 =    -0.67162934272891D+03

 The electronic state is 1-A.
 Alpha  occ. eigenvalues --  -20.60960 -20.60942 -15.85993 -11.31264 -11.27828
 Alpha  occ. eigenvalues --  -11.27792 -11.27554 -11.26830 -11.26805 -11.21817
 Alpha  occ. eigenvalues --  -11.21654 -11.21304 -11.20843 -11.20628 -11.20183
 Alpha  occ. eigenvalues --   -1.60016  -1.39575  -1.19431  -1.08844  -1.08153
 Alpha  occ. eigenvalues --   -1.04823  -1.03270  -0.95747  -0.95687  -0.86766
 Alpha  occ. eigenvalues --   -0.86220  -0.82536  -0.79423  -0.77813  -0.77597
 Alpha  occ. eigenvalues --   -0.72234  -0.71329  -0.70560  -0.65105  -0.65040
 Alpha  occ. eigenvalues --   -0.64629  -0.62167  -0.60591  -0.59199  -0.57305
 Alpha  occ. eigenvalues --   -0.55323  -0.55060  -0.53155  -0.52920  -0.52481
 Alpha  occ. eigenvalues --   -0.52133  -0.49678  -0.48970  -0.48957  -0.47702
 Alpha  occ. eigenvalues --   -0.46489  -0.45390  -0.45171  -0.44966  -0.43479
 Alpha  occ. eigenvalues --   -0.37410  -0.36416
 Alpha virt. eigenvalues --    0.04909   0.11195   0.16434   0.18797   0.23212
 Alpha virt. eigenvalues --    0.24037   0.25925   0.26471   0.27913   0.28407
 Alpha virt. eigenvalues --    0.29523   0.31166   0.31662   0.32083   0.32934

 Mulliken charges:
               1
     1  C   -0.300420
     2  C   -0.306339
     3  C   -0.476530
     4  H    0.149840
     5  H    0.142213
     6  H    0.157483
     7  H    0.152668
     8  H    0.141968
     9  H    0.159725
    10  H    0.161614
    11  C   -0.306444
    12  C   -0.297524
    13  C   -0.478316
    14  H    0.145239
    15  H    0.175732
    16  H    0.145560
    17  H    0.155366
    18  H    0.167601
    19  H    0.150810
    20  H    0.157204
    21  C   -0.170256
    22  C   -0.218924
    23  C   -0.169818
    24  C    0.156384
    25  C   -0.180553
    26  C   -0.225503
    27  H    0.226245
    28  H    0.223749
    29  H    0.275662
    30  H    0.291740
    31  H    0.227788
    32  N    0.493981
    33  O   -0.469224
    34  O   -0.458722
 Sum of Mulliken charges =  -0.00000

 Dipole moment (field-independent basis, Debye):
    X=              2.9072    Y=              3.9710    Z=              1.1913  Tot=              5.0636
 Quadrupole moment (field-independent basis, Debye-Ang):
   XX=            -78.5663   YY=            -99.5675   ZZ=            -96.0041
   XY=              3.8685   XZ=              3.0996   YZ=             -1.5133

 Normal termination of Gaussian 16 at Thu May  6 20:22:53 2021.
