 Gaussian 16, Revision A.03,
 Gaussian 16:  EM64L-G16RevA.03 25-Dec-2016

 -------------
 #p 6-31g* mp2
 -------------

 ------------------------------------------------------
 Input file generated by CHIRIPA (05-May-2021 14:51:14)
 ------------------------------------------------------
 Symbolic Z-matrix:
 Charge =  0 Multiplicity = 1

                         Standard orientation:
 ---------------------------------------------------------------------
 Center     Atomic      Atomic             Coordinates (Angstroms)
 Number     Number       Type             X           Y           Z
 ---------------------------------------------------------------------
      1          6           0        4.649763   -0.049900   -0.084175
      2          6           0        4.810601   -1.541941   -0.377311
      3          6           0        6.200540   -2.068405   -0.018565
      4          1           0        5.411381    0.511213   -0.642775
      5          1           0        4.847468    0.130684    0.981516
      6          1           0        4.611297   -1.719858   -1.441849
      7          1           0        4.048388   -2.099551    0.181903
      8          1           0        6.405671   -1.919860    1.046543
      9          1           0        6.971778   -1.538010   -0.586434
     10          1           0        6.293593   -3.136977   -0.236178
     11          6           0        3.265518    0.491144   -0.437537
     12          6           0        3.104680    1.983185   -0.144401
     13          6           0        1.714740    2.509649   -0.503147
     14          1           0        3.067812    0.310560   -1.503228
     15          1           0        2.503899   -0.069969    0.121063
     16          1           0        3.866892    2.540795   -0.703615
     17          1           0        3.303983    2.161102    0.920136
     18          1           0        0.943502    1.979254    0.064721
     19          1           0        1.509609    2.361104   -1.568256
     20          1           0        1.621688    3.578221   -0.285534
     21          6           0       -4.413305   -0.219408   -0.352169
     22          6           0       -5.851306   -0.634702   -0.039644
     23          6           0       -6.750721   -0.627378   -1.276088
     24          1           0       -4.417090    0.784378   -0.798648
     25          1           0       -3.999940   -0.897666   -1.111439
     26          1           0       -6.261370    0.043291    0.719821
     27          1           0       -5.844082   -1.637538    0.406320
     28          1           0       -6.368027   -1.317515   -2.034939
     29          1           0       -6.787686    0.372864   -1.719656
     30          1           0       -7.774081   -0.927358   -1.029903
     31          6           0       -3.501974   -0.221835    0.873881
     32          6           0       -2.063975    0.193458    0.561357
     33          6           0       -1.164559    0.186133    1.797801
     34          1           0       -3.915340    0.456422    1.633151
     35          1           0       -3.498190   -1.225622    1.320361
     36          1           0       -2.071198    1.196293    0.115393
     37          1           0       -1.653909   -0.484535   -0.198109
     38          1           0       -1.127594   -0.814108    2.241368
     39          1           0       -1.547254    0.876272    2.556651
     40          1           0       -0.141200    0.486113    1.551615
 ---------------------------------------------------------------------

 SCF Done:  E(RHF) =  -470.733269509     A.U. after   11 cycles
 E2 =    -0.1582635069D+01 EUMP2 =    -0.47231590457799D+03

 The electronic state is 1-A.
 Alpha  occ. eigenvalues --  -11.21610 -11.21600 -11.21597 -11.21595 -11.21409
 Alpha  occ. eigenvalues --  -11.21405 -11.21348 -11.21345 -11.21113 -11.21068
 Alpha  occ. eigenvalues --  -11.21067 -11.21035  -1.08441  -1.08422  -1.03560
 Alpha  occ. eigenvalues --   -1.03507  -0.96022  -0.95948  -0.87034  -0.86968
 Alpha  occ. eigenvalues --   -0.79602  -0.79584  -0.78253  -0.78232  -0.65072
 Alpha  occ. eigenvalues --   -0.65059  -0.60989  -0.60917  -0.59446  -0.59273
 Alpha  occ. eigenvalues --   -0.57726  -0.57476  -0.55317  -0.55216  -0.52738
 Alpha  occ. eigenvalues --   -0.52663  -0.52484  -0.52299  -0.49939  -0.49888
 Alpha  occ. eigenvalues --   -0.47964  -0.47856  -0.46638  -0.46594  -0.45796
 Alpha  occ. eigenvalues --   -0.45768  -0.45712  -0.45696  -0.43794  -0.43766
 Alpha virt. eigenvalues --    0.20747   0.23036   0.23489   0.25000   0.26261
 Alpha virt. eigenvalues --    0.26580   0.27089   0.27478   0.27832   0.28985
 Alpha virt. eigenvalues --    0.30635   0.31360   0.31629   0.31762   0.32072

 Mulliken charges:
               1
     1  C   -0.298240
     2  C   -0.299695
     3  C   -0.475713
     4  H    0.149733
     5  H    0.149647
     6  H    0.151865
     7  H    0.152046
     8  H    0.155242
     9  H    0.155164
    10  H    0.160216
    11  C   -0.300165
    12  C   -0.299337
    13  C   -0.483360
    14  H    0.149675
    15  H    0.150656
    16  H    0.152052
    17  H    0.151801
    18  H    0.162852
    19  H    0.155346
    20  H    0.160163
    21  C   -0.298335
    22  C   -0.299674
    23  C   -0.475718
    24  H    0.149879
    25  H    0.149612
    26  H    0.151931
    27  H    0.151905
    28  H    0.155195
    29  H    0.155236
    30  H    0.160241
    31  C   -0.298374
    32  C   -0.300306
    33  C   -0.481932
    34  H    0.149576
    35  H    0.149637
    36  H    0.153442
    37  H    0.152413
    38  H    0.155446
    39  H    0.155670
    40  H    0.164207
 Sum of Mulliken charges =  -0.00000

 Dipole moment (field-independent basis, Debye):
    X=             -0.0160    Y=             -0.0009    Z=             -0.0034  Tot=              0.0164
 Quadrupole moment (field-independent basis, Debye-Ang):
   XX=            -86.1431   YY=            -84.0733   ZZ=            -84.5461
   XY=              0.2709   XZ=             -1.1676   YZ=              0.0552

 Normal termination of Gaussian 16 at Wed May  5 16:54:03 2021.
