 Gaussian 16, Revision A.03,
 Gaussian 16:  EM64L-G16RevA.03 25-Dec-2016

 -------------
 #p 6-31g* mp2
 -------------

 ------------------------------------------------------
 Input file generated by CHIRIPA (05-May-2021 14:51:10)
 ------------------------------------------------------
 Symbolic Z-matrix:
 Charge =  0 Multiplicity = 1

                         Standard orientation:
 ---------------------------------------------------------------------
 Center     Atomic      Atomic             Coordinates (Angstroms)
 Number     Number       Type             X           Y           Z
 ---------------------------------------------------------------------
      1          6           0        4.389060    0.309465   -0.260338
      2          6           0        5.827316    0.124673    0.224694
      3          6           0        6.809112    1.075460   -0.460781
      4          1           0        4.352767    0.155118   -1.347446
      5          1           0        4.079897    1.348645   -0.081682
      6          1           0        6.133200   -0.914209    0.046441
      7          1           0        5.860156    0.279289    1.310803
      8          1           0        6.531282    2.117564   -0.272551
      9          1           0        6.805878    0.917285   -1.544096
     10          1           0        7.831288    0.926246   -0.099187
     11          6           0        3.395795   -0.633979    0.415729
     12          6           0        1.957538   -0.449188   -0.069303
     13          6           0        0.975743   -1.399974    0.616172
     14          1           0        3.704957   -1.673159    0.237073
     15          1           0        3.432088   -0.479633    1.502837
     16          1           0        1.924698   -0.603803   -1.155412
     17          1           0        1.651654    0.589695    0.108949
     18          1           0        0.978976   -1.241799    1.699487
     19          1           0        1.253572   -2.442078    0.427942
     20          1           0       -0.046434   -1.250760    0.254578
     21          6           0       -3.574623    0.855191   -0.125398
     22          6           0       -4.550032    1.992066    0.181319
     23          6           0       -3.899470    3.372158    0.081785
     24          1           0       -2.724829    0.912454    0.568517
     25          1           0       -3.163952    0.996052   -1.134805
     26          1           0       -4.959790    1.848345    1.189317
     27          1           0       -5.397696    1.931975   -0.513282
     28          1           0       -3.506188    3.540890   -0.925916
     29          1           0       -3.065793    3.456783    0.786357
     30          1           0       -4.614557    4.170113    0.304899
     31          6           0       -4.210232   -0.530676   -0.029993
     32          6           0       -3.234822   -1.667552   -0.336710
     33          6           0       -3.885385   -3.047644   -0.237175
     34          1           0       -4.620903   -0.671538    0.979415
     35          1           0       -5.060025   -0.587939   -0.723908
     36          1           0       -2.387158   -1.607461    0.357891
     37          1           0       -2.825066   -1.523830   -1.344707
     38          1           0       -4.719062   -3.132270   -0.941748
     39          1           0       -4.278667   -3.216375    0.770524
     40          1           0       -3.170298   -3.845598   -0.460290
 ---------------------------------------------------------------------

 SCF Done:  E(RHF) =  -470.733293573     A.U. after   11 cycles
 E2 =    -0.1582447740D+01 EUMP2 =    -0.47231574131334D+03

 The electronic state is 1-A.
 Alpha  occ. eigenvalues --  -11.21608 -11.21592 -11.21591 -11.21575 -11.21411
 Alpha  occ. eigenvalues --  -11.21388 -11.21351 -11.21328 -11.21077 -11.21063
 Alpha  occ. eigenvalues --  -11.21062 -11.21011  -1.08439  -1.08409  -1.03542
 Alpha  occ. eigenvalues --   -1.03500  -0.95983  -0.95956  -0.87016  -0.86961
 Alpha  occ. eigenvalues --   -0.79650  -0.79529  -0.78258  -0.78220  -0.65072
 Alpha  occ. eigenvalues --   -0.65041  -0.60946  -0.60905  -0.59469  -0.59222
 Alpha  occ. eigenvalues --   -0.57630  -0.57529  -0.55266  -0.55245  -0.52760
 Alpha  occ. eigenvalues --   -0.52619  -0.52419  -0.52353  -0.49919  -0.49901
 Alpha  occ. eigenvalues --   -0.48016  -0.47792  -0.46629  -0.46604  -0.45796
 Alpha  occ. eigenvalues --   -0.45759  -0.45716  -0.45692  -0.43806  -0.43680
 Alpha virt. eigenvalues --    0.22056   0.23054   0.23745   0.24536   0.26078
 Alpha virt. eigenvalues --    0.26674   0.26873   0.27527   0.27985   0.28850
 Alpha virt. eigenvalues --    0.30660   0.31425   0.31528   0.31936   0.31973

 Mulliken charges:
               1
     1  C   -0.298199
     2  C   -0.299604
     3  C   -0.475689
     4  H    0.149608
     5  H    0.149508
     6  H    0.151895
     7  H    0.151887
     8  H    0.155178
     9  H    0.155160
    10  H    0.160206
    11  C   -0.298504
    12  C   -0.298813
    13  C   -0.483924
    14  H    0.149444
    15  H    0.149462
    16  H    0.151895
    17  H    0.151852
    18  H    0.154169
    19  H    0.154949
    20  H    0.168769
    21  C   -0.299022
    22  C   -0.299604
    23  C   -0.475707
    24  H    0.149881
    25  H    0.149495
    26  H    0.151980
    27  H    0.152044
    28  H    0.155233
    29  H    0.155117
    30  H    0.160271
    31  C   -0.297630
    32  C   -0.306957
    33  C   -0.475163
    34  H    0.149513
    35  H    0.149674
    36  H    0.159236
    37  H    0.151543
    38  H    0.155052
    39  H    0.155200
    40  H    0.160595
 Sum of Mulliken charges =  -0.00000

 Dipole moment (field-independent basis, Debye):
    X=             -0.0251    Y=             -0.0042    Z=             -0.0034  Tot=              0.0256
 Quadrupole moment (field-independent basis, Debye-Ang):
   XX=            -85.5460   YY=            -85.8188   ZZ=            -83.4185
   XY=             -0.9597   XZ=              0.4508   YZ=              0.7661

 Normal termination of Gaussian 16 at Thu May  6 03:48:13 2021.
