 Gaussian 16, Revision A.03,
 Gaussian 16:  EM64L-G16RevA.03 25-Dec-2016

 -------------
 #p 6-31g* mp2
 -------------

 ------------------------------------------------------
 Input file generated by CHIRIPA (05-May-2021 14:51:09)
 ------------------------------------------------------
 Symbolic Z-matrix:
 Charge =  0 Multiplicity = 1

                         Standard orientation:
 ---------------------------------------------------------------------
 Center     Atomic      Atomic             Coordinates (Angstroms)
 Number     Number       Type             X           Y           Z
 ---------------------------------------------------------------------
      1          6           0        3.414199   -0.337791    0.120876
      2          6           0        2.941126   -1.486227   -0.770910
      3          6           0        3.373873   -2.856728   -0.249133
      4          1           0        4.509302   -0.371894    0.201681
      5          1           0        3.021106   -0.485421    1.136297
      6          1           0        3.333852   -1.335742   -1.784683
      7          1           0        1.847036   -1.449272   -0.849756
      8          1           0        2.969921   -3.032483    0.753131
      9          1           0        4.465185   -2.918307   -0.187108
     10          1           0        3.025111   -3.663189   -0.901702
     11          6           0        2.989342    1.038672   -0.387627
     12          6           0        3.462415    2.187108    0.504159
     13          6           0        3.029667    3.557609   -0.017617
     14          1           0        3.382434    1.186302   -1.403047
     15          1           0        1.894238    1.072774   -0.468432
     16          1           0        4.556505    2.150153    0.583006
     17          1           0        3.069689    2.036622    1.517933
     18          1           0        1.938355    3.619188   -0.079643
     19          1           0        3.433620    3.733363   -1.019881
     20          1           0        3.378430    4.364069    0.634952
     21          6           0       -2.582176   -0.483985    0.559640
     22          6           0       -1.691190   -1.594984    0.003034
     23          6           0       -0.455689   -1.850474    0.866781
     24          1           0       -1.994770    0.440517    0.644459
     25          1           0       -2.894846   -0.750262    1.578821
     26          1           0       -1.381420   -1.327336   -1.015309
     27          1           0       -2.280837   -2.516900   -0.080649
     28          1           0       -0.748092   -2.142121    1.880705
     29          1           0        0.156433   -0.945798    0.940735
     30          1           0        0.167126   -2.648417    0.450548
     31          6           0       -3.821364   -0.216895   -0.292890
     32          6           0       -4.712352    0.894104    0.263716
     33          6           0       -5.947852    1.149593   -0.600030
     34          1           0       -3.508694    0.049381   -1.312069
     35          1           0       -4.408771   -1.141397   -0.377709
     36          1           0       -4.122704    1.816019    0.347400
     37          1           0       -5.022120    0.626455    1.282059
     38          1           0       -6.559974    0.244918   -0.673985
     39          1           0       -5.655448    1.441240   -1.613954
     40          1           0       -6.570666    1.947537   -0.183798
 ---------------------------------------------------------------------

 SCF Done:  E(RHF) =  -470.732454431     A.U. after   11 cycles
 E2 =    -0.1583820809D+01 EUMP2 =    -0.47231627524055D+03

 The electronic state is 1-A.
 Alpha  occ. eigenvalues --  -11.21677 -11.21633 -11.21606 -11.21458 -11.21453
 Alpha  occ. eigenvalues --  -11.21395 -11.21394 -11.21311 -11.21119 -11.21094
 Alpha  occ. eigenvalues --  -11.21085 -11.21015  -1.08493  -1.08394  -1.03619
 Alpha  occ. eigenvalues --   -1.03465  -0.96053  -0.95944  -0.87067  -0.86964
 Alpha  occ. eigenvalues --   -0.79670  -0.79543  -0.78294  -0.78216  -0.65257
 Alpha  occ. eigenvalues --   -0.64945  -0.61202  -0.60774  -0.59408  -0.59266
 Alpha  occ. eigenvalues --   -0.57685  -0.57528  -0.55318  -0.55256  -0.52700
 Alpha  occ. eigenvalues --   -0.52642  -0.52453  -0.52370  -0.50101  -0.49786
 Alpha  occ. eigenvalues --   -0.47965  -0.47861  -0.46730  -0.46534  -0.45868
 Alpha  occ. eigenvalues --   -0.45773  -0.45699  -0.45630  -0.43823  -0.43744
 Alpha virt. eigenvalues --    0.20311   0.23086   0.23587   0.24612   0.25903
 Alpha virt. eigenvalues --    0.26691   0.26900   0.27621   0.27805   0.29498
 Alpha virt. eigenvalues --    0.31081   0.31289   0.31686   0.31901   0.32338

 Mulliken charges:
               1
     1  C   -0.299365
     2  C   -0.305076
     3  C   -0.477505
     4  H    0.149762
     5  H    0.150417
     6  H    0.150913
     7  H    0.160652
     8  H    0.156560
     9  H    0.155175
    10  H    0.159211
    11  C   -0.299549
    12  C   -0.299586
    13  C   -0.475606
    14  H    0.149787
    15  H    0.148947
    16  H    0.152191
    17  H    0.151894
    18  H    0.154697
    19  H    0.155229
    20  H    0.160360
    21  C   -0.298340
    22  C   -0.301851
    23  C   -0.483424
    24  H    0.149226
    25  H    0.149871
    26  H    0.152719
    27  H    0.152703
    28  H    0.156006
    29  H    0.157852
    30  H    0.165556
    31  C   -0.298350
    32  C   -0.299690
    33  C   -0.475748
    34  H    0.149695
    35  H    0.149837
    36  H    0.151940
    37  H    0.151987
    38  H    0.155239
    39  H    0.155288
    40  H    0.160376
 Sum of Mulliken charges =  -0.00000

 Dipole moment (field-independent basis, Debye):
    X=             -0.0340    Y=             -0.0175    Z=              0.0112  Tot=              0.0399
 Quadrupole moment (field-independent basis, Debye-Ang):
   XX=            -84.7428   YY=            -85.5175   ZZ=            -84.5648
   XY=              1.0131   XZ=             -1.2438   YZ=             -0.0287

 Normal termination of Gaussian 16 at Wed May  5 15:07:39 2021.
