 Gaussian 16, Revision A.03,
 Gaussian 16:  EM64L-G16RevA.03 25-Dec-2016

 -------------
 #p 6-31g* mp2
 -------------

 ------------------------------------------------------
 Input file generated by CHIRIPA (05-May-2021 14:55:19)
 ------------------------------------------------------
 Symbolic Z-matrix:
 Charge =  0 Multiplicity = 1

                         Standard orientation:
 ---------------------------------------------------------------------
 Center     Atomic      Atomic             Coordinates (Angstroms)
 Number     Number       Type             X           Y           Z
 ---------------------------------------------------------------------
      1          6           0        1.679508    2.807981    0.291779
      2          6           0        1.079831    2.149111   -0.786552
      3          6           0        1.426866    0.830353   -1.094762
      4          6           0        2.381625    0.197793   -0.300033
      5          6           0        2.996871    0.827406    0.780870
      6          6           0        2.634431    2.146192    1.070675
      7          1           0        1.403939    3.832435    0.524055
      8          1           0        0.337916    2.660586   -1.393183
      9          1           0        0.978298    0.296599   -1.923804
     10          1           0        3.733188    0.291427    1.367369
     11          1           0        3.101792    2.655398    1.908726
     12          7           0        2.757171   -1.198331   -0.616579
     13          8           0        3.601068   -1.733569    0.098960
     14          8           0        2.200516   -1.730940   -1.574232
     15          6           0       -2.431534   -0.685486    0.841957
     16          6           0       -1.305673   -1.586903    0.334149
     17          6           0       -0.237576   -1.853382    1.395257
     18          1           0       -2.004309    0.267914    1.181740
     19          1           0       -2.895974   -1.151239    1.722164
     20          1           0       -0.844402   -1.120252   -0.545669
     21          1           0       -1.735650   -2.538196   -0.004642
     22          1           0       -0.677827   -2.340987    2.271054
     23          1           0        0.218486   -0.914986    1.726953
     24          1           0        0.557606   -2.499817    1.010981
     25          6           0       -3.506978   -0.409917   -0.207429
     26          6           0       -4.632838    0.491501    0.300379
     27          6           0       -5.700936    0.757979   -0.760729
     28          1           0       -3.042538    0.055836   -1.087636
     29          1           0       -3.934203   -1.363317   -0.547211
     30          1           0       -4.202861    1.442793    0.639170
     31          1           0       -5.094110    0.024849    1.180198
     32          1           0       -6.156997   -0.180417   -1.092425
     33          1           0       -5.260684    1.245584   -1.636526
     34          1           0       -6.496118    1.404415   -0.376452
 ---------------------------------------------------------------------

 SCF Done:  E(RHF) =  -669.535304118     A.U. after   15 cycles
 E2 =    -0.2094371740D+01 EUMP2 =    -0.67162967585820D+03

 The electronic state is 1-A.
 Alpha  occ. eigenvalues --  -20.60862 -20.60853 -15.85887 -11.31252 -11.27833
 Alpha  occ. eigenvalues --  -11.27823 -11.27580 -11.26863 -11.26848 -11.21763
 Alpha  occ. eigenvalues --  -11.21480 -11.21360 -11.21301 -11.21248 -11.20705
 Alpha  occ. eigenvalues --   -1.59925  -1.39478  -1.19446  -1.08836  -1.08430
 Alpha  occ. eigenvalues --   -1.04851  -1.03482  -0.95944  -0.95670  -0.86963
 Alpha  occ. eigenvalues --   -0.86244  -0.82503  -0.79561  -0.78235  -0.77545
 Alpha  occ. eigenvalues --   -0.72117  -0.71273  -0.70553  -0.65105  -0.65083
 Alpha  occ. eigenvalues --   -0.64841  -0.62205  -0.60906  -0.59295  -0.57520
 Alpha  occ. eigenvalues --   -0.55377  -0.55277  -0.53132  -0.52941  -0.52598
 Alpha  occ. eigenvalues --   -0.52330  -0.49902  -0.48887  -0.48875  -0.47851
 Alpha  occ. eigenvalues --   -0.46628  -0.45772  -0.45724  -0.44840  -0.43732
 Alpha  occ. eigenvalues --   -0.37385  -0.36427
 Alpha virt. eigenvalues --    0.04944   0.11118   0.16451   0.21005   0.22840
 Alpha virt. eigenvalues --    0.24204   0.25882   0.27022   0.27558   0.28033
 Alpha virt. eigenvalues --    0.28789   0.30406   0.31412   0.31614   0.32219

 Mulliken charges:
               1
     1  C   -0.171047
     2  C   -0.219352
     3  C   -0.171411
     4  C    0.162790
     5  C   -0.171887
     6  C   -0.218545
     7  H    0.225993
     8  H    0.223767
     9  H    0.275780
    10  H    0.276258
    11  H    0.223967
    12  N    0.489542
    13  O   -0.459534
    14  O   -0.460453
    15  C   -0.298702
    16  C   -0.298470
    17  C   -0.488918
    18  H    0.146374
    19  H    0.149862
    20  H    0.150447
    21  H    0.155332
    22  H    0.155243
    23  H    0.152241
    24  H    0.174271
    25  C   -0.296757
    26  C   -0.299153
    27  C   -0.475351
    28  H    0.143883
    29  H    0.152112
    30  H    0.148636
    31  H    0.153192
    32  H    0.156838
    33  H    0.153049
    34  H    0.160001
 Sum of Mulliken charges =  -0.00000

 Dipole moment (field-independent basis, Debye):
    X=             -1.2119    Y=              4.8331    Z=              1.1150  Tot=              5.1060
 Quadrupole moment (field-independent basis, Debye-Ang):
   XX=            -99.9407   YY=            -92.5653   ZZ=            -93.2772
   XY=             12.3750   XZ=              5.2562   YZ=             -1.2985

 Normal termination of Gaussian 16 at Thu May  6 02:55:09 2021.
