 Gaussian 16, Revision A.03,
 Gaussian 16:  EM64L-G16RevA.03 25-Dec-2016

 -------------
 #p 6-31g* mp2
 -------------

 ------------------------------------------------------
 Input file generated by CHIRIPA (05-May-2021 14:57:27)
 ------------------------------------------------------
 Symbolic Z-matrix:
 Charge =  0 Multiplicity = 1

                         Standard orientation:
 ---------------------------------------------------------------------
 Center     Atomic      Atomic             Coordinates (Angstroms)
 Number     Number       Type             X           Y           Z
 ---------------------------------------------------------------------
      1          6           0        4.304979    1.768621   -0.735309
      2          6           0        3.702979    0.833954   -1.584139
      3          6           0        2.937372   -0.211712   -1.059756
      4          6           0        2.793956   -0.292916    0.324487
      5          6           0        3.381205    0.622749    1.196259
      6          6           0        4.142457    1.660227    0.649740
      7          1           0        4.898029    2.577739   -1.151260
      8          1           0        3.827483    0.915656   -2.660182
      9          1           0        2.460259   -0.949036   -1.693897
     10          1           0        3.239055    0.515194    2.264736
     11          1           0        4.608819    2.384662    1.311363
     12          7           0        1.985748   -1.395581    0.891346
     13          8           0        1.874628   -1.445077    2.114391
     14          8           0        1.478698   -2.189474    0.101871
     15          6           0       -4.010332    2.221328    0.629140
     16          6           0       -4.530047    0.972451    0.985122
     17          6           0       -3.938005   -0.203323    0.514389
     18          6           0       -2.822442   -0.092818   -0.314223
     19          6           0       -2.281291    1.136707   -0.686666
     20          6           0       -2.889588    2.299333   -0.204148
     21          1           0       -4.476559    3.129591    0.999394
     22          1           0       -5.400333    0.908839    1.632115
     23          1           0       -4.319751   -1.183188    0.774298
     24          1           0       -1.412711    1.168165   -1.333194
     25          1           0       -2.483811    3.267861   -0.482252
     26          7           0       -2.187069   -1.330598   -0.818805
     27          8           0       -1.205130   -1.206265   -1.547485
     28          8           0       -2.683032   -2.401664   -0.476061
 ---------------------------------------------------------------------

 SCF Done:  E(RHF) =  -868.336318788     A.U. after   16 cycles
 E2 =    -0.2600676319D+01 EUMP2 =    -0.87093699510651D+03

 The electronic state is 1-A.
 Alpha  occ. eigenvalues --  -20.60086 -20.60073 -20.60064 -20.59942 -15.85133
 Alpha  occ. eigenvalues --  -15.85056 -11.30756 -11.30695 -11.27395 -11.27353
 Alpha  occ. eigenvalues --  -11.27323 -11.27222 -11.27152 -11.27141 -11.26463
 Alpha  occ. eigenvalues --  -11.26423 -11.26408 -11.26358  -1.59120  -1.59090
 Alpha  occ. eigenvalues --   -1.38685  -1.38620  -1.18950  -1.18911  -1.08297
 Alpha  occ. eigenvalues --   -1.08264  -1.04399  -1.04345  -0.95100  -0.95035
 Alpha  occ. eigenvalues --   -0.85787  -0.85727  -0.81945  -0.81851  -0.76949
 Alpha  occ. eigenvalues --   -0.76844  -0.71420  -0.71229  -0.70589  -0.70260
 Alpha  occ. eigenvalues --   -0.70070  -0.70008  -0.64611  -0.64546  -0.64413
 Alpha  occ. eigenvalues --   -0.64349  -0.61752  -0.61667  -0.54897  -0.54858
 Alpha  occ. eigenvalues --   -0.52710  -0.52679  -0.52502  -0.52431  -0.48156
 Alpha  occ. eigenvalues --   -0.48092  -0.48054  -0.47992  -0.44325  -0.43636
 Alpha  occ. eigenvalues --   -0.36954  -0.36918  -0.36012  -0.35970
 Alpha virt. eigenvalues --    0.05506   0.05785   0.11632   0.11682   0.16971
 Alpha virt. eigenvalues --    0.17188   0.21682   0.21819   0.27576   0.27696
 Alpha virt. eigenvalues --    0.28542   0.28810   0.31139   0.31377   0.32756

 Mulliken charges:
               1
     1  C   -0.172448
     2  C   -0.220912
     3  C   -0.170857
     4  C    0.156493
     5  C   -0.172561
     6  C   -0.219726
     7  H    0.222922
     8  H    0.222645
     9  H    0.286044
    10  H    0.273938
    11  H    0.220644
    12  N    0.484944
    13  O   -0.467698
    14  O   -0.443616
    15  C   -0.171613
    16  C   -0.218172
    17  C   -0.169746
    18  C    0.161093
    19  C   -0.171832
    20  C   -0.218230
    21  H    0.223564
    22  H    0.222679
    23  H    0.276932
    24  H    0.271269
    25  H    0.220056
    26  N    0.490519
    27  O   -0.460244
    28  O   -0.456087
 Sum of Mulliken charges =  -0.00000

 Dipole moment (field-independent basis, Debye):
    X=              0.4841    Y=              7.8776    Z=             -0.3318  Tot=              7.8994
 Quadrupole moment (field-independent basis, Debye-Ang):
   XX=            -75.8022   YY=           -106.8573   ZZ=           -102.7829
   XY=              0.3876   XZ=            -10.5228   YZ=              0.8137

 Normal termination of Gaussian 16 at Fri May  7 11:16:46 2021.
