 Gaussian 16, Revision A.03,
 Gaussian 16:  EM64L-G16RevA.03 25-Dec-2016

 -------------
 #p 6-31g* mp2
 -------------

 ------------------------------------------------------
 Input file generated by CHIRIPA (05-May-2021 14:57:23)
 ------------------------------------------------------
 Symbolic Z-matrix:
 Charge =  0 Multiplicity = 1

                         Standard orientation:
 ---------------------------------------------------------------------
 Center     Atomic      Atomic             Coordinates (Angstroms)
 Number     Number       Type             X           Y           Z
 ---------------------------------------------------------------------
      1          6           0       -3.164199    2.383516   -0.672434
      2          6           0       -4.460198    2.131572   -0.210448
      3          6           0       -4.858917    0.830798    0.111359
      4          6           0       -3.931756   -0.198920   -0.041427
      5          6           0       -2.633438    0.020115   -0.499340
      6          6           0       -2.256555    1.328843   -0.815154
      7          1           0       -2.862946    3.397078   -0.920094
      8          1           0       -5.167199    2.948695   -0.098630
      9          1           0       -5.855987    0.607530    0.471109
     10          1           0       -1.950935   -0.814977   -0.600484
     11          1           0       -1.249410    1.521548   -1.173719
     12          7           0       -4.342303   -1.580201    0.296084
     13          8           0       -3.506669   -2.470040    0.152766
     14          8           0       -5.491949   -1.746855    0.697551
     15          6           0        1.387323    0.315274    0.433497
     16          6           0        2.305340    1.092745    1.147154
     17          6           0        3.679968    0.910786    0.968732
     18          6           0        4.103537   -0.061989    0.064526
     19          6           0        3.213664   -0.852336   -0.661262
     20          6           0        1.843611   -0.653077   -0.466845
     21          1           0        0.321255    0.463344    0.578312
     22          1           0        1.953851    1.845518    1.847035
     23          1           0        4.412522    1.498794    1.508203
     24          1           0        3.594296   -1.594959   -1.351948
     25          1           0        1.132957   -1.258326   -1.022446
     26          7           0        5.556374   -0.263779   -0.132827
     27          8           0        5.903998   -1.127362   -0.935335
     28          8           0        6.319973    0.445464    0.518732
 ---------------------------------------------------------------------

 SCF Done:  E(RHF) =  -868.336921487     A.U. after   16 cycles
 E2 =    -0.2600783313D+01 EUMP2 =    -0.87093770480023D+03

 The electronic state is 1-A.
 Alpha  occ. eigenvalues --  -20.61592 -20.61578 -20.61065 -20.61060 -15.86649
 Alpha  occ. eigenvalues --  -15.86122 -11.32177 -11.31599 -11.28866 -11.28702
 Alpha  occ. eigenvalues --  -11.28474 -11.28169 -11.28163 -11.27960 -11.27841
 Alpha  occ. eigenvalues --  -11.27716 -11.27267 -11.27225  -1.60659  -1.60138
 Alpha  occ. eigenvalues --   -1.40210  -1.39688  -1.20361  -1.19786  -1.09704
 Alpha  occ. eigenvalues --   -1.09180  -1.05806  -1.05199  -0.96520  -0.95992
 Alpha  occ. eigenvalues --   -0.87169  -0.86606  -0.83378  -0.82804  -0.78404
 Alpha  occ. eigenvalues --   -0.77827  -0.72860  -0.72339  -0.71987  -0.71464
 Alpha  occ. eigenvalues --   -0.71462  -0.70923  -0.66009  -0.65783  -0.65446
 Alpha  occ. eigenvalues --   -0.65226  -0.63140  -0.62532  -0.56252  -0.55768
 Alpha  occ. eigenvalues --   -0.54054  -0.53887  -0.53502  -0.53294  -0.49631
 Alpha  occ. eigenvalues --   -0.49608  -0.49108  -0.49085  -0.45581  -0.45068
 Alpha  occ. eigenvalues --   -0.38308  -0.37802  -0.37401  -0.36796
 Alpha virt. eigenvalues --    0.04109   0.04669   0.10241   0.10827   0.15382
 Alpha virt. eigenvalues --    0.16053   0.18625   0.21880   0.24723   0.26822
 Alpha virt. eigenvalues --    0.27615   0.29503   0.29859   0.31030   0.31467

 Mulliken charges:
               1
     1  C   -0.171140
     2  C   -0.217958
     3  C   -0.169280
     4  C    0.159769
     5  C   -0.175753
     6  C   -0.225307
     7  H    0.229246
     8  H    0.227408
     9  H    0.279070
    10  H    0.271147
    11  H    0.224895
    12  N    0.488068
    13  O   -0.460600
    14  O   -0.456615
    15  C   -0.179831
    16  C   -0.219768
    17  C   -0.170305
    18  C    0.159138
    19  C   -0.169694
    20  C   -0.221377
    21  H    0.226861
    22  H    0.224390
    23  H    0.276856
    24  H    0.278016
    25  H    0.223002
    26  N    0.487911
    27  O   -0.458742
    28  O   -0.459409
 Sum of Mulliken charges =  -0.00000

 Dipole moment (field-independent basis, Debye):
    X=             -3.8409    Y=              5.6305    Z=             -0.4683  Tot=              6.8319
 Quadrupole moment (field-independent basis, Debye-Ang):
   XX=           -152.3589   YY=           -104.2501   ZZ=           -103.3121
   XY=            -17.6961   XZ=              6.5944   YZ=              3.2880

 Normal termination of Gaussian 16 at Thu May  6 00:14:53 2021.
