 Gaussian 16, Revision A.03,
 Gaussian 16:  EM64L-G16RevA.03 25-Dec-2016

 -------------
 #p 6-31g* mp2
 -------------

 ------------------------------------------------------
 Input file generated by CHIRIPA (05-May-2021 14:55:23)
 ------------------------------------------------------
 Symbolic Z-matrix:
 Charge =  0 Multiplicity = 1

                         Standard orientation:
 ---------------------------------------------------------------------
 Center     Atomic      Atomic             Coordinates (Angstroms)
 Number     Number       Type             X           Y           Z
 ---------------------------------------------------------------------
      1          6           0       -3.144129   -2.366558   -0.210249
      2          6           0       -2.189298   -1.379711   -0.476615
      3          6           0       -2.530497   -0.025519   -0.411065
      4          6           0       -3.841637    0.307648   -0.074612
      5          6           0       -4.815493   -0.652314    0.196254
      6          6           0       -4.451874   -2.000355    0.124745
      7          1           0       -2.870370   -3.416138   -0.263484
      8          1           0       -1.172928   -1.661178   -0.737025
      9          1           0       -1.811181    0.758987   -0.612444
     10          1           0       -5.820668   -0.340850    0.453220
     11          1           0       -5.195493   -2.764602    0.332115
     12          7           0       -4.214716    1.738014   -0.002063
     13          8           0       -5.376581    2.005461    0.296568
     14          8           0       -3.338207    2.564605   -0.245203
     15          6           0        5.498664   -0.097330   -0.273518
     16          6           0        6.570218    0.798055    0.349414
     17          6           0        7.884998    0.776886   -0.430776
     18          1           0        5.877244   -1.127160   -0.328957
     19          1           0        5.317368    0.225166   -1.308179
     20          1           0        6.748445    0.474841    1.383040
     21          1           0        6.188970    1.825836    0.403552
     22          1           0        7.728576    1.119811   -1.458655
     23          1           0        8.291231   -0.238861   -0.473602
     24          1           0        8.636873    1.423742    0.031960
     25          6           0        4.178517   -0.086749    0.495134
     26          6           0        3.106963   -0.982134   -0.127798
     27          6           0        1.792182   -0.960965    0.652392
     28          1           0        4.359813   -0.409245    1.529794
     29          1           0        3.799936    0.943081    0.550573
     30          1           0        3.488211   -2.009916   -0.181936
     31          1           0        2.928735   -0.658920   -1.161424
     32          1           0        1.385951    0.054782    0.695218
     33          1           0        1.948605   -1.303890    1.680271
     34          1           0        1.040309   -1.607821    0.189656
 ---------------------------------------------------------------------

 SCF Done:  E(RHF) =  -669.535439234     A.U. after   15 cycles
 E2 =    -0.2090804377D+01 EUMP2 =    -0.67162624361170D+03

 The electronic state is 1-A.
 Alpha  occ. eigenvalues --  -20.60731 -20.60725 -15.85784 -11.31138 -11.27709
 Alpha  occ. eigenvalues --  -11.27698 -11.27447 -11.26725 -11.26688 -11.22225
 Alpha  occ. eigenvalues --  -11.21926 -11.21840 -11.21811 -11.21694 -11.21261
 Alpha  occ. eigenvalues --   -1.59806  -1.39360  -1.19309  -1.08846  -1.08708
 Alpha  occ. eigenvalues --   -1.04710  -1.03987  -0.96450  -0.95544  -0.87473
 Alpha  occ. eigenvalues --   -0.86110  -0.82376  -0.80052  -0.78624  -0.77425
 Alpha  occ. eigenvalues --   -0.72003  -0.71129  -0.70421  -0.65470  -0.64961
 Alpha  occ. eigenvalues --   -0.64746  -0.62103  -0.61370  -0.59839  -0.58048
 Alpha  occ. eigenvalues --   -0.55720  -0.55219  -0.53326  -0.53027  -0.52919
 Alpha  occ. eigenvalues --   -0.52599  -0.50373  -0.48761  -0.48758  -0.48362
 Alpha  occ. eigenvalues --   -0.47068  -0.46175  -0.46076  -0.44768  -0.44233
 Alpha  occ. eigenvalues --   -0.37292  -0.36304
 Alpha virt. eigenvalues --    0.05105   0.11310   0.16568   0.20122   0.22653
 Alpha virt. eigenvalues --    0.23840   0.26054   0.26203   0.26872   0.27871
 Alpha virt. eigenvalues --    0.29161   0.29400   0.31113   0.31617   0.32198

 Mulliken charges:
               1
     1  C   -0.171973
     2  C   -0.220897
     3  C   -0.172622
     4  C    0.158613
     5  C   -0.171084
     6  C   -0.218511
     7  H    0.225468
     8  H    0.229396
     9  H    0.275654
    10  H    0.275402
    11  H    0.223178
    12  N    0.488150
    13  O   -0.460609
    14  O   -0.460677
    15  C   -0.298676
    16  C   -0.300156
    17  C   -0.475971
    18  H    0.149574
    19  H    0.150164
    20  H    0.152366
    21  H    0.153403
    22  H    0.155674
    23  H    0.155051
    24  H    0.161409
    25  C   -0.299300
    26  C   -0.299624
    27  C   -0.479314
    28  H    0.150767
    29  H    0.152197
    30  H    0.152582
    31  H    0.151750
    32  H    0.158084
    33  H    0.160402
    34  H    0.150129
 Sum of Mulliken charges =  -0.00000

 Dipole moment (field-independent basis, Debye):
    X=              1.4831    Y=             -5.0102    Z=             -0.2096  Tot=              5.2293
 Quadrupole moment (field-independent basis, Debye-Ang):
   XX=           -100.8765   YY=            -97.5939   ZZ=            -95.1125
   XY=             21.0972   XZ=              0.2742   YZ=             -0.5156

 Normal termination of Gaussian 16 at Wed May  5 20:43:18 2021.
