 Gaussian 16, Revision A.03,
 Gaussian 16:  EM64L-G16RevA.03 25-Dec-2016

 -------------
 #p 6-31g* mp2
 -------------

 ------------------------------------------------------
 Input file generated by CHIRIPA (05-May-2021 14:57:27)
 ------------------------------------------------------
 Symbolic Z-matrix:
 Charge =  0 Multiplicity = 1

                         Standard orientation:
 ---------------------------------------------------------------------
 Center     Atomic      Atomic             Coordinates (Angstroms)
 Number     Number       Type             X           Y           Z
 ---------------------------------------------------------------------
      1          6           0       -1.863287    2.796497    0.579257
      2          6           0       -2.745160    2.038106    1.356215
      3          6           0       -3.033309    0.713463    1.014399
      4          6           0       -2.419069    0.176564   -0.115972
      5          6           0       -1.536077    0.906550   -0.910161
      6          6           0       -1.262619    2.229299   -0.549461
      7          1           0       -1.645152    3.824776    0.852122
      8          1           0       -3.213106    2.475990    2.233329
      9          1           0       -3.712179    0.103737    1.598170
     10          1           0       -1.084984    0.442547   -1.778858
     11          1           0       -0.577341    2.815906   -1.154715
     12          7           0       -2.716343   -1.224774   -0.487833
     13          8           0       -2.162213   -1.674568   -1.488464
     14          8           0       -3.497847   -1.846815    0.228375
     15          6           0        3.482417    1.776871   -0.542850
     16          6           0        3.732469    1.180253    0.697328
     17          6           0        3.121673   -0.029993    1.039060
     18          6           0        2.262537   -0.618700    0.112452
     19          6           0        1.993283   -0.049014   -1.131031
     20          6           0        2.615152    1.161419   -1.451470
     21          1           0        3.961200    2.717091   -0.800046
     22          1           0        4.405542    1.655957    1.404946
     23          1           0        3.297499   -0.513704    1.992226
     24          1           0        1.317512   -0.547080   -1.815635
     25          1           0        2.419098    1.622472   -2.415336
     26          7           0        1.610053   -1.900032    0.462958
     27          8           0        0.857222   -2.398538   -0.370932
     28          8           0        1.863822   -2.381570    1.564937
 ---------------------------------------------------------------------

 SCF Done:  E(RHF) =  -868.334864469     A.U. after   16 cycles
 E2 =    -0.2603945923D+01 EUMP2 =    -0.87093881039259D+03

 The electronic state is 1-A.
 Alpha  occ. eigenvalues --  -20.60620 -20.60544 -20.60199 -20.60119 -15.85633
 Alpha  occ. eigenvalues --  -15.85216 -11.31356 -11.30972 -11.28011 -11.27966
 Alpha  occ. eigenvalues --  -11.27812 -11.27649 -11.27532 -11.27387 -11.27123
 Alpha  occ. eigenvalues --  -11.27039 -11.26733 -11.26646  -1.59666  -1.59204
 Alpha  occ. eigenvalues --   -1.39203  -1.38754  -1.19583  -1.19174  -1.08910
 Alpha  occ. eigenvalues --   -1.08492  -1.05063  -1.04636  -0.95685  -0.95267
 Alpha  occ. eigenvalues --   -0.86436  -0.86015  -0.82525  -0.82097  -0.77536
 Alpha  occ. eigenvalues --   -0.77059  -0.71869  -0.71430  -0.71061  -0.70731
 Alpha  occ. eigenvalues --   -0.70438  -0.70269  -0.65228  -0.65097  -0.64822
 Alpha  occ. eigenvalues --   -0.64634  -0.62481  -0.61916  -0.55541  -0.55133
 Alpha  occ. eigenvalues --   -0.53466  -0.53192  -0.52811  -0.52701  -0.48645
 Alpha  occ. eigenvalues --   -0.48607  -0.48220  -0.48160  -0.44677  -0.43893
 Alpha  occ. eigenvalues --   -0.37617  -0.37143  -0.36951  -0.35925
 Alpha virt. eigenvalues --    0.04868   0.05621   0.10607   0.11722   0.16311
 Alpha virt. eigenvalues --    0.16981   0.19986   0.22026   0.25497   0.27082
 Alpha virt. eigenvalues --    0.28018   0.29451   0.29752   0.31294   0.31890

 Mulliken charges:
               1
     1  C   -0.172477
     2  C   -0.218115
     3  C   -0.170322
     4  C    0.160438
     5  C   -0.171180
     6  C   -0.214372
     7  H    0.222769
     8  H    0.222923
     9  H    0.277311
    10  H    0.268275
    11  H    0.216267
    12  N    0.490458
    13  O   -0.453093
    14  O   -0.460121
    15  C   -0.172160
    16  C   -0.218545
    17  C   -0.170042
    18  C    0.160312
    19  C   -0.175732
    20  C   -0.223334
    21  H    0.224309
    22  H    0.223503
    23  H    0.277011
    24  H    0.281090
    25  H    0.219747
    26  N    0.485367
    27  O   -0.448658
    28  O   -0.461627
 Sum of Mulliken charges =  -0.00000

 Dipole moment (field-independent basis, Debye):
    X=              3.2732    Y=              9.0704    Z=              0.1542  Tot=              9.6442
 Quadrupole moment (field-independent basis, Debye-Ang):
   XX=            -97.6574   YY=           -110.0352   ZZ=            -98.9814
   XY=             -2.4666   XZ=             -6.2274   YZ=              1.0004

 Normal termination of Gaussian 16 at Thu May  6 00:30:36 2021.
