 Gaussian 16, Revision A.03,
 Gaussian 16:  EM64L-G16RevA.03 25-Dec-2016

 -------------
 #p 6-31g* mp2
 -------------

 ------------------------------------------------------
 Input file generated by CHIRIPA (05-May-2021 14:55:22)
 ------------------------------------------------------
 Symbolic Z-matrix:
 Charge =  0 Multiplicity = 1

                         Standard orientation:
 ---------------------------------------------------------------------
 Center     Atomic      Atomic             Coordinates (Angstroms)
 Number     Number       Type             X           Y           Z
 ---------------------------------------------------------------------
      1          6           0        5.502840    0.012784   -0.683184
      2          6           0        4.685209    1.130290   -0.485246
      3          6           0        3.367375    0.976721   -0.044476
      4          6           0        2.897619   -0.314712    0.189661
      5          6           0        3.687634   -1.447783    0.001729
      6          6           0        5.002325   -1.270424   -0.439495
      7          1           0        6.525345    0.141320   -1.025761
      8          1           0        5.071241    2.128043   -0.673697
      9          1           0        2.712676    1.824500    0.116948
     10          1           0        3.274634   -2.429780    0.198023
     11          1           0        5.635032   -2.140113   -0.592358
     12          7           0        1.504151   -0.489882    0.656525
     13          8           0        1.114089   -1.638284    0.855677
     14          8           0        0.828397    0.524539    0.814459
     15          6           0       -4.105339   -0.389858   -0.186763
     16          6           0       -5.575921   -0.798188   -0.279711
     17          6           0       -5.764594   -2.313141   -0.364055
     18          1           0       -3.567151   -0.779676   -1.061600
     19          1           0       -3.654829   -0.866056    0.695094
     20          1           0       -6.023878   -0.320255   -1.160354
     21          1           0       -6.110711   -0.407189    0.595353
     22          1           0       -5.343686   -2.803564    0.519644
     23          1           0       -5.256361   -2.716137   -1.246038
     24          1           0       -6.823280   -2.582817   -0.429767
     25          6           0       -3.900496    1.121614   -0.101792
     26          6           0       -2.429914    1.529944   -0.008844
     27          6           0       -2.241241    3.044897    0.075500
     28          1           0       -4.351006    1.597812   -0.983649
     29          1           0       -4.438684    1.511433    0.773045
     30          1           0       -1.895125    1.138944   -0.883907
     31          1           0       -1.981957    1.052011    0.871799
     32          1           0       -2.749475    3.447894    0.957484
     33          1           0       -2.662150    3.535320   -0.808198
     34          1           0       -1.182555    3.314573    0.141213
 ---------------------------------------------------------------------

 SCF Done:  E(RHF) =  -669.535846813     A.U. after   15 cycles
 E2 =    -0.2091291927D+01 EUMP2 =    -0.67162713874073D+03

 The electronic state is 1-A.
 Alpha  occ. eigenvalues --  -20.60950 -20.60932 -15.85973 -11.31299 -11.27863
 Alpha  occ. eigenvalues --  -11.27859 -11.27600 -11.26870 -11.26861 -11.20694
 Alpha  occ. eigenvalues --  -11.20276 -11.20223 -11.20128 -11.19910 -11.19837
 Alpha  occ. eigenvalues --   -1.60003  -1.39560  -1.19468  -1.08872  -1.07232
 Alpha  occ. eigenvalues --   -1.04864  -1.02354  -0.95714  -0.94869  -0.86265
 Alpha  occ. eigenvalues --   -0.85896  -0.82549  -0.78419  -0.77601  -0.76975
 Alpha  occ. eigenvalues --   -0.72190  -0.71315  -0.70576  -0.65123  -0.64868
 Alpha  occ. eigenvalues --   -0.63876  -0.62212  -0.59763  -0.58234  -0.56433
 Alpha  occ. eigenvalues --   -0.55368  -0.54187  -0.53196  -0.52956  -0.51590
 Alpha  occ. eigenvalues --   -0.51284  -0.49043  -0.48948  -0.48810  -0.46707
 Alpha  occ. eigenvalues --   -0.45440  -0.45008  -0.44496  -0.44372  -0.42615
 Alpha  occ. eigenvalues --   -0.37446  -0.36466
 Alpha virt. eigenvalues --    0.04925   0.11189   0.16418   0.21282   0.23970
 Alpha virt. eigenvalues --    0.25293   0.27202   0.27829   0.27971   0.28827
 Alpha virt. eigenvalues --    0.29085   0.30804   0.31996   0.32476   0.32928

 Mulliken charges:
               1
     1  C   -0.170619
     2  C   -0.218525
     3  C   -0.170791
     4  C    0.157761
     5  C   -0.170639
     6  C   -0.218579
     7  H    0.226011
     8  H    0.223884
     9  H    0.275554
    10  H    0.275877
    11  H    0.223826
    12  N    0.490500
    13  O   -0.459333
    14  O   -0.460670
    15  C   -0.297416
    16  C   -0.298752
    17  C   -0.474933
    18  H    0.148613
    19  H    0.155397
    20  H    0.148762
    21  H    0.149940
    22  H    0.156159
    23  H    0.154058
    24  H    0.156634
    25  C   -0.299010
    26  C   -0.297490
    27  C   -0.475773
    28  H    0.142933
    29  H    0.145469
    30  H    0.148527
    31  H    0.174866
    32  H    0.150655
    33  H    0.147312
    34  H    0.159792
 Sum of Mulliken charges =  -0.00000

 Dipole moment (field-independent basis, Debye):
    X=              5.2719    Y=              0.4910    Z=             -1.5249  Tot=              5.5099
 Quadrupole moment (field-independent basis, Debye-Ang):
   XX=            -68.3822   YY=            -92.0376   ZZ=            -95.2907
   XY=             -0.4676   XZ=             -4.4552   YZ=              0.4775

 Normal termination of Gaussian 16 at Thu May  6 03:04:48 2021.
