 Gaussian 16, Revision A.03,
 Gaussian 16:  EM64L-G16RevA.03 25-Dec-2016

 -------------
 #p 6-31g* mp2
 -------------

 ------------------------------------------------------
 Input file generated by CHIRIPA (05-May-2021 14:57:25)
 ------------------------------------------------------
 Symbolic Z-matrix:
 Charge =  0 Multiplicity = 1

                         Standard orientation:
 ---------------------------------------------------------------------
 Center     Atomic      Atomic             Coordinates (Angstroms)
 Number     Number       Type             X           Y           Z
 ---------------------------------------------------------------------
      1          6           0       -4.838672    1.036875    1.682110
      2          6           0       -5.410191   -0.020622    0.966858
      3          6           0       -4.674495   -0.695326   -0.011956
      4          6           0       -3.364016   -0.284351   -0.250774
      5          6           0       -2.766616    0.765511    0.445065
      6          6           0       -3.521032    1.425881    1.419394
      7          1           0       -5.417449    1.555434    2.440734
      8          1           0       -6.433273   -0.324894    1.168765
      9          1           0       -5.092256   -1.517313   -0.580490
     10          1           0       -1.744497    1.046020    0.221445
     11          1           0       -3.074595    2.246801    1.973316
     12          7           0       -2.575260   -0.991042   -1.284627
     13          8           0       -1.422634   -0.609720   -1.476158
     14          8           0       -3.124593   -1.912887   -1.883852
     15          6           0        4.903990   -1.536893    1.293494
     16          6           0        5.510727   -0.594776    0.456352
     17          6           0        4.739369    0.354462   -0.220775
     18          6           0        3.357702    0.332690   -0.036896
     19          6           0        2.723751   -0.593129    0.790301
     20          6           0        3.514888   -1.533069    1.457507
     21          1           0        5.510881   -2.270673    1.815648
     22          1           0        6.589307   -0.595380    0.327083
     23          1           0        5.183106    1.095142   -0.874923
     24          1           0        1.646299   -0.567598    0.899214
     25          1           0        3.040965   -2.263543    2.107007
     26          7           0        2.530630    1.332685   -0.748488
     27          8           0        1.315297    1.292458   -0.569649
     28          8           0        3.113366    2.137774   -1.471599
 ---------------------------------------------------------------------

 SCF Done:  E(RHF) =  -868.338111121     A.U. after   16 cycles
 E2 =    -0.2599689087D+01 EUMP2 =    -0.87093780020796D+03

 The electronic state is 1-A.
 Alpha  occ. eigenvalues --  -20.60445 -20.60402 -20.60152 -20.60098 -15.85475
 Alpha  occ. eigenvalues --  -15.85173 -11.30844 -11.30606 -11.27434 -11.27404
 Alpha  occ. eigenvalues --  -11.27255 -11.27193 -11.27066 -11.27009 -11.26460
 Alpha  occ. eigenvalues --  -11.26440 -11.26286 -11.26201  -1.59483  -1.59216
 Alpha  occ. eigenvalues --   -1.39038  -1.38755  -1.19024  -1.18807  -1.08422
 Alpha  occ. eigenvalues --   -1.08204  -1.04434  -1.04209  -0.95257  -0.95010
 Alpha  occ. eigenvalues --   -0.85832  -0.85606  -0.82098  -0.81822  -0.77152
 Alpha  occ. eigenvalues --   -0.76823  -0.71741  -0.71344  -0.70784  -0.70554
 Alpha  occ. eigenvalues --   -0.70144  -0.69905  -0.64689  -0.64453  -0.64443
 Alpha  occ. eigenvalues --   -0.64210  -0.61782  -0.61520  -0.54951  -0.54736
 Alpha  occ. eigenvalues --   -0.52758  -0.52563  -0.52533  -0.52287  -0.48460
 Alpha  occ. eigenvalues --   -0.48457  -0.48183  -0.48104  -0.44425  -0.44148
 Alpha  occ. eigenvalues --   -0.37012  -0.36829  -0.36035  -0.35827
 Alpha virt. eigenvalues --    0.05415   0.05647   0.11620   0.11817   0.16891
 Alpha virt. eigenvalues --    0.17109   0.21474   0.22076   0.27170   0.27797
 Alpha virt. eigenvalues --    0.28207   0.29245   0.30846   0.31652   0.32299

 Mulliken charges:
               1
     1  C   -0.171118
     2  C   -0.219549
     3  C   -0.171558
     4  C    0.155193
     5  C   -0.179556
     6  C   -0.221030
     7  H    0.223345
     8  H    0.220975
     9  H    0.273606
    10  H    0.296211
    11  H    0.223881
    12  N    0.485991
    13  O   -0.452107
    14  O   -0.465830
    15  C   -0.170827
    16  C   -0.218734
    17  C   -0.170932
    18  C    0.158468
    19  C   -0.167930
    20  C   -0.218653
    21  H    0.224479
    22  H    0.222349
    23  H    0.274960
    24  H    0.276743
    25  H    0.222629
    26  N    0.494068
    27  O   -0.463485
    28  O   -0.461587
 Sum of Mulliken charges =  -0.00000

 Dipole moment (field-independent basis, Debye):
    X=              0.3134    Y=             -0.9553    Z=              6.0661  Tot=              6.1489
 Quadrupole moment (field-independent basis, Debye-Ang):
   XX=            -61.9755   YY=           -107.3995   ZZ=           -107.3717
   XY=            -14.5245   XZ=             -4.4662   YZ=             -1.1117

 Normal termination of Gaussian 16 at Thu May  6 01:56:34 2021.
