 Gaussian 16, Revision A.03,
 Gaussian 16:  EM64L-G16RevA.03 25-Dec-2016

 -------------
 #p 6-31g* mp2
 -------------

 ------------------------------------------------------
 Input file generated by CHIRIPA (05-May-2021 14:53:12)
 ------------------------------------------------------
 Symbolic Z-matrix:
 Charge =  0 Multiplicity = 1

                         Standard orientation:
 ---------------------------------------------------------------------
 Center     Atomic      Atomic             Coordinates (Angstroms)
 Number     Number       Type             X           Y           Z
 ---------------------------------------------------------------------
      1          6           0        2.948254    0.728112    0.133117
      2          6           0        3.086705   -0.599698   -0.612361
      3          6           0        4.494550   -1.188193   -0.515203
      4          1           0        3.675770    1.445546   -0.270558
      5          1           0        3.211372    0.576873    1.189190
      6          1           0        2.822069   -0.446299   -1.666426
      7          1           0        2.358643   -1.313995   -0.206994
      8          1           0        4.764956   -1.369630    0.530054
      9          1           0        5.231014   -0.497004   -0.937669
     10          1           0        4.571141   -2.137154   -1.055080
     11          6           0        1.546462    1.328930    0.045207
     12          6           0        1.408011    2.656740    0.790684
     13          6           0        0.000166    3.245235    0.693526
     14          1           0        1.283344    1.480169   -1.010867
     15          1           0        0.818946    0.611496    0.448881
     16          1           0        2.136072    3.371037    0.385317
     17          1           0        1.672647    2.503341    1.844749
     18          1           0       -0.736298    2.554046    1.115993
     19          1           0       -0.270240    3.426672   -0.351731
     20          1           0       -0.076425    4.194196    1.233403
     21          6           0       -0.383152   -2.683946    0.902941
     22          6           0       -0.229978   -2.328065   -0.441086
     23          6           0       -0.985222   -1.287799   -0.990633
     24          6           0       -1.888446   -0.621740   -0.163684
     25          6           0       -2.063775   -0.952874    1.179036
     26          6           0       -1.297949   -1.996426    1.707295
     27          1           0        0.207650   -3.493325    1.321574
     28          1           0        0.479705   -2.860250   -1.068121
     29          1           0       -0.886687   -0.991607   -2.027927
     30          1           0       -2.779225   -0.403913    1.779196
     31          1           0       -1.419006   -2.270640    2.751420
     32          7           0       -2.693590    0.481282   -0.734197
     33          8           0       -3.482576    1.052502    0.015368
     34          8           0       -2.520433    0.753725   -1.920126
 ---------------------------------------------------------------------

 SCF Done:  E(RHF) =  -669.534087537     A.U. after   15 cycles
 E2 =    -0.2096374563D+01 EUMP2 =    -0.67163046210013D+03

 The electronic state is 1-A.
 Alpha  occ. eigenvalues --  -20.60845 -20.60840 -15.85880 -11.31257 -11.27853
 Alpha  occ. eigenvalues --  -11.27790 -11.27597 -11.26895 -11.26828 -11.21901
 Alpha  occ. eigenvalues --  -11.21512 -11.21479 -11.21389 -11.21230 -11.20622
 Alpha  occ. eigenvalues --   -1.59903  -1.39459  -1.19467  -1.08853  -1.08480
 Alpha  occ. eigenvalues --   -1.04865  -1.03567  -0.95992  -0.95674  -0.87011
 Alpha  occ. eigenvalues --   -0.86254  -0.82507  -0.79673  -0.78303  -0.77536
 Alpha  occ. eigenvalues --   -0.72105  -0.71215  -0.70554  -0.65186  -0.65103
 Alpha  occ. eigenvalues --   -0.64824  -0.62214  -0.60962  -0.59418  -0.57615
 Alpha  occ. eigenvalues --   -0.55367  -0.55276  -0.53389  -0.52957  -0.52656
 Alpha  occ. eigenvalues --   -0.52364  -0.49937  -0.48869  -0.48859  -0.47976
 Alpha  occ. eigenvalues --   -0.46742  -0.45777  -0.45595  -0.44827  -0.43799
 Alpha  occ. eigenvalues --   -0.37396  -0.36360
 Alpha virt. eigenvalues --    0.04963   0.11025   0.16411   0.20929   0.22972
 Alpha virt. eigenvalues --    0.23998   0.26180   0.26667   0.27835   0.28005
 Alpha virt. eigenvalues --    0.28571   0.30433   0.31329   0.31814   0.32203

 Mulliken charges:
               1
     1  C   -0.296145
     2  C   -0.305514
     3  C   -0.474943
     4  H    0.150553
     5  H    0.147779
     6  H    0.148780
     7  H    0.151564
     8  H    0.154514
     9  H    0.157954
    10  H    0.155861
    11  C   -0.306199
    12  C   -0.299344
    13  C   -0.478988
    14  H    0.150644
    15  H    0.156495
    16  H    0.151325
    17  H    0.148711
    18  H    0.154571
    19  H    0.163434
    20  H    0.160530
    21  C   -0.172726
    22  C   -0.215997
    23  C   -0.169765
    24  C    0.160269
    25  C   -0.174069
    26  C   -0.217605
    27  H    0.226407
    28  H    0.226235
    29  H    0.275790
    30  H    0.276171
    31  H    0.224078
    32  N    0.489531
    33  O   -0.460072
    34  O   -0.459827
 Sum of Mulliken charges =  -0.00000

 Dipole moment (field-independent basis, Debye):
    X=              2.6717    Y=             -3.8544    Z=              1.9697  Tot=              5.0866
 Quadrupole moment (field-independent basis, Debye-Ang):
   XX=           -106.4340   YY=            -90.3719   ZZ=            -90.9574
   XY=              5.9564   XZ=             -6.7197   YZ=             -0.5647

 Normal termination of Gaussian 16 at Wed May  5 21:44:53 2021.
