 Gaussian 16, Revision A.03,
 Gaussian 16:  EM64L-G16RevA.03 25-Dec-2016

 -------------
 #p 6-31g* mp2
 -------------

 ------------------------------------------------------
 Input file generated by CHIRIPA (05-May-2021 14:55:24)
 ------------------------------------------------------
 Symbolic Z-matrix:
 Charge =  0 Multiplicity = 1

                         Standard orientation:
 ---------------------------------------------------------------------
 Center     Atomic      Atomic             Coordinates (Angstroms)
 Number     Number       Type             X           Y           Z
 ---------------------------------------------------------------------
      1          6           0       -1.632863    2.054471    0.536954
      2          6           0       -1.237527    0.777228    0.126004
      3          6           0       -2.191573   -0.183943   -0.221120
      4          6           0       -3.538372    0.167756   -0.145418
      5          6           0       -3.963750    1.431788    0.260250
      6          6           0       -2.992316    2.377106    0.602650
      7          1           0       -0.884984    2.794975    0.804774
      8          1           0       -0.182467    0.523868    0.074036
      9          1           0       -1.913308   -1.180257   -0.542593
     10          1           0       -5.022950    1.654869    0.302067
     11          1           0       -3.302252    3.368242    0.921451
     12          7           0       -4.557581   -0.841402   -0.510401
     13          8           0       -5.737812   -0.506664   -0.435276
     14          8           0       -4.156908   -1.948008   -0.864691
     15          6           0        3.693342   -0.855767   -0.012420
     16          6           0        2.943572   -1.214816    1.270902
     17          6           0        1.704061   -2.071583    1.011364
     18          1           0        3.012704   -0.322629   -0.690239
     19          1           0        3.987086   -1.780512   -0.528130
     20          1           0        2.652538   -0.289675    1.784740
     21          1           0        3.626128   -1.746993    1.945824
     22          1           0        1.980442   -3.010069    0.519979
     23          1           0        1.001320   -1.544471    0.357981
     24          1           0        1.183279   -2.316604    1.942281
     25          6           0        4.934865    0.000529    0.230695
     26          6           0        5.684636    0.359578   -1.052626
     27          6           0        6.924146    1.216345   -0.793088
     28          1           0        4.641123    0.925274    0.746405
     29          1           0        5.615504   -0.532609    0.908515
     30          1           0        5.002080    0.891755   -1.727548
     31          1           0        5.975670   -0.565562   -1.566466
     32          1           0        7.626887    0.689233   -0.139706
     33          1           0        6.647766    2.154831   -0.301704
     34          1           0        7.444930    1.461366   -1.724007
 ---------------------------------------------------------------------

 SCF Done:  E(RHF) =  -669.535280521     A.U. after   15 cycles
 E2 =    -0.2091196818D+01 EUMP2 =    -0.67162647733978D+03

 The electronic state is 1-A.
 Alpha  occ. eigenvalues --  -20.60732 -20.60727 -15.85786 -11.31156 -11.27729
 Alpha  occ. eigenvalues --  -11.27716 -11.27476 -11.26748 -11.26722 -11.22423
 Alpha  occ. eigenvalues --  -11.22153 -11.22136 -11.22007 -11.21965 -11.21531
 Alpha  occ. eigenvalues --   -1.59808  -1.39361  -1.19330  -1.09132  -1.08726
 Alpha  occ. eigenvalues --   -1.04739  -1.04215  -0.96666  -0.95559  -0.87681
 Alpha  occ. eigenvalues --   -0.86134  -0.82396  -0.80276  -0.78926  -0.77440
 Alpha  occ. eigenvalues --   -0.72004  -0.71131  -0.70443  -0.65803  -0.64985
 Alpha  occ. eigenvalues --   -0.64747  -0.62198  -0.61523  -0.60023  -0.58258
 Alpha  occ. eigenvalues --   -0.55986  -0.55230  -0.53340  -0.53109  -0.53054
 Alpha  occ. eigenvalues --   -0.52806  -0.50609  -0.48768  -0.48758  -0.48580
 Alpha  occ. eigenvalues --   -0.47322  -0.46467  -0.46392  -0.44765  -0.44459
 Alpha  occ. eigenvalues --   -0.37315  -0.36333
 Alpha virt. eigenvalues --    0.05095   0.11310   0.16558   0.18938   0.22530
 Alpha virt. eigenvalues --    0.23624   0.25377   0.26146   0.26958   0.28297
 Alpha virt. eigenvalues --    0.28695   0.30300   0.31069   0.31298   0.32030

 Mulliken charges:
               1
     1  C   -0.171298
     2  C   -0.222183
     3  C   -0.172111
     4  C    0.158517
     5  C   -0.171034
     6  C   -0.218538
     7  H    0.225432
     8  H    0.228201
     9  H    0.276246
    10  H    0.275526
    11  H    0.223252
    12  N    0.488146
    13  O   -0.460673
    14  O   -0.460198
    15  C   -0.298498
    16  C   -0.301534
    17  C   -0.477440
    18  H    0.143987
    19  H    0.153542
    20  H    0.148345
    21  H    0.157007
    22  H    0.161668
    23  H    0.144070
    24  H    0.166010
    25  C   -0.298302
    26  C   -0.300045
    27  C   -0.475982
    28  H    0.147667
    29  H    0.152095
    30  H    0.151242
    31  H    0.153863
    32  H    0.156412
    33  H    0.154647
    34  H    0.161960
 Sum of Mulliken charges =  -0.00000

 Dipole moment (field-independent basis, Debye):
    X=              3.7798    Y=              3.4663    Z=              1.3274  Tot=              5.2976
 Quadrupole moment (field-independent basis, Debye-Ang):
   XX=           -117.5770   YY=            -91.1068   ZZ=            -95.7159
   XY=            -16.1665   XZ=             -5.8543   YZ=              0.2688

 Normal termination of Gaussian 16 at Thu May  6 11:03:55 2021.
