 Gaussian 16, Revision A.03,
 Gaussian 16:  EM64L-G16RevA.03 25-Dec-2016

 -------------
 #p 6-31g* mp2
 -------------

 ------------------------------------------------------
 Input file generated by CHIRIPA (05-May-2021 14:55:23)
 ------------------------------------------------------
 Symbolic Z-matrix:
 Charge =  0 Multiplicity = 1

                         Standard orientation:
 ---------------------------------------------------------------------
 Center     Atomic      Atomic             Coordinates (Angstroms)
 Number     Number       Type             X           Y           Z
 ---------------------------------------------------------------------
      1          6           0       -2.961820    1.090342    2.090805
      2          6           0       -3.665107   -0.088394    1.821564
      3          6           0       -3.416577   -0.811936    0.651407
      4          6           0       -2.453601   -0.325642   -0.231477
      5          6           0       -1.736377    0.845361    0.008593
      6          6           0       -2.001393    1.552642    1.185057
      7          1           0       -3.161287    1.646091    3.002261
      8          1           0       -4.411549   -0.449798    2.523174
      9          1           0       -3.946461   -1.727475    0.418104
     10          1           0       -0.998211    1.180586   -0.709844
     11          1           0       -1.453683    2.467749    1.391546
     12          7           0       -2.181768   -1.083016   -1.473608
     13          8           0       -1.328383   -0.633450   -2.235357
     14          8           0       -2.827237   -2.111872   -1.661922
     15          6           0        3.085740    0.739721   -0.547010
     16          6           0        2.180418    1.919023   -0.189764
     17          6           0        1.965403    2.875797   -1.362858
     18          1           0        4.055907    1.122045   -0.892768
     19          1           0        2.646373    0.192072   -1.392250
     20          1           0        2.620659    2.463473    0.655445
     21          1           0        1.212359    1.533843    0.155366
     22          1           0        1.504336    2.352842   -2.206977
     23          1           0        2.920638    3.287754   -1.704057
     24          1           0        1.315295    3.711412   -1.085433
     25          6           0        3.310171   -0.225629    0.615512
     26          6           0        4.215493   -1.404931    0.258266
     27          6           0        4.430508   -2.361704    1.431359
     28          1           0        3.749539    0.322021    1.460752
     29          1           0        2.340004   -0.607953    0.961270
     30          1           0        5.183552   -1.019751   -0.086864
     31          1           0        3.775253   -1.949381   -0.586943
     32          1           0        3.475273   -2.773663    1.772558
     33          1           0        4.891575   -1.838751    2.275479
     34          1           0        5.080617   -3.197321    1.153935
 ---------------------------------------------------------------------

 SCF Done:  E(RHF) =  -669.535560269     A.U. after   15 cycles
 E2 =    -0.2092079493D+01 EUMP2 =    -0.67162763976220D+03

 The electronic state is 1-A.
 Alpha  occ. eigenvalues --  -20.60829 -20.60822 -15.85880 -11.31224 -11.27799
 Alpha  occ. eigenvalues --  -11.27764 -11.27533 -11.26812 -11.26795 -11.21929
 Alpha  occ. eigenvalues --  -11.21481 -11.21394 -11.21352 -11.21332 -11.20974
 Alpha  occ. eigenvalues --   -1.59902  -1.39456  -1.19401  -1.08797  -1.08477
 Alpha  occ. eigenvalues --   -1.04804  -1.03623  -0.96051  -0.95635  -0.87066
 Alpha  occ. eigenvalues --   -0.86197  -0.82471  -0.79702  -0.78275  -0.77513
 Alpha  occ. eigenvalues --   -0.72100  -0.71225  -0.70518  -0.65177  -0.65039
 Alpha  occ. eigenvalues --   -0.64761  -0.62218  -0.60948  -0.59439  -0.57664
 Alpha  occ. eigenvalues --   -0.55377  -0.55235  -0.53138  -0.52883  -0.52772
 Alpha  occ. eigenvalues --   -0.52469  -0.49981  -0.48856  -0.48854  -0.48004
 Alpha  occ. eigenvalues --   -0.46723  -0.45821  -0.45698  -0.44864  -0.43851
 Alpha  occ. eigenvalues --   -0.37380  -0.36379
 Alpha virt. eigenvalues --    0.04969   0.11226   0.16418   0.20034   0.22948
 Alpha virt. eigenvalues --    0.23919   0.26310   0.26873   0.27550   0.28054
 Alpha virt. eigenvalues --    0.29530   0.29992   0.31451   0.31706   0.32307

 Mulliken charges:
               1
     1  C   -0.170709
     2  C   -0.218554
     3  C   -0.170820
     4  C    0.157514
     5  C   -0.174314
     6  C   -0.219662
     7  H    0.225919
     8  H    0.223668
     9  H    0.275671
    10  H    0.281522
    11  H    0.225106
    12  N    0.487944
    13  O   -0.461341
    14  O   -0.460017
    15  C   -0.300172
    16  C   -0.304636
    17  C   -0.480889
    18  H    0.150198
    19  H    0.160059
    20  H    0.150993
    21  H    0.144463
    22  H    0.164409
    23  H    0.159180
    24  H    0.153922
    25  C   -0.298362
    26  C   -0.300636
    27  C   -0.475779
    28  H    0.147061
    29  H    0.149935
    30  H    0.151532
    31  H    0.156814
    32  H    0.155452
    33  H    0.153482
    34  H    0.161047
 Sum of Mulliken charges =  -0.00000

 Dipole moment (field-independent basis, Debye):
    X=             -0.9226    Y=              2.5878    Z=              4.2869  Tot=              5.0917
 Quadrupole moment (field-independent basis, Debye-Ang):
   XX=            -87.1994   YY=            -95.1016   ZZ=            -97.4335
   XY=             -3.0574   XZ=            -12.1206   YZ=             -2.3133

 Normal termination of Gaussian 16 at Wed May  5 20:41:09 2021.
