 Gaussian 16, Revision A.03,
 Gaussian 16:  EM64L-G16RevA.03 25-Dec-2016

 -------------
 #p 6-31g* mp2
 -------------

 ------------------------------------------------------
 Input file generated by CHIRIPA (05-May-2021 14:57:26)
 ------------------------------------------------------
 Symbolic Z-matrix:
 Charge =  0 Multiplicity = 1

                         Standard orientation:
 ---------------------------------------------------------------------
 Center     Atomic      Atomic             Coordinates (Angstroms)
 Number     Number       Type             X           Y           Z
 ---------------------------------------------------------------------
      1          6           0        5.761164    1.275938    0.512732
      2          6           0        5.256230    0.425725    1.502025
      3          6           0        4.096408   -0.320437    1.272671
      4          6           0        3.464085   -0.191514    0.037019
      5          6           0        3.942528    0.647005   -0.968599
      6          6           0        5.103860    1.383674   -0.717255
      7          1           0        6.662728    1.851887    0.699440
      8          1           0        5.764614    0.340059    2.458190
      9          1           0        3.683769   -0.986205    2.020936
     10          1           0        3.413756    0.711367   -1.911825
     11          1           0        5.493720    2.043168   -1.487399
     12          7           0        2.235434   -0.976418   -0.217428
     13          8           0        1.696922   -0.845078   -1.314420
     14          8           0        1.834194   -1.708103    0.684947
     15          6           0       -5.695270    1.243665    0.845369
     16          6           0       -5.478329   -0.106993    1.137225
     17          6           0       -4.357691   -0.771788    0.630504
     18          6           0       -3.470455   -0.052072   -0.168316
     19          6           0       -3.659042    1.294206   -0.476961
     20          6           0       -4.786536    1.938728    0.040627
     21          1           0       -6.568471    1.752220    1.243223
     22          1           0       -6.182385   -0.649305    1.761924
     23          1           0       -4.165429   -1.816907    0.840687
     24          1           0       -2.939509    1.808293   -1.102583
     25          1           0       -4.952465    2.987721   -0.187685
     26          7           0       -2.280457   -0.745130   -0.710510
     27          8           0       -1.513742   -0.088674   -1.411831
     28          8           0       -2.136985   -1.931681   -0.423895
 ---------------------------------------------------------------------

 SCF Done:  E(RHF) =  -868.333926846     A.U. after   16 cycles
 E2 =    -0.2601015363D+01 EUMP2 =    -0.87093494220957D+03

 The electronic state is 1-A.
 Alpha  occ. eigenvalues --  -20.59484 -20.59423 -20.59412 -20.59364 -15.84506
 Alpha  occ. eigenvalues --  -15.84498 -11.30352 -11.30349 -11.26992 -11.26988
 Alpha  occ. eigenvalues --  -11.26964 -11.26959 -11.26816 -11.26816 -11.26114
 Alpha  occ. eigenvalues --  -11.26109 -11.26093 -11.26092  -1.58502  -1.58475
 Alpha  occ. eigenvalues --   -1.38053  -1.38018  -1.18573  -1.18567  -1.07886
 Alpha  occ. eigenvalues --   -1.07861  -1.04046  -1.04044  -0.94656  -0.94589
 Alpha  occ. eigenvalues --   -0.85424  -0.85418  -0.81491  -0.81428  -0.76437
 Alpha  occ. eigenvalues --   -0.76411  -0.70835  -0.70561  -0.69935  -0.69764
 Alpha  occ. eigenvalues --   -0.69681  -0.69673  -0.64223  -0.64195  -0.64064
 Alpha  occ. eigenvalues --   -0.64042  -0.61391  -0.61385  -0.54548  -0.54521
 Alpha  occ. eigenvalues --   -0.52358  -0.52342  -0.52149  -0.52141  -0.47773
 Alpha  occ. eigenvalues --   -0.47472  -0.47405  -0.47097  -0.43493  -0.43158
 Alpha  occ. eigenvalues --   -0.36593  -0.36567  -0.35674  -0.35671
 Alpha virt. eigenvalues --    0.06037   0.06203   0.11973   0.11975   0.17460
 Alpha virt. eigenvalues --    0.17595   0.22037   0.22055   0.27917   0.27927
 Alpha virt. eigenvalues --    0.28968   0.28996   0.31547   0.31572   0.33236

 Mulliken charges:
               1
     1  C   -0.172556
     2  C   -0.218623
     3  C   -0.172260
     4  C    0.159387
     5  C   -0.171756
     6  C   -0.218747
     7  H    0.222255
     8  H    0.220352
     9  H    0.274345
    10  H    0.277010
    11  H    0.220735
    12  N    0.485497
    13  O   -0.443111
    14  O   -0.462618
    15  C   -0.172507
    16  C   -0.218546
    17  C   -0.171383
    18  C    0.159830
    19  C   -0.172222
    20  C   -0.218539
    21  H    0.222309
    22  H    0.220978
    23  H    0.276147
    24  H    0.273923
    25  H    0.220054
    26  N    0.486776
    27  O   -0.453167
    28  O   -0.453565
 Sum of Mulliken charges =  -0.00000

 Dipole moment (field-independent basis, Debye):
    X=              0.1137    Y=              4.9923    Z=              2.5874  Tot=              5.6241
 Quadrupole moment (field-independent basis, Debye-Ang):
   XX=            -49.6809   YY=           -102.8406   ZZ=           -100.9793
   XY=              1.9703   XZ=             -3.3360   YZ=             -4.8208

 Normal termination of Gaussian 16 at Wed May  5 17:59:07 2021.
