 Gaussian 16, Revision A.03,
 Gaussian 16:  EM64L-G16RevA.03 25-Dec-2016

 -------------
 #p 6-31g* mp2
 -------------

 ------------------------------------------------------
 Input file generated by CHIRIPA (05-May-2021 14:53:13)
 ------------------------------------------------------
 Symbolic Z-matrix:
 Charge =  0 Multiplicity = 1

                         Standard orientation:
 ---------------------------------------------------------------------
 Center     Atomic      Atomic             Coordinates (Angstroms)
 Number     Number       Type             X           Y           Z
 ---------------------------------------------------------------------
      1          6           0       -3.049276   -0.697490    0.241951
      2          6           0       -2.343529   -1.858780   -0.458987
      3          6           0       -1.015392   -2.228925    0.201951
      4          1           0       -2.384674    0.177274    0.247866
      5          1           0       -3.223790   -0.964566    1.293431
      6          1           0       -2.171638   -1.590137   -1.509177
      7          1           0       -3.009963   -2.730824   -0.463403
      8          1           0       -1.172739   -2.522699    1.244802
      9          1           0       -0.329651   -1.375531    0.193086
     10          1           0       -0.527867   -3.061276   -0.315129
     11          6           0       -4.378429   -0.315781   -0.407186
     12          6           0       -5.084176    0.845508    0.293751
     13          6           0       -6.412313    1.215654   -0.367186
     14          1           0       -4.203915   -0.048706   -1.458667
     15          1           0       -5.043031   -1.190546   -0.413102
     16          1           0       -4.417742    1.717553    0.298168
     17          1           0       -5.256067    0.576866    1.343942
     18          1           0       -7.098054    0.362260   -0.358322
     19          1           0       -6.254966    1.509428   -1.410038
     20          1           0       -6.899838    2.048005    0.149893
     21          6           0        3.733067   -1.982109   -0.076305
     22          6           0        2.653052   -1.666301    0.754571
     23          6           0        2.183848   -0.352140    0.840460
     24          6           0        2.821049    0.625697    0.078162
     25          6           0        3.899262    0.342514   -0.758830
     26          6           0        4.351634   -0.978463   -0.829027
     27          1           0        4.091018   -3.005629   -0.136931
     28          1           0        2.170731   -2.443700    1.340287
     29          1           0        1.349650   -0.079890    1.475606
     30          1           0        4.359689    1.139021   -1.330671
     31          1           0        5.190588   -1.220813   -1.475145
     32          7           0        2.333234    2.020549    0.160782
     33          8           0        2.911811    2.863825   -0.520958
     34          8           0        1.381545    2.244145    0.905718
 ---------------------------------------------------------------------

 SCF Done:  E(RHF) =  -669.534637949     A.U. after   15 cycles
 E2 =    -0.2092429591D+01 EUMP2 =    -0.67162706754030D+03

 The electronic state is 1-A.
 Alpha  occ. eigenvalues --  -20.60798 -20.60791 -15.85849 -11.31197 -11.27750
 Alpha  occ. eigenvalues --  -11.27726 -11.27481 -11.26773 -11.26734 -11.21764
 Alpha  occ. eigenvalues --  -11.21467 -11.21399 -11.21347 -11.21260 -11.20881
 Alpha  occ. eigenvalues --   -1.59873  -1.39427  -1.19368  -1.08761  -1.08402
 Alpha  occ. eigenvalues --   -1.04774  -1.03555  -0.96039  -0.95599  -0.87071
 Alpha  occ. eigenvalues --   -0.86160  -0.82434  -0.79642  -0.78189  -0.77472
 Alpha  occ. eigenvalues --   -0.72067  -0.71198  -0.70479  -0.65061  -0.64991
 Alpha  occ. eigenvalues --   -0.64757  -0.62143  -0.60943  -0.59410  -0.57628
 Alpha  occ. eigenvalues --   -0.55384  -0.55240  -0.53207  -0.52906  -0.52643
 Alpha  occ. eigenvalues --   -0.52395  -0.49957  -0.48823  -0.48822  -0.47945
 Alpha  occ. eigenvalues --   -0.46639  -0.45740  -0.45631  -0.44832  -0.43795
 Alpha  occ. eigenvalues --   -0.37347  -0.36277
 Alpha virt. eigenvalues --    0.05019   0.11196   0.16483   0.21047   0.22932
 Alpha virt. eigenvalues --    0.24247   0.26307   0.26553   0.27491   0.28215
 Alpha virt. eigenvalues --    0.29297   0.30108   0.31481   0.31570   0.32225

 Mulliken charges:
               1
     1  C   -0.301214
     2  C   -0.298859
     3  C   -0.483004
     4  H    0.157038
     5  H    0.148136
     6  H    0.153965
     7  H    0.151470
     8  H    0.150632
     9  H    0.159776
    10  H    0.157208
    11  C   -0.298336
    12  C   -0.300617
    13  C   -0.475821
    14  H    0.150370
    15  H    0.148194
    16  H    0.156730
    17  H    0.151262
    18  H    0.153810
    19  H    0.155576
    20  H    0.160955
    21  C   -0.171952
    22  C   -0.213553
    23  C   -0.174165
    24  C    0.157501
    25  C   -0.171624
    26  C   -0.218179
    27  H    0.225605
    28  H    0.226527
    29  H    0.276797
    30  H    0.275442
    31  H    0.223401
    32  N    0.488212
    33  O   -0.460229
    34  O   -0.461056
 Sum of Mulliken charges =  -0.00000

 Dipole moment (field-independent basis, Debye):
    X=              1.7189    Y=             -4.8473    Z=             -0.3151  Tot=              5.1527
 Quadrupole moment (field-independent basis, Debye-Ang):
   XX=            -83.6013   YY=           -101.0277   ZZ=            -92.9717
   XY=            -11.4696   XZ=             -3.9790   YZ=             -1.8755

 Normal termination of Gaussian 16 at Wed May  5 15:33:36 2021.
