 Gaussian 16, Revision A.03,
 Gaussian 16:  EM64L-G16RevA.03 25-Dec-2016

 -------------
 #p 6-31g* mp2
 -------------

 ------------------------------------------------------
 Input file generated by CHIRIPA (05-May-2021 14:55:19)
 ------------------------------------------------------
 Symbolic Z-matrix:
 Charge =  0 Multiplicity = 1

                         Standard orientation:
 ---------------------------------------------------------------------
 Center     Atomic      Atomic             Coordinates (Angstroms)
 Number     Number       Type             X           Y           Z
 ---------------------------------------------------------------------
      1          6           0        0.990234   -1.328435    0.004135
      2          6           0        2.110340   -2.162198   -0.077863
      3          6           0        3.399441   -1.621132   -0.081810
      4          6           0        3.532339   -0.235753   -0.002100
      5          6           0        2.435987    0.621252    0.080625
      6          6           0        1.156340    0.058184    0.082978
      7          1           0       -0.007498   -1.757294    0.006582
      8          1           0        1.984355   -3.239422   -0.139200
      9          1           0        4.283916   -2.243390   -0.144382
     10          1           0        2.593342    1.691325    0.140642
     11          1           0        0.288267    0.708128    0.146754
     12          7           0        4.892048    0.348696   -0.005435
     13          8           0        4.982311    1.572388    0.065741
     14          8           0        5.841778   -0.427973   -0.079162
     15          6           0       -4.095188    1.116753   -0.290539
     16          6           0       -2.952509    1.852464    0.410174
     17          6           0       -2.685694    3.234780   -0.186319
     18          1           0       -3.858284    1.017250   -1.358679
     19          1           0       -5.007284    1.726328   -0.228133
     20          1           0       -2.043175    1.241055    0.347669
     21          1           0       -3.192073    1.950057    1.476805
     22          1           0       -3.577071    3.865840   -0.110088
     23          1           0       -2.421645    3.152809   -1.245640
     24          1           0       -1.865065    3.743041    0.329528
     25          6           0       -4.373913   -0.266634    0.294508
     26          6           0       -5.516592   -1.002345   -0.406205
     27          6           0       -5.783407   -2.384662    0.190288
     28          1           0       -3.461816   -0.876210    0.232103
     29          1           0       -4.610816   -0.167132    1.362647
     30          1           0       -5.277027   -1.099939   -1.472836
     31          1           0       -6.425926   -0.390937   -0.343700
     32          1           0       -6.047456   -2.302692    1.249608
     33          1           0       -4.892029   -3.015722    0.114058
     34          1           0       -6.604036   -2.892923   -0.325560
 ---------------------------------------------------------------------

 SCF Done:  E(RHF) =  -669.535494302     A.U. after   15 cycles
 E2 =    -0.2091150623D+01 EUMP2 =    -0.67162664492548D+03

 The electronic state is 1-A.
 Alpha  occ. eigenvalues --  -20.60741 -20.60736 -15.85794 -11.31159 -11.27729
 Alpha  occ. eigenvalues --  -11.27721 -11.27474 -11.26749 -11.26716 -11.22692
 Alpha  occ. eigenvalues --  -11.22359 -11.22306 -11.22252 -11.21945 -11.21759
 Alpha  occ. eigenvalues --   -1.59817  -1.39370  -1.19331  -1.09332  -1.08728
 Alpha  occ. eigenvalues --   -1.04735  -1.04395  -0.96818  -0.95563  -0.87830
 Alpha  occ. eigenvalues --   -0.86137  -0.82395  -0.80470  -0.79146  -0.77441
 Alpha  occ. eigenvalues --   -0.72013  -0.71140  -0.70444  -0.65996  -0.64984
 Alpha  occ. eigenvalues --   -0.64744  -0.62157  -0.61725  -0.60189  -0.58434
 Alpha  occ. eigenvalues --   -0.56102  -0.55237  -0.53504  -0.53236  -0.53065
 Alpha  occ. eigenvalues --   -0.52842  -0.50754  -0.48822  -0.48768  -0.48721
 Alpha  occ. eigenvalues --   -0.47502  -0.46680  -0.46601  -0.44776  -0.44650
 Alpha  occ. eigenvalues --   -0.37316  -0.36337
 Alpha virt. eigenvalues --    0.05093   0.11315   0.16586   0.18702   0.22600
 Alpha virt. eigenvalues --    0.23163   0.24974   0.26258   0.26316   0.27964
 Alpha virt. eigenvalues --    0.29408   0.30010   0.30870   0.31159   0.31790

 Mulliken charges:
               1
     1  C   -0.173886
     2  C   -0.218569
     3  C   -0.171290
     4  C    0.159081
     5  C   -0.172695
     6  C   -0.226725
     7  H    0.225273
     8  H    0.223326
     9  H    0.275498
    10  H    0.276272
    11  H    0.235867
    12  N    0.487933
    13  O   -0.460387
    14  O   -0.460568
    15  C   -0.298628
    16  C   -0.304768
    17  C   -0.477180
    18  H    0.150904
    19  H    0.153933
    20  H    0.142040
    21  H    0.156619
    22  H    0.160260
    23  H    0.156775
    24  H    0.160855
    25  C   -0.296815
    26  C   -0.300487
    27  C   -0.475688
    28  H    0.140920
    29  H    0.152324
    30  H    0.152762
    31  H    0.154751
    32  H    0.156712
    33  H    0.152609
    34  H    0.162971
 Sum of Mulliken charges =  -0.00000

 Dipole moment (field-independent basis, Debye):
    X=             -5.0450    Y=             -1.9794    Z=              0.0072  Tot=              5.4194
 Quadrupole moment (field-independent basis, Debye-Ang):
   XX=           -126.8568   YY=            -90.1573   ZZ=            -95.2849
   XY=             -9.1484   XZ=             -0.4454   YZ=              0.9639

 Normal termination of Gaussian 16 at Thu May  6 04:28:03 2021.
