 Gaussian 16, Revision A.03,
 Gaussian 16:  EM64L-G16RevA.03 25-Dec-2016

 -------------
 #p 6-31g* mp2
 -------------

 ------------------------------------------------------
 Input file generated by CHIRIPA (05-May-2021 14:53:16)
 ------------------------------------------------------
 Symbolic Z-matrix:
 Charge =  0 Multiplicity = 1

                         Standard orientation:
 ---------------------------------------------------------------------
 Center     Atomic      Atomic             Coordinates (Angstroms)
 Number     Number       Type             X           Y           Z
 ---------------------------------------------------------------------
      1          6           0        3.245165    1.205512   -0.517837
      2          6           0        1.752864    1.383661   -0.236264
      3          6           0        1.149291    2.575900   -0.979272
      4          1           0        3.777487    2.123761   -0.234293
      5          1           0        3.394611    1.078775   -1.599039
      6          1           0        1.606140    1.508641    0.844230
      7          1           0        1.224058    0.464811   -0.520333
      8          1           0        1.266378    2.455041   -2.061069
      9          1           0        1.650631    3.504802   -0.688753
     10          1           0        0.081811    2.684735   -0.763629
     11          6           0        3.862901    0.017687    0.217829
     12          6           0        5.355203   -0.160463   -0.063744
     13          6           0        5.958775   -1.352702    0.679264
     14          1           0        3.713455    0.144424    1.299031
     15          1           0        3.330580   -0.900562   -0.065715
     16          1           0        5.884008    0.758388    0.220325
     17          1           0        5.501926   -0.285443   -1.144238
     18          1           0        5.457436   -2.281603    0.388745
     19          1           0        5.841689   -1.231842    1.761061
     20          1           0        7.026255   -1.461537    0.463621
     21          6           0       -4.541263    1.287166    0.486922
     22          6           0       -3.320967    1.364283    1.166225
     23          6           0       -2.335947    0.391951    0.969110
     24          6           0       -2.605987   -0.648443    0.081447
     25          6           0       -3.811841   -0.752862   -0.610147
     26          6           0       -4.782380    0.230701   -0.397537
     27          1           0       -5.300826    2.046859    0.646065
     28          1           0       -3.130956    2.183619    1.853704
     29          1           0       -1.382449    0.427312    1.481957
     30          1           0       -3.972203   -1.581494   -1.289169
     31          1           0       -5.729156    0.168260   -0.926460
     32          7           0       -1.570854   -1.683753   -0.135433
     33          8           0       -1.833286   -2.590316   -0.922777
     34          8           0       -0.516687   -1.569062    0.486029
 ---------------------------------------------------------------------

 SCF Done:  E(RHF) =  -669.536335138     A.U. after   15 cycles
 E2 =    -0.2091726934D+01 EUMP2 =    -0.67162806207168D+03

 The electronic state is 1-A.
 Alpha  occ. eigenvalues --  -20.60937 -20.60930 -15.85955 -11.31267 -11.27833
 Alpha  occ. eigenvalues --  -11.27822 -11.27568 -11.26841 -11.26831 -11.20999
 Alpha  occ. eigenvalues --  -11.20976 -11.20808 -11.20796 -11.20615 -11.20484
 Alpha  occ. eigenvalues --   -1.59994  -1.39549  -1.19437  -1.08844  -1.07812
 Alpha  occ. eigenvalues --   -1.04831  -1.02994  -0.95688  -0.95461  -0.86476
 Alpha  occ. eigenvalues --   -0.86230  -0.82522  -0.79044  -0.77670  -0.77493
 Alpha  occ. eigenvalues --   -0.72180  -0.71305  -0.70543  -0.65094  -0.64833
 Alpha  occ. eigenvalues --   -0.64438  -0.62178  -0.60390  -0.58839  -0.57070
 Alpha  occ. eigenvalues --   -0.55336  -0.54749  -0.53165  -0.52919  -0.52183
 Alpha  occ. eigenvalues --   -0.51880  -0.49398  -0.48955  -0.48940  -0.47371
 Alpha  occ. eigenvalues --   -0.46112  -0.45300  -0.45124  -0.44614  -0.43227
 Alpha  occ. eigenvalues --   -0.37414  -0.36427
 Alpha virt. eigenvalues --    0.04912   0.11191   0.16379   0.21101   0.23411
 Alpha virt. eigenvalues --    0.24479   0.26579   0.27456   0.27661   0.28466
 Alpha virt. eigenvalues --    0.28945   0.30741   0.31631   0.31930   0.32194

 Mulliken charges:
               1
     1  C   -0.297843
     2  C   -0.306873
     3  C   -0.476135
     4  H    0.145382
     5  H    0.148831
     6  H    0.144367
     7  H    0.171397
     8  H    0.155852
     9  H    0.152303
    10  H    0.152987
    11  C   -0.299786
    12  C   -0.299398
    13  C   -0.475536
    14  H    0.147665
    15  H    0.161583
    16  H    0.148740
    17  H    0.151069
    18  H    0.158252
    19  H    0.154131
    20  H    0.157752
    21  C   -0.170404
    22  C   -0.219359
    23  C   -0.171503
    24  C    0.157863
    25  C   -0.170722
    26  C   -0.218536
    27  H    0.225999
    28  H    0.224126
    29  H    0.278701
    30  H    0.275677
    31  H    0.223753
    32  N    0.487557
    33  O   -0.459215
    34  O   -0.458677
 Sum of Mulliken charges =  -0.00000

 Dipole moment (field-independent basis, Debye):
    X=             -3.7949    Y=              3.4344    Z=              0.7551  Tot=              5.1736
 Quadrupole moment (field-independent basis, Debye-Ang):
   XX=            -75.0260   YY=            -99.7024   ZZ=            -92.6830
   XY=             -5.4845   XZ=             -0.2270   YZ=              2.5809

 Normal termination of Gaussian 16 at Wed May  5 18:45:30 2021.
