 Gaussian 16, Revision A.03,
 Gaussian 16:  EM64L-G16RevA.03 25-Dec-2016

 -------------
 #p 6-31g* mp2
 -------------

 ------------------------------------------------------
 Input file generated by CHIRIPA (05-May-2021 14:53:13)
 ------------------------------------------------------
 Symbolic Z-matrix:
 Charge =  0 Multiplicity = 1

                         Standard orientation:
 ---------------------------------------------------------------------
 Center     Atomic      Atomic             Coordinates (Angstroms)
 Number     Number       Type             X           Y           Z
 ---------------------------------------------------------------------
      1          6           0       -3.407387   -0.331790   -0.515616
      2          6           0       -3.373991   -1.708713    0.148427
      3          6           0       -3.915184   -2.815181   -0.757460
      4          1           0       -4.440439   -0.096995   -0.806508
      5          1           0       -2.821232   -0.366031   -1.444403
      6          1           0       -3.958889   -1.671514    1.076396
      7          1           0       -2.340927   -1.940175    0.437945
      8          1           0       -3.326871   -2.881292   -1.678393
      9          1           0       -4.954026   -2.611104   -1.036315
     10          1           0       -3.882084   -3.791003   -0.262952
     11          6           0       -2.869534    0.784751    0.377568
     12          6           0       -2.902930    2.161674   -0.286476
     13          6           0       -2.361737    3.268142    0.619411
     14          1           0       -3.455688    0.818992    1.306355
     15          1           0       -1.836481    0.549956    0.668460
     16          1           0       -3.935994    2.393136   -0.575994
     17          1           0       -2.318032    2.124474   -1.214445
     18          1           0       -1.322894    3.064064    0.898266
     19          1           0       -2.950050    3.334252    1.540345
     20          1           0       -2.394836    4.243963    0.124904
     21          6           0        2.182567   -2.637509    0.542759
     22          6           0        3.342637   -2.171330   -0.084486
     23          6           0        3.502638   -0.810109   -0.360212
     24          6           0        2.477962    0.060941    0.006667
     25          6           0        1.310447   -0.372861    0.632776
     26          6           0        1.171956   -1.738372    0.898760
     27          1           0        2.066630   -3.696605    0.753165
     28          1           0        4.129136   -2.867321   -0.362088
     29          1           0        4.390394   -0.422153   -0.844771
     30          1           0        0.543752    0.345089    0.897628
     31          1           0        0.269948   -2.097577    1.385995
     32          7           0        2.635961    1.504276   -0.280075
     33          8           0        1.718594    2.251282    0.053172
     34          8           0        3.674179    1.861226   -0.832642
 ---------------------------------------------------------------------

 SCF Done:  E(RHF) =  -669.535676743     A.U. after   15 cycles
 E2 =    -0.2092586437D+01 EUMP2 =    -0.67162826317962D+03

 The electronic state is 1-A.
 Alpha  occ. eigenvalues --  -20.60860 -20.60855 -15.85907 -11.31240 -11.27812
 Alpha  occ. eigenvalues --  -11.27798 -11.27547 -11.26821 -11.26807 -11.22155
 Alpha  occ. eigenvalues --  -11.21702 -11.21638 -11.21528 -11.21413 -11.20556
 Alpha  occ. eigenvalues --   -1.59928  -1.39483  -1.19414  -1.08813  -1.08662
 Alpha  occ. eigenvalues --   -1.04815  -1.03643  -0.96071  -0.95653  -0.87093
 Alpha  occ. eigenvalues --   -0.86213  -0.82487  -0.79751  -0.78482  -0.77525
 Alpha  occ. eigenvalues --   -0.72126  -0.71247  -0.70532  -0.65325  -0.65064
 Alpha  occ. eigenvalues --   -0.64825  -0.62157  -0.61021  -0.59502  -0.57683
 Alpha  occ. eigenvalues --   -0.55384  -0.55276  -0.53142  -0.52946  -0.52744
 Alpha  occ. eigenvalues --   -0.52473  -0.50017  -0.48879  -0.48874  -0.48037
 Alpha  occ. eigenvalues --   -0.46789  -0.45994  -0.45875  -0.44892  -0.43926
 Alpha  occ. eigenvalues --   -0.37392  -0.36408
 Alpha virt. eigenvalues --    0.04974   0.11196   0.16391   0.19073   0.23083
 Alpha virt. eigenvalues --    0.23190   0.24728   0.26751   0.27411   0.27943
 Alpha virt. eigenvalues --    0.29113   0.31086   0.31616   0.31652   0.32228

 Mulliken charges:
               1
     1  C   -0.298328
     2  C   -0.300597
     3  C   -0.475792
     4  H    0.152539
     5  H    0.152072
     6  H    0.153139
     7  H    0.142266
     8  H    0.156521
     9  H    0.158129
    10  H    0.158464
    11  C   -0.300811
    12  C   -0.299405
    13  C   -0.481273
    14  H    0.150173
    15  H    0.140365
    16  H    0.150873
    17  H    0.156797
    18  H    0.170068
    19  H    0.150306
    20  H    0.163141
    21  C   -0.170842
    22  C   -0.218729
    23  C   -0.170245
    24  C    0.159393
    25  C   -0.179664
    26  C   -0.223874
    27  H    0.226156
    28  H    0.223723
    29  H    0.275749
    30  H    0.285469
    31  H    0.227505
    32  N    0.489341
    33  O   -0.463042
    34  O   -0.459590
 Sum of Mulliken charges =  -0.00000

 Dipole moment (field-independent basis, Debye):
    X=             -0.5492    Y=             -4.9740    Z=              0.9210  Tot=              5.0883
 Quadrupole moment (field-independent basis, Debye-Ang):
   XX=            -92.6056   YY=            -96.2881   ZZ=            -94.8203
   XY=            -14.2908   XZ=              0.1109   YZ=             -0.0225

 Normal termination of Gaussian 16 at Wed May  5 20:10:54 2021.
