 Gaussian 16, Revision A.03,
 Gaussian 16:  EM64L-G16RevA.03 25-Dec-2016

 -------------
 #p 6-31g* mp2
 -------------

 ------------------------------------------------------
 Input file generated by CHIRIPA (05-May-2021 14:53:17)
 ------------------------------------------------------
 Symbolic Z-matrix:
 Charge =  0 Multiplicity = 1

                         Standard orientation:
 ---------------------------------------------------------------------
 Center     Atomic      Atomic             Coordinates (Angstroms)
 Number     Number       Type             X           Y           Z
 ---------------------------------------------------------------------
      1          6           0        3.198409    0.664679   -0.708479
      2          6           0        2.198976    1.589953   -0.013506
      3          6           0        1.066766    2.038346   -0.938081
      4          1           0        3.619279    1.180311   -1.582513
      5          1           0        2.666059   -0.216770   -1.091945
      6          1           0        2.733282    2.468733    0.369744
      7          1           0        1.780579    1.072129    0.859086
      8          1           0        0.508243    1.173545   -1.310603
      9          1           0        1.466359    2.578084   -1.802725
     10          1           0        0.363936    2.698985   -0.420931
     11          6           0        4.336137    0.207910    0.202929
     12          6           0        5.335569   -0.717365   -0.492043
     13          6           0        6.467780   -1.165757    0.432532
     14          1           0        4.868487    1.089359    0.586395
     15          1           0        3.915267   -0.307723    1.076964
     16          1           0        5.753967   -0.199540   -1.364636
     17          1           0        4.801264   -1.596144   -0.875293
     18          1           0        6.068187   -1.705495    1.297176
     19          1           0        7.026303   -0.300956    0.805054
     20          1           0        7.170610   -1.826397   -0.084618
     21          6           0       -0.558988   -0.732252    0.924358
     22          6           0       -1.334267    0.241826    1.562036
     23          6           0       -2.656442    0.467270    1.167601
     24          6           0       -3.173677   -0.303016    0.127208
     25          6           0       -2.426563   -1.280862   -0.527718
     26          6           0       -1.106645   -1.489153   -0.116649
     27          1           0        0.467232   -0.900720    1.237225
     28          1           0       -0.911578    0.831141    2.370792
     29          1           0       -3.278976    1.214886    1.643984
     30          1           0       -2.875608   -1.852564   -1.330796
     31          1           0       -0.506894   -2.246314   -0.613690
     32          7           0       -4.572210   -0.073429   -0.299167
     33          8           0       -5.004520   -0.765354   -1.218397
     34          8           0       -5.209588    0.794100    0.293944
 ---------------------------------------------------------------------

 SCF Done:  E(RHF) =  -669.534533938     A.U. after   15 cycles
 E2 =    -0.2093577218D+01 EUMP2 =    -0.67162811115580D+03

 The electronic state is 1-A.
 Alpha  occ. eigenvalues --  -20.60787 -20.60781 -15.85843 -11.31225 -11.27824
 Alpha  occ. eigenvalues --  -11.27808 -11.27543 -11.26829 -11.26805 -11.22404
 Alpha  occ. eigenvalues --  -11.22303 -11.22223 -11.22165 -11.21676 -11.21510
 Alpha  occ. eigenvalues --   -1.59862  -1.39415  -1.19415  -1.09220  -1.08799
 Alpha  occ. eigenvalues --   -1.04821  -1.04214  -0.96636  -0.95635  -0.87643
 Alpha  occ. eigenvalues --   -0.86219  -0.82471  -0.80290  -0.79035  -0.77505
 Alpha  occ. eigenvalues --   -0.72061  -0.71186  -0.70577  -0.65869  -0.65069
 Alpha  occ. eigenvalues --   -0.64814  -0.62170  -0.61644  -0.60008  -0.58255
 Alpha  occ. eigenvalues --   -0.55987  -0.55333  -0.53337  -0.53087  -0.52990
 Alpha  occ. eigenvalues --   -0.52910  -0.50543  -0.48822  -0.48814  -0.48584
 Alpha  occ. eigenvalues --   -0.47338  -0.46559  -0.46509  -0.44817  -0.44488
 Alpha  occ. eigenvalues --   -0.37327  -0.36415
 Alpha virt. eigenvalues --    0.05012   0.11120   0.16417   0.19329   0.22745
 Alpha virt. eigenvalues --    0.24076   0.25225   0.25765   0.26789   0.27868
 Alpha virt. eigenvalues --    0.29427   0.30783   0.31050   0.31207   0.32145

 Mulliken charges:
               1
     1  C   -0.299014
     2  C   -0.300210
     3  C   -0.476031
     4  H    0.154674
     5  H    0.144217
     6  H    0.154899
     7  H    0.138711
     8  H    0.159699
     9  H    0.156421
    10  H    0.160677
    11  C   -0.297854
    12  C   -0.299695
    13  C   -0.475967
    14  H    0.152678
    15  H    0.142902
    16  H    0.154661
    17  H    0.150221
    18  H    0.154229
    19  H    0.156777
    20  H    0.162391
    21  C   -0.167758
    22  C   -0.216497
    23  C   -0.171010
    24  C    0.158600
    25  C   -0.170521
    26  C   -0.221676
    27  H    0.227547
    28  H    0.223986
    29  H    0.275892
    30  H    0.275970
    31  H    0.223607
    32  N    0.488130
    33  O   -0.460349
    34  O   -0.460306
 Sum of Mulliken charges =  -0.00000

 Dipole moment (field-independent basis, Debye):
    X=              4.9713    Y=             -0.7654    Z=              1.4411  Tot=              5.2323
 Quadrupole moment (field-independent basis, Debye-Ang):
   XX=           -126.6027   YY=            -91.5424   ZZ=            -92.6010
   XY=              1.5934   XZ=             -5.4005   YZ=              2.2498

 Normal termination of Gaussian 16 at Thu May  6 01:11:19 2021.
