 Gaussian 16, Revision A.03,
 Gaussian 16:  EM64L-G16RevA.03 25-Dec-2016

 -------------
 #p 6-31g* mp2
 -------------

 ------------------------------------------------------
 Input file generated by CHIRIPA (05-May-2021 14:51:10)
 ------------------------------------------------------
 Symbolic Z-matrix:
 Charge =  0 Multiplicity = 1

                         Standard orientation:
 ---------------------------------------------------------------------
 Center     Atomic      Atomic             Coordinates (Angstroms)
 Number     Number       Type             X           Y           Z
 ---------------------------------------------------------------------
      1          6           0       -4.117728   -0.186629   -0.110185
      2          6           0       -3.820689   -1.568529   -0.693372
      3          6           0       -4.929500   -2.581692   -0.407305
      4          1           0       -4.262667   -0.277080    0.975060
      5          1           0       -5.067330    0.181392   -0.522753
      6          1           0       -2.871238   -1.933238   -0.280884
      7          1           0       -3.676252   -1.474749   -1.777327
      8          1           0       -5.879589   -2.243610   -0.833488
      9          1           0       -5.070002   -2.704704    0.671458
     10          1           0       -4.696615   -3.562656   -0.833139
     11          6           0       -3.018435    0.837173   -0.387872
     12          6           0       -3.315474    2.219073    0.195315
     13          6           0       -2.206664    3.232236   -0.090752
     14          1           0       -2.068834    0.469152    0.024696
     15          1           0       -2.873496    0.927624   -1.473117
     16          1           0       -3.459912    2.125293    1.279270
     17          1           0       -4.264925    2.583782   -0.217173
     18          1           0       -2.066162    3.355248   -1.169515
     19          1           0       -1.256574    2.894154    0.335431
     20          1           0       -2.439549    4.213200    0.335082
     21          6           0        4.314369   -0.172109    0.304057
     22          6           0        5.033368   -0.166650   -1.045385
     23          6           0        6.525667    0.141291   -0.918857
     24          1           0        4.448852    0.804982    0.787951
     25          1           0        4.788420   -0.914258    0.961236
     26          1           0        4.557221    0.574291   -1.700295
     27          1           0        4.896996   -1.143802   -1.526209
     28          1           0        7.020480   -0.603423   -0.287063
     29          1           0        6.678774    1.124434   -0.462139
     30          1           0        7.020035    0.140120   -1.895309
     31          6           0        2.821795   -0.478435    0.194000
     32          6           0        2.102796   -0.483894    1.543443
     33          6           0        0.610496   -0.791835    1.416913
     34          1           0        2.347743    0.263714   -0.463178
     35          1           0        2.687311   -1.455526   -0.289894
     36          1           0        2.239167    0.493259    2.024266
     37          1           0        2.578942   -1.224835    2.198352
     38          1           0        0.457389   -1.774978    0.960196
     39          1           0        0.115684   -0.047122    0.785120
     40          1           0        0.116129   -0.790664    2.393366
 ---------------------------------------------------------------------

 SCF Done:  E(RHF) =  -470.733318159     A.U. after   11 cycles
 E2 =    -0.1582772540D+01 EUMP2 =    -0.47231609069978D+03

 The electronic state is 1-A.
 Alpha  occ. eigenvalues --  -11.21655 -11.21611 -11.21573 -11.21540 -11.21429
 Alpha  occ. eigenvalues --  -11.21368 -11.21340 -11.21276 -11.21150 -11.21081
 Alpha  occ. eigenvalues --  -11.21078 -11.21028  -1.08460  -1.08381  -1.03568
 Alpha  occ. eigenvalues --   -1.03493  -0.96025  -0.95941  -0.87046  -0.86956
 Alpha  occ. eigenvalues --   -0.79645  -0.79546  -0.78289  -0.78174  -0.65122
 Alpha  occ. eigenvalues --   -0.64990  -0.61012  -0.60848  -0.59385  -0.59313
 Alpha  occ. eigenvalues --   -0.57649  -0.57540  -0.55372  -0.55183  -0.52721
 Alpha  occ. eigenvalues --   -0.52645  -0.52487  -0.52337  -0.50049  -0.49827
 Alpha  occ. eigenvalues --   -0.48001  -0.47855  -0.46763  -0.46519  -0.45912
 Alpha  occ. eigenvalues --   -0.45755  -0.45713  -0.45410  -0.43818  -0.43741
 Alpha virt. eigenvalues --    0.21229   0.22974   0.23746   0.24597   0.25476
 Alpha virt. eigenvalues --    0.26631   0.27157   0.27583   0.27958   0.29383
 Alpha virt. eigenvalues --    0.29985   0.31585   0.31850   0.31895   0.32156

 Mulliken charges:
               1
     1  C   -0.297382
     2  C   -0.300493
     3  C   -0.475672
     4  H    0.149558
     5  H    0.149163
     6  H    0.153357
     7  H    0.151613
     8  H    0.154989
     9  H    0.155141
    10  H    0.159999
    11  C   -0.307959
    12  C   -0.298933
    13  C   -0.476382
    14  H    0.159745
    15  H    0.149007
    16  H    0.151921
    17  H    0.151846
    18  H    0.155109
    19  H    0.154596
    20  H    0.160365
    21  C   -0.298351
    22  C   -0.299714
    23  C   -0.475732
    24  H    0.149742
    25  H    0.149543
    26  H    0.152122
    27  H    0.151977
    28  H    0.155168
    29  H    0.155234
    30  H    0.160324
    31  C   -0.298573
    32  C   -0.299439
    33  C   -0.482421
    34  H    0.150003
    35  H    0.149818
    36  H    0.152062
    37  H    0.152182
    38  H    0.155716
    39  H    0.160563
    40  H    0.160189
 Sum of Mulliken charges =  -0.00000

 Dipole moment (field-independent basis, Debye):
    X=              0.0315    Y=             -0.0107    Z=              0.0058  Tot=              0.0338
 Quadrupole moment (field-independent basis, Debye-Ang):
   XX=            -86.3172   YY=            -84.5055   ZZ=            -84.0531
   XY=             -1.1549   XZ=              0.5608   YZ=             -0.2174

 Normal termination of Gaussian 16 at Thu May  6 06:58:07 2021.
