 Gaussian 16, Revision A.03,
 Gaussian 16:  EM64L-G16RevA.03 25-Dec-2016

 -------------
 #p 6-31g* mp2
 -------------

 ------------------------------------------------------
 Input file generated by CHIRIPA (05-May-2021 14:53:14)
 ------------------------------------------------------
 Symbolic Z-matrix:
 Charge =  0 Multiplicity = 1

                         Standard orientation:
 ---------------------------------------------------------------------
 Center     Atomic      Atomic             Coordinates (Angstroms)
 Number     Number       Type             X           Y           Z
 ---------------------------------------------------------------------
      1          6           0       -4.049523    0.128858    0.128737
      2          6           0       -5.523866   -0.021588   -0.247645
      3          6           0       -6.408766    1.050875    0.388413
      4          1           0       -3.950647    0.086776    1.222080
      5          1           0       -3.699522    1.124039   -0.178686
      6          1           0       -5.870610   -1.016706    0.059153
      7          1           0       -5.619221    0.020665   -1.340228
      8          1           0       -6.090463    2.049782    0.073027
      9          1           0       -6.343280    1.006517    1.480358
     10          1           0       -7.458608    0.924440    0.106089
     11          6           0       -3.152202   -0.936000   -0.499452
     12          6           0       -1.677859   -0.785555   -0.123070
     13          6           0       -0.792959   -1.858017   -0.759127
     14          1           0       -3.502203   -1.931181   -0.192029
     15          1           0       -3.251078   -0.893919   -1.592794
     16          1           0       -1.582504   -0.827807    0.969514
     17          1           0       -1.331115    0.209563   -0.429867
     18          1           0       -0.858445   -1.813660   -1.851073
     19          1           0       -1.111262   -2.856924   -0.443741
     20          1           0        0.256883   -1.731582   -0.476803
     21          6           0        2.322154    2.771927   -0.154783
     22          6           0        3.163973    2.111391   -1.055646
     23          6           0        3.443032    0.750413   -0.899396
     24          6           0        2.860644    0.077791    0.173774
     25          6           0        2.017866    0.707936    1.088068
     26          6           0        1.752790    2.069330    0.912317
     27          1           0        2.110806    3.829329   -0.283737
     28          1           0        3.607547    2.654503   -1.885295
     29          1           0        4.091164    0.214373   -1.582041
     30          1           0        1.590422    0.139837    1.905365
     31          1           0        1.098648    2.579725    1.613487
     32          7           0        3.148668   -1.363235    0.349511
     33          8           0        2.623146   -1.933277    1.303196
     34          8           0        3.894493   -1.895384   -0.469758
 ---------------------------------------------------------------------

 SCF Done:  E(RHF) =  -669.535798647     A.U. after   15 cycles
 E2 =    -0.2092323117D+01 EUMP2 =    -0.67162812176423D+03

 The electronic state is 1-A.
 Alpha  occ. eigenvalues --  -20.60869 -20.60862 -15.85893 -11.31233 -11.27806
 Alpha  occ. eigenvalues --  -11.27800 -11.27544 -11.26814 -11.26805 -11.21674
 Alpha  occ. eigenvalues --  -11.21519 -11.21467 -11.21331 -11.21185 -11.20705
 Alpha  occ. eigenvalues --   -1.59934  -1.39487  -1.19410  -1.08813  -1.08431
 Alpha  occ. eigenvalues --   -1.04805  -1.03484  -0.95917  -0.95649  -0.86930
 Alpha  occ. eigenvalues --   -0.86205  -0.82479  -0.79559  -0.78256  -0.77530
 Alpha  occ. eigenvalues --   -0.72119  -0.71278  -0.70516  -0.65067  -0.65058
 Alpha  occ. eigenvalues --   -0.64806  -0.62153  -0.60878  -0.59301  -0.57546
 Alpha  occ. eigenvalues --   -0.55311  -0.55199  -0.53146  -0.52895  -0.52578
 Alpha  occ. eigenvalues --   -0.52334  -0.49853  -0.48882  -0.48877  -0.47878
 Alpha  occ. eigenvalues --   -0.46600  -0.45792  -0.45720  -0.44891  -0.43713
 Alpha  occ. eigenvalues --   -0.37381  -0.36389
 Alpha virt. eigenvalues --    0.04987   0.11202   0.16466   0.21257   0.22838
 Alpha virt. eigenvalues --    0.24173   0.26447   0.26955   0.27640   0.27838
 Alpha virt. eigenvalues --    0.28449   0.30579   0.31413   0.31710   0.31847

 Mulliken charges:
               1
     1  C   -0.297736
     2  C   -0.299578
     3  C   -0.475585
     4  H    0.148569
     5  H    0.146358
     6  H    0.153211
     7  H    0.152081
     8  H    0.153657
     9  H    0.154906
    10  H    0.160750
    11  C   -0.298216
    12  C   -0.300916
    13  C   -0.475502
    14  H    0.151495
    15  H    0.149591
    16  H    0.149263
    17  H    0.148224
    18  H    0.152836
    19  H    0.159503
    20  H    0.162255
    21  C   -0.170903
    22  C   -0.218631
    23  C   -0.170772
    24  C    0.155701
    25  C   -0.170015
    26  C   -0.218511
    27  H    0.225798
    28  H    0.223599
    29  H    0.275849
    30  H    0.276247
    31  H    0.224160
    32  N    0.489255
    33  O   -0.458560
    34  O   -0.458385
 Sum of Mulliken charges =  -0.00000

 Dipole moment (field-independent basis, Debye):
    X=             -0.9278    Y=              5.0260    Z=             -0.6176  Tot=              5.1481
 Quadrupole moment (field-independent basis, Debye-Ang):
   XX=           -100.0209   YY=            -94.5112   ZZ=            -91.4548
   XY=             15.4107   XZ=             -4.5604   YZ=             -0.0368

 Normal termination of Gaussian 16 at Thu May  6 02:37:31 2021.
