 Gaussian 16, Revision A.03,
 Gaussian 16:  EM64L-G16RevA.03 25-Dec-2016

 -------------
 #p 6-31g* mp2
 -------------

 ------------------------------------------------------
 Input file generated by CHIRIPA (05-May-2021 14:55:21)
 ------------------------------------------------------
 Symbolic Z-matrix:
 Charge =  0 Multiplicity = 1

                         Standard orientation:
 ---------------------------------------------------------------------
 Center     Atomic      Atomic             Coordinates (Angstroms)
 Number     Number       Type             X           Y           Z
 ---------------------------------------------------------------------
      1          6           0        0.812784   -0.707540    2.154158
      2          6           0        1.323907    0.565086    1.879026
      3          6           0        2.216102    0.758213    0.820141
      4          6           0        2.577398   -0.348471    0.053326
      5          6           0        2.085404   -1.628785    0.302381
      6          6           0        1.194491   -1.798490    1.366346
      7          1           0        0.120203   -0.848468    2.978698
      8          1           0        1.029226    1.414159    2.489177
      9          1           0        2.627017    1.732527    0.585026
     10          1           0        2.397681   -2.455942   -0.323489
     11          1           0        0.799142   -2.787972    1.577698
     12          7           0        3.521247   -0.156414   -1.070357
     13          8           0        3.823910   -1.147648   -1.731029
     14          8           0        3.940501    0.981718   -1.269151
     15          6           0       -2.849161    1.154012   -0.579246
     16          6           0       -1.931190    1.900510    0.389287
     17          6           0       -1.437647    3.233952   -0.172978
     18          1           0       -2.312964    0.980008   -1.522198
     19          1           0       -3.710326    1.791701   -0.822442
     20          1           0       -1.072717    1.261063    0.631664
     21          1           0       -2.469570    2.072588    1.330112
     22          1           0       -2.282125    3.893373   -0.397973
     23          1           0       -0.877335    3.077238   -1.100390
     24          1           0       -0.783030    3.750813    0.535677
     25          6           0       -3.350750   -0.180893   -0.031372
     26          6           0       -4.268722   -0.927391   -0.999904
     27          6           0       -4.762265   -2.260833   -0.437639
     28          1           0       -2.489587   -0.818582    0.211825
     29          1           0       -3.886948   -0.006890    0.911581
     30          1           0       -3.730342   -1.099469   -1.940730
     31          1           0       -5.127195   -0.287944   -1.242281
     32          1           0       -5.322577   -2.104119    0.489772
     33          1           0       -3.917788   -2.920254   -0.212644
     34          1           0       -5.416882   -2.777694   -1.146294
 ---------------------------------------------------------------------

 SCF Done:  E(RHF) =  -669.535128882     A.U. after   15 cycles
 E2 =    -0.2093041667D+01 EUMP2 =    -0.67162817054878D+03

 The electronic state is 1-A.
 Alpha  occ. eigenvalues --  -20.60844 -20.60839 -15.85899 -11.31298 -11.27863
 Alpha  occ. eigenvalues --  -11.27851 -11.27603 -11.26895 -11.26863 -11.21923
 Alpha  occ. eigenvalues --  -11.21850 -11.21766 -11.21653 -11.21445 -11.21418
 Alpha  occ. eigenvalues --   -1.59919  -1.39472  -1.19481  -1.08879  -1.08751
 Alpha  occ. eigenvalues --   -1.04889  -1.03867  -0.96327  -0.95689  -0.87340
 Alpha  occ. eigenvalues --   -0.86276  -0.82518  -0.79940  -0.78596  -0.77559
 Alpha  occ. eigenvalues --   -0.72115  -0.71244  -0.70562  -0.65404  -0.65124
 Alpha  occ. eigenvalues --   -0.64871  -0.62227  -0.61273  -0.59710  -0.57952
 Alpha  occ. eigenvalues --   -0.55615  -0.55361  -0.53285  -0.53002  -0.52960
 Alpha  occ. eigenvalues --   -0.52748  -0.50253  -0.48878  -0.48868  -0.48258
 Alpha  occ. eigenvalues --   -0.46960  -0.46131  -0.46040  -0.44869  -0.44125
 Alpha  occ. eigenvalues --   -0.37401  -0.36421
 Alpha virt. eigenvalues --    0.04955   0.11097   0.16403   0.20893   0.22680
 Alpha virt. eigenvalues --    0.23865   0.26284   0.26524   0.26992   0.28196
 Alpha virt. eigenvalues --    0.28608   0.30473   0.31173   0.31606   0.32044

 Mulliken charges:
               1
     1  C   -0.169674
     2  C   -0.219989
     3  C   -0.170488
     4  C    0.158614
     5  C   -0.171088
     6  C   -0.218985
     7  H    0.227515
     8  H    0.226242
     9  H    0.276589
    10  H    0.276039
    11  H    0.224222
    12  N    0.488023
    13  O   -0.460181
    14  O   -0.459903
    15  C   -0.297166
    16  C   -0.311297
    17  C   -0.475407
    18  H    0.152671
    19  H    0.150041
    20  H    0.161456
    21  H    0.146264
    22  H    0.157145
    23  H    0.159812
    24  H    0.153459
    25  C   -0.299052
    26  C   -0.299968
    27  C   -0.475431
    28  H    0.147166
    29  H    0.147086
    30  H    0.154146
    31  H    0.153233
    32  H    0.154381
    33  H    0.152407
    34  H    0.162115
 Sum of Mulliken charges =  -0.00000

 Dipole moment (field-independent basis, Debye):
    X=             -3.2536    Y=             -0.7146    Z=              3.9183  Tot=              5.1430
 Quadrupole moment (field-independent basis, Debye-Ang):
   XX=           -112.3017   YY=            -90.4602   ZZ=            -94.5444
   XY=             -1.0239   XZ=             10.2124   YZ=              0.0827

 Normal termination of Gaussian 16 at Thu May  6 06:11:08 2021.
