 Gaussian 16, Revision A.03,
 Gaussian 16:  EM64L-G16RevA.03 25-Dec-2016

 -------------
 #p 6-31g* mp2
 -------------

 ------------------------------------------------------
 Input file generated by CHIRIPA (05-May-2021 14:55:22)
 ------------------------------------------------------
 Symbolic Z-matrix:
 Charge =  0 Multiplicity = 1

                         Standard orientation:
 ---------------------------------------------------------------------
 Center     Atomic      Atomic             Coordinates (Angstroms)
 Number     Number       Type             X           Y           Z
 ---------------------------------------------------------------------
      1          6           0       -3.477255    1.235633    1.556834
      2          6           0       -2.162429    0.842091    1.826795
      3          6           0       -1.501505   -0.053581    0.980923
      4          6           0       -2.188510   -0.538215   -0.131032
      5          6           0       -3.498696   -0.165094   -0.426809
      6          6           0       -4.140024    0.731673    0.432876
      7          1           0       -3.983065    1.931837    2.219293
      8          1           0       -1.645247    1.231857    2.698948
      9          1           0       -0.483780   -0.374989    1.166263
     10          1           0       -3.988254   -0.570661   -1.303887
     11          1           0       -5.161153    1.035547    0.220741
     12          7           0       -1.499192   -1.487002   -1.033829
     13          8           0       -2.126390   -1.899587   -2.006985
     14          8           0       -0.344759   -1.800110   -0.751192
     15          6           0        3.079593    1.197375   -0.274998
     16          6           0        1.814878    1.925886   -0.730796
     17          6           0        2.096969    3.342317   -1.232731
     18          1           0        3.564222    1.780041    0.520351
     19          1           0        3.791933    1.156190   -1.110624
     20          1           0        1.104582    1.964467    0.105032
     21          1           0        1.333099    1.341322   -1.525021
     22          1           0        2.786321    3.319586   -2.082953
     23          1           0        2.556507    3.946271   -0.443639
     24          1           0        1.179111    3.844812   -1.553502
     25          6           0        2.813830   -0.219857    0.229531
     26          6           0        4.078545   -0.948367    0.685330
     27          6           0        3.796452   -2.364799    1.187264
     28          1           0        2.101490   -0.178672    1.065157
     29          1           0        2.329200   -0.802523   -0.565818
     30          1           0        4.560323   -0.363804    1.479554
     31          1           0        4.788839   -0.986948   -0.150498
     32          1           0        3.336915   -2.968753    0.398173
     33          1           0        3.107100   -2.342068    2.037487
     34          1           0        4.714312   -2.867293    1.508035
 ---------------------------------------------------------------------

 SCF Done:  E(RHF) =  -669.535825997     A.U. after   15 cycles
 E2 =    -0.2092869684D+01 EUMP2 =    -0.67162869568054D+03

 The electronic state is 1-A.
 Alpha  occ. eigenvalues --  -20.60858 -20.60852 -15.85894 -11.31208 -11.27790
 Alpha  occ. eigenvalues --  -11.27758 -11.27528 -11.26794 -11.26784 -11.21404
 Alpha  occ. eigenvalues --  -11.21125 -11.21058 -11.20951 -11.20800 -11.20503
 Alpha  occ. eigenvalues --   -1.59923  -1.39478  -1.19386  -1.08792  -1.08047
 Alpha  occ. eigenvalues --   -1.04785  -1.03174  -0.95654  -0.95592  -0.86628
 Alpha  occ. eigenvalues --   -0.86184  -0.82473  -0.79252  -0.77958  -0.77399
 Alpha  occ. eigenvalues --   -0.72118  -0.71236  -0.70501  -0.65053  -0.64830
 Alpha  occ. eigenvalues --   -0.64639  -0.62132  -0.60578  -0.58994  -0.57217
 Alpha  occ. eigenvalues --   -0.55298  -0.54892  -0.53117  -0.52888  -0.52329
 Alpha  occ. eigenvalues --   -0.52020  -0.49552  -0.48886  -0.48877  -0.47561
 Alpha  occ. eigenvalues --   -0.46295  -0.45459  -0.45353  -0.44675  -0.43412
 Alpha  occ. eigenvalues --   -0.37365  -0.36368
 Alpha virt. eigenvalues --    0.04970   0.11243   0.16422   0.20582   0.23232
 Alpha virt. eigenvalues --    0.24489   0.25162   0.27503   0.27774   0.28291
 Alpha virt. eigenvalues --    0.29700   0.30957   0.31644   0.32012   0.32272

 Mulliken charges:
               1
     1  C   -0.170133
     2  C   -0.221881
     3  C   -0.172536
     4  C    0.155583
     5  C   -0.170154
     6  C   -0.218963
     7  H    0.225738
     8  H    0.223598
     9  H    0.285291
    10  H    0.275558
    11  H    0.223501
    12  N    0.489937
    13  O   -0.459971
    14  O   -0.462760
    15  C   -0.298102
    16  C   -0.300195
    17  C   -0.475299
    18  H    0.145242
    19  H    0.150829
    20  H    0.142930
    21  H    0.158556
    22  H    0.156799
    23  H    0.152842
    24  H    0.158471
    25  C   -0.304888
    26  C   -0.299336
    27  C   -0.475335
    28  H    0.135304
    29  H    0.177492
    30  H    0.146970
    31  H    0.152197
    32  H    0.164977
    33  H    0.150490
    34  H    0.157244
 Sum of Mulliken charges =  -0.00000

 Dipole moment (field-independent basis, Debye):
    X=             -2.5030    Y=              3.1728    Z=              2.9955  Tot=              5.0303
 Quadrupole moment (field-independent basis, Debye-Ang):
   XX=            -81.2225   YY=           -100.2709   ZZ=            -93.7779
   XY=             -6.3844   XZ=             -4.7162   YZ=             -1.0545

 Normal termination of Gaussian 16 at Thu May  6 10:55:33 2021.
