 Gaussian 16, Revision A.03,
 Gaussian 16:  EM64L-G16RevA.03 25-Dec-2016

 -------------
 #p 6-31g* mp2
 -------------

 ------------------------------------------------------
 Input file generated by CHIRIPA (05-May-2021 14:55:22)
 ------------------------------------------------------
 Symbolic Z-matrix:
 Charge =  0 Multiplicity = 1

                         Standard orientation:
 ---------------------------------------------------------------------
 Center     Atomic      Atomic             Coordinates (Angstroms)
 Number     Number       Type             X           Y           Z
 ---------------------------------------------------------------------
      1          6           0        1.166000   -2.975981   -0.089890
      2          6           0        2.051434   -2.466756   -1.045515
      3          6           0        2.529141   -1.156772   -0.944093
      4          6           0        2.098767   -0.380296    0.130687
      5          6           0        1.217348   -0.858978    1.098806
      6          6           0        0.752512   -2.171884    0.977339
      7          1           0        0.799905   -3.994742   -0.176463
      8          1           0        2.374256   -3.088947   -1.875400
      9          1           0        3.215285   -0.737250   -1.669783
     10          1           0        0.913480   -0.214710    1.914895
     11          1           0        0.064943   -2.564703    1.720970
     12          7           0        2.597681    1.008072    0.248668
     13          8           0        2.203377    1.671856    1.204991
     14          8           0        3.373586    1.406203   -0.617415
     15          6           0       -3.263515    0.453232   -0.248585
     16          6           0       -3.305126   -1.015871    0.173303
     17          6           0       -4.676805   -1.655045   -0.045211
     18          1           0       -4.023723    1.011559    0.314711
     19          1           0       -3.540531    0.530935   -1.309065
     20          1           0       -3.026771   -1.090922    1.232313
     21          1           0       -2.544602   -1.570730   -0.390923
     22          1           0       -4.959033   -1.609612   -1.102038
     23          1           0       -5.443943   -1.127078    0.530422
     24          1           0       -4.684074   -2.705183    0.263038
     25          6           0       -1.898826    1.106103   -0.036195
     26          6           0       -1.857216    2.575207   -0.458083
     27          6           0       -0.485538    3.214380   -0.239569
     28          1           0       -1.621811    1.028399    1.024285
     29          1           0       -1.138620    0.547776   -0.599491
     30          1           0       -2.617740    3.130065    0.106143
     31          1           0       -2.135571    2.650257   -1.517093
     32          1           0        0.281600    2.686414   -0.815201
     33          1           0       -0.203309    3.168948    0.817258
     34          1           0       -0.478269    4.264519   -0.547818
 ---------------------------------------------------------------------

 SCF Done:  E(RHF) =  -669.535072175     A.U. after   15 cycles
 E2 =    -0.2094548699D+01 EUMP2 =    -0.67162962087419D+03

 The electronic state is 1-A.
 Alpha  occ. eigenvalues --  -20.60838 -20.60820 -15.85848 -11.31209 -11.27793
 Alpha  occ. eigenvalues --  -11.27778 -11.27532 -11.26793 -11.26775 -11.21901
 Alpha  occ. eigenvalues --  -11.21438 -11.21378 -11.21249 -11.21121 -11.20090
 Alpha  occ. eigenvalues --   -1.59894  -1.39449  -1.19392  -1.08787  -1.08375
 Alpha  occ. eigenvalues --   -1.04787  -1.03370  -0.95780  -0.95624  -0.86794
 Alpha  occ. eigenvalues --   -0.86181  -0.82460  -0.79482  -0.78186  -0.77485
 Alpha  occ. eigenvalues --   -0.72092  -0.71223  -0.70499  -0.65045  -0.65018
 Alpha  occ. eigenvalues --   -0.64782  -0.62136  -0.60767  -0.59246  -0.57393
 Alpha  occ. eigenvalues --   -0.55295  -0.55053  -0.53195  -0.52885  -0.52461
 Alpha  occ. eigenvalues --   -0.52132  -0.49725  -0.48856  -0.48849  -0.47773
 Alpha  occ. eigenvalues --   -0.46540  -0.45787  -0.45580  -0.44627  -0.43631
 Alpha  occ. eigenvalues --   -0.37361  -0.36337
 Alpha virt. eigenvalues --    0.04992   0.11211   0.16429   0.20862   0.22945
 Alpha virt. eigenvalues --    0.24221   0.25528   0.26745   0.27936   0.28233
 Alpha virt. eigenvalues --    0.29299   0.30046   0.31368   0.31752   0.32157

 Mulliken charges:
               1
     1  C   -0.171697
     2  C   -0.218871
     3  C   -0.171754
     4  C    0.156501
     5  C   -0.166527
     6  C   -0.217099
     7  H    0.225928
     8  H    0.223459
     9  H    0.275643
    10  H    0.275318
    11  H    0.224501
    12  N    0.487935
    13  O   -0.457013
    14  O   -0.460397
    15  C   -0.297530
    16  C   -0.299890
    17  C   -0.475252
    18  H    0.150334
    19  H    0.150165
    20  H    0.145432
    21  H    0.150656
    22  H    0.156395
    23  H    0.156811
    24  H    0.156795
    25  C   -0.299468
    26  C   -0.301346
    27  C   -0.474528
    28  H    0.144653
    29  H    0.150287
    30  H    0.149750
    31  H    0.149314
    32  H    0.153244
    33  H    0.169677
    34  H    0.158573
 Sum of Mulliken charges =  -0.00000

 Dipole moment (field-independent basis, Debye):
    X=             -1.6098    Y=             -4.7981    Z=             -0.3653  Tot=              5.0742
 Quadrupole moment (field-independent basis, Debye-Ang):
   XX=           -102.4287   YY=            -91.6531   ZZ=            -90.7735
   XY=            -10.6217   XZ=             -3.9831   YZ=              0.5446

 Normal termination of Gaussian 16 at Thu May  6 01:29:17 2021.
