 Gaussian 16, Revision A.03,
 Gaussian 16:  EM64L-G16RevA.03 25-Dec-2016

 -------------
 #p 6-31g* mp2
 -------------

 ------------------------------------------------------
 Input file generated by CHIRIPA (05-May-2021 14:53:13)
 ------------------------------------------------------
 Symbolic Z-matrix:
 Charge =  0 Multiplicity = 1

                         Standard orientation:
 ---------------------------------------------------------------------
 Center     Atomic      Atomic             Coordinates (Angstroms)
 Number     Number       Type             X           Y           Z
 ---------------------------------------------------------------------
      1          6           0       -3.300788   -0.688670   -0.558090
      2          6           0       -1.976928   -0.800599    0.198779
      3          6           0       -0.880544   -1.477059   -0.624712
      4          1           0       -3.631267   -1.692997   -0.856512
      5          1           0       -3.137615   -0.124502   -1.486790
      6          1           0       -2.142837   -1.363198    1.126450
      7          1           0       -1.649660    0.204094    0.495600
      8          1           0       -0.686065   -0.914221   -1.543402
      9          1           0       -1.182044   -2.490419   -0.908968
     10          1           0        0.057131   -1.546645   -0.064548
     11          6           0       -4.406680   -0.014587    0.252061
     12          6           0       -5.730539    0.097342   -0.504809
     13          6           0       -6.826924    0.773802    0.318682
     14          1           0       -4.569853   -0.578756    1.180761
     15          1           0       -4.076201    0.989740    0.550482
     16          1           0       -6.057808   -0.907351   -0.801630
     17          1           0       -5.564631    0.659941   -1.432480
     18          1           0       -6.525424    1.787161    0.602939
     19          1           0       -7.021403    0.210964    1.237373
     20          1           0       -7.764599    0.843387   -0.241481
     21          6           0        3.622582   -2.171290    0.212535
     22          6           0        2.648837   -1.659951    1.076755
     23          6           0        2.301852   -0.306317    1.034049
     24          6           0        2.951578    0.511180    0.110552
     25          6           0        3.925773    0.031552   -0.763628
     26          6           0        4.256823   -1.325397   -0.703284
     27          1           0        3.885940   -3.224112    0.252561
     28          1           0        2.154628   -2.314543    1.789013
     29          1           0        1.551565    0.115866    1.691506
     30          1           0        4.401061    0.708726   -1.462881
     31          1           0        5.013419   -1.719750   -1.375663
     32          7           0        2.592675    1.945967    0.056004
     33          8           0        3.179743    2.645377   -0.766682
     34          8           0        1.731094    2.343974    0.836969
 ---------------------------------------------------------------------

 SCF Done:  E(RHF) =  -669.534518820     A.U. after   15 cycles
 E2 =    -0.2092752749D+01 EUMP2 =    -0.67162727156876D+03

 The electronic state is 1-A.
 Alpha  occ. eigenvalues --  -20.60820 -20.60813 -15.85872 -11.31235 -11.27815
 Alpha  occ. eigenvalues --  -11.27811 -11.27560 -11.26823 -11.26812 -11.21578
 Alpha  occ. eigenvalues --  -11.21476 -11.21312 -11.21231 -11.21006 -11.20937
 Alpha  occ. eigenvalues --   -1.59893  -1.39446  -1.19430  -1.08813  -1.08341
 Alpha  occ. eigenvalues --   -1.04850  -1.03459  -0.95918  -0.95643  -0.86930
 Alpha  occ. eigenvalues --   -0.86225  -0.82487  -0.79528  -0.78152  -0.77530
 Alpha  occ. eigenvalues --   -0.72091  -0.71216  -0.70529  -0.65082  -0.64969
 Alpha  occ. eigenvalues --   -0.64827  -0.62193  -0.60852  -0.59344  -0.57568
 Alpha  occ. eigenvalues --   -0.55325  -0.55190  -0.53486  -0.52918  -0.52435
 Alpha  occ. eigenvalues --   -0.52164  -0.49840  -0.48850  -0.48845  -0.47845
 Alpha  occ. eigenvalues --   -0.46552  -0.45695  -0.45610  -0.44850  -0.43728
 Alpha  occ. eigenvalues --   -0.37402  -0.36314
 Alpha virt. eigenvalues --    0.04989   0.11158   0.16403   0.21090   0.23007
 Alpha virt. eigenvalues --    0.24345   0.26582   0.26910   0.27586   0.28102
 Alpha virt. eigenvalues --    0.28849   0.30517   0.31465   0.31765   0.32495

 Mulliken charges:
               1
     1  C   -0.297809
     2  C   -0.302822
     3  C   -0.482655
     4  H    0.147898
     5  H    0.151711
     6  H    0.146733
     7  H    0.159118
     8  H    0.157343
     9  H    0.151476
    10  H    0.162324
    11  C   -0.298943
    12  C   -0.299706
    13  C   -0.475817
    14  H    0.147848
    15  H    0.153204
    16  H    0.150686
    17  H    0.152913
    18  H    0.156655
    19  H    0.154353
    20  H    0.159945
    21  C   -0.169923
    22  C   -0.219602
    23  C   -0.171567
    24  C    0.160616
    25  C   -0.170842
    26  C   -0.218415
    27  H    0.226170
    28  H    0.224866
    29  H    0.277513
    30  H    0.275853
    31  H    0.223781
    32  N    0.488125
    33  O   -0.460196
    34  O   -0.460833
 Sum of Mulliken charges =  -0.00000

 Dipole moment (field-independent basis, Debye):
    X=              1.3652    Y=             -4.9794    Z=              0.1811  Tot=              5.1663
 Quadrupole moment (field-independent basis, Debye-Ang):
   XX=            -86.1150   YY=           -100.0020   ZZ=            -92.5096
   XY=            -13.6210   XZ=             -1.8122   YZ=             -1.6579

 Normal termination of Gaussian 16 at Thu May  6 00:58:34 2021.
