 Gaussian 16, Revision A.03,
 Gaussian 16:  EM64L-G16RevA.03 25-Dec-2016

 -------------
 #p 6-31g* mp2
 -------------

 ------------------------------------------------------
 Input file generated by CHIRIPA (05-May-2021 14:55:20)
 ------------------------------------------------------
 Symbolic Z-matrix:
 Charge =  0 Multiplicity = 1

                         Standard orientation:
 ---------------------------------------------------------------------
 Center     Atomic      Atomic             Coordinates (Angstroms)
 Number     Number       Type             X           Y           Z
 ---------------------------------------------------------------------
      1          6           0        1.306689    0.663813    0.324580
      2          6           0        2.265767    1.093512    1.247645
      3          6           0        3.595243    0.675472    1.136810
      4          6           0        3.932279   -0.176192    0.085922
      5          6           0        2.999695   -0.621665   -0.849562
      6          6           0        1.676062   -0.190897   -0.719237
      7          1           0        0.276190    0.993501    0.418249
      8          1           0        1.981772    1.757300    2.059296
      9          1           0        4.357996    0.992817    1.837465
     10          1           0        3.312987   -1.283271   -1.648025
     11          1           0        0.933354   -0.526212   -1.437564
     12          7           0        5.336642   -0.625490   -0.041730
     13          8           0        5.608081   -1.375883   -0.976539
     14          8           0        6.139351   -0.218748    0.795441
     15          6           0       -4.292170    0.427747   -0.682161
     16          6           0       -3.072181    1.168006   -0.132953
     17          6           0       -2.191884    1.756567   -1.235888
     18          1           0       -3.955061   -0.375237   -1.351876
     19          1           0       -4.885668    1.118767   -1.296690
     20          1           0       -2.481894    0.476166    0.481488
     21          1           0       -3.412226    1.969199    0.535684
     22          1           0       -2.760202    2.467760   -1.844017
     23          1           0       -1.824585    0.966245   -1.898521
     24          1           0       -1.325620    2.281291   -0.821026
     25          6           0       -5.181936   -0.166264    0.408341
     26          6           0       -6.401926   -0.906522   -0.140866
     27          6           0       -7.282222   -1.495084    0.962070
     28          1           0       -4.588438   -0.857283    1.022871
     29          1           0       -5.519045    0.636721    1.078057
     30          1           0       -6.061881   -1.707715   -0.809502
     31          1           0       -6.992211   -0.214683   -0.755307
     32          1           0       -7.649522   -0.704761    1.624703
     33          1           0       -6.713904   -2.206277    1.570198
     34          1           0       -8.148487   -2.019807    0.547207
 ---------------------------------------------------------------------

 SCF Done:  E(RHF) =  -669.535371117     A.U. after   15 cycles
 E2 =    -0.2091322701D+01 EUMP2 =    -0.67162669381804D+03

 The electronic state is 1-A.
 Alpha  occ. eigenvalues --  -20.60719 -20.60714 -15.85773 -11.31127 -11.27697
 Alpha  occ. eigenvalues --  -11.27693 -11.27378 -11.26702 -11.26691 -11.22813
 Alpha  occ. eigenvalues --  -11.22413 -11.22311 -11.22203 -11.22105 -11.21566
 Alpha  occ. eigenvalues --   -1.59795  -1.39349  -1.19296  -1.09314  -1.08688
 Alpha  occ. eigenvalues --   -1.04700  -1.04441  -0.96889  -0.95524  -0.87898
 Alpha  occ. eigenvalues --   -0.86093  -0.82363  -0.80517  -0.79069  -0.77414
 Alpha  occ. eigenvalues --   -0.71990  -0.71118  -0.70432  -0.65943  -0.64945
 Alpha  occ. eigenvalues --   -0.64709  -0.62063  -0.61816  -0.60333  -0.58506
 Alpha  occ. eigenvalues --   -0.56178  -0.55155  -0.53564  -0.53267  -0.53013
 Alpha  occ. eigenvalues --   -0.52788  -0.50814  -0.48829  -0.48746  -0.48743
 Alpha  occ. eigenvalues --   -0.47551  -0.46618  -0.46510  -0.44757  -0.44669
 Alpha  occ. eigenvalues --   -0.37263  -0.36308
 Alpha virt. eigenvalues --    0.05105   0.11343   0.16547   0.19145   0.22501
 Alpha virt. eigenvalues --    0.23966   0.25367   0.25714   0.26529   0.27360
 Alpha virt. eigenvalues --    0.29374   0.29827   0.30904   0.31200   0.31823

 Mulliken charges:
               1
     1  C   -0.177549
     2  C   -0.220256
     3  C   -0.170669
     4  C    0.158315
     5  C   -0.170956
     6  C   -0.221580
     7  H    0.237662
     8  H    0.223446
     9  H    0.275290
    10  H    0.275329
    11  H    0.223538
    12  N    0.488044
    13  O   -0.460636
    14  O   -0.460609
    15  C   -0.298230
    16  C   -0.304524
    17  C   -0.481762
    18  H    0.150152
    19  H    0.152802
    20  H    0.147709
    21  H    0.155977
    22  H    0.164394
    23  H    0.153602
    24  H    0.155562
    25  C   -0.299092
    26  C   -0.300333
    27  C   -0.476203
    28  H    0.149918
    29  H    0.150913
    30  H    0.152692
    31  H    0.153111
    32  H    0.155896
    33  H    0.155849
    34  H    0.162199
 Sum of Mulliken charges =  -0.00000

 Dipole moment (field-independent basis, Debye):
    X=             -5.2392    Y=              1.6048    Z=              0.4212  Tot=              5.4957
 Quadrupole moment (field-independent basis, Debye-Ang):
   XX=           -133.2027   YY=            -93.8710   ZZ=            -92.0749
   XY=              6.9557   XZ=              3.0872   YZ=              2.8749

 Normal termination of Gaussian 16 at Wed May  5 20:33:30 2021.
