 Gaussian 16, Revision A.03,
 Gaussian 16:  EM64L-G16RevA.03 25-Dec-2016

 -------------
 #p 6-31g* mp2
 -------------

 ------------------------------------------------------
 Input file generated by CHIRIPA (05-May-2021 14:51:11)
 ------------------------------------------------------
 Symbolic Z-matrix:
 Charge =  0 Multiplicity = 1

                         Standard orientation:
 ---------------------------------------------------------------------
 Center     Atomic      Atomic             Coordinates (Angstroms)
 Number     Number       Type             X           Y           Z
 ---------------------------------------------------------------------
      1          6           0       -1.864805   -1.269842    0.212871
      2          6           0       -1.522499   -2.567985   -0.519001
      3          6           0       -0.179199   -3.155007   -0.084554
      4          1           0       -1.067442   -0.535191    0.035544
      5          1           0       -1.879520   -1.460095    1.294990
      6          1           0       -1.509795   -2.375655   -1.599493
      7          1           0       -2.320864   -3.299568   -0.340068
      8          1           0       -0.183704   -3.375002    0.987912
      9          1           0        0.631974   -2.445840   -0.278669
     10          1           0        0.045655   -4.082571   -0.620208
     11          6           0       -3.204788   -0.670837   -0.210648
     12          6           0       -3.547094    0.627306    0.521223
     13          6           0       -4.890394    1.214328    0.086777
     14          1           0       -3.190074   -0.480584   -1.292767
     15          1           0       -4.002151   -1.405488   -0.033321
     16          1           0       -2.748729    1.358888    0.342291
     17          1           0       -3.559798    0.434975    1.601716
     18          1           0       -5.701567    0.505160    0.280892
     19          1           0       -4.885890    1.434323   -0.985689
     20          1           0       -5.115248    2.141892    0.622431
     21          6           0        1.836561    1.241048    0.149275
     22          6           0        1.588279    2.633828   -0.430816
     23          6           0        0.187075    3.161833   -0.121574
     24          1           0        1.084995    0.545658   -0.248878
     25          1           0        1.687582    1.272809    1.237480
     26          1           0        1.739034    2.599761   -1.517430
     27          1           0        2.340641    3.325942   -0.031385
     28          1           0        0.029010    3.224493    0.959948
     29          1           0       -0.576017    2.494187   -0.534541
     30          1           0        0.031071    4.158708   -0.545557
     31          6           0        3.233033    0.699631   -0.151498
     32          6           0        3.481314   -0.693149    0.428594
     33          6           0        4.882518   -1.221153    0.119351
     34          1           0        3.382012    0.667870   -1.239704
     35          1           0        3.984599    1.395022    0.246655
     36          1           0        2.728952   -1.385262    0.029161
     37          1           0        3.330559   -0.659082    1.515207
     38          1           0        5.645610   -0.553508    0.532317
     39          1           0        5.040584   -1.283813   -0.962171
     40          1           0        5.038521   -2.218029    0.543335
 ---------------------------------------------------------------------

 SCF Done:  E(RHF) =  -470.732556339     A.U. after   11 cycles
 E2 =    -0.1584892063D+01 EUMP2 =    -0.47231744840235D+03

 The electronic state is 1-A.
 Alpha  occ. eigenvalues --  -11.21659 -11.21600 -11.21590 -11.21541 -11.21441
 Alpha  occ. eigenvalues --  -11.21379 -11.21372 -11.21311 -11.21141 -11.21064
 Alpha  occ. eigenvalues --  -11.21062 -11.21031  -1.08485  -1.08397  -1.03571
 Alpha  occ. eigenvalues --   -1.03503  -0.96019  -0.95958  -0.87061  -0.86952
 Alpha  occ. eigenvalues --   -0.79684  -0.79529  -0.78428  -0.78083  -0.65279
 Alpha  occ. eigenvalues --   -0.64892  -0.61071  -0.60830  -0.59397  -0.59320
 Alpha  occ. eigenvalues --   -0.57668  -0.57527  -0.55368  -0.55206  -0.52709
 Alpha  occ. eigenvalues --   -0.52653  -0.52551  -0.52291  -0.50114  -0.49759
 Alpha  occ. eigenvalues --   -0.48126  -0.47790  -0.46800  -0.46708  -0.46179
 Alpha  occ. eigenvalues --   -0.45761  -0.45712  -0.44941  -0.43815  -0.43758
 Alpha virt. eigenvalues --    0.20172   0.22128   0.23773   0.24284   0.25097
 Alpha virt. eigenvalues --    0.26882   0.26934   0.27160   0.28139   0.29740
 Alpha virt. eigenvalues --    0.30990   0.31545   0.31604   0.31726   0.31991

 Mulliken charges:
               1
     1  C   -0.307186
     2  C   -0.298865
     3  C   -0.483299
     4  H    0.157627
     5  H    0.149766
     6  H    0.151069
     7  H    0.152120
     8  H    0.155769
     9  H    0.161518
    10  H    0.160184
    11  C   -0.297391
    12  C   -0.305775
    13  C   -0.475328
    14  H    0.148611
    15  H    0.149635
    16  H    0.158186
    17  H    0.151843
    18  H    0.154941
    19  H    0.154845
    20  H    0.160366
    21  C   -0.306207
    22  C   -0.299426
    23  C   -0.480416
    24  H    0.156130
    25  H    0.150220
    26  H    0.151704
    27  H    0.152501
    28  H    0.156196
    29  H    0.158456
    30  H    0.160804
    31  C   -0.297352
    32  C   -0.307796
    33  C   -0.475134
    34  H    0.149038
    35  H    0.149917
    36  H    0.159816
    37  H    0.152230
    38  H    0.155084
    39  H    0.154946
    40  H    0.160652
 Sum of Mulliken charges =  -0.00000

 Dipole moment (field-independent basis, Debye):
    X=              0.0333    Y=              0.0209    Z=              0.0229  Tot=              0.0455
 Quadrupole moment (field-independent basis, Debye-Ang):
   XX=            -86.3902   YY=            -84.8583   ZZ=            -83.5456
   XY=              1.3954   XZ=             -0.1081   YZ=             -0.0000

 Normal termination of Gaussian 16 at Thu May  6 00:40:58 2021.
