 Gaussian 16, Revision A.03,
 Gaussian 16:  EM64L-G16RevA.03 25-Dec-2016

 -------------
 #p 6-31g* mp2
 -------------

 ------------------------------------------------------
 Input file generated by CHIRIPA (05-May-2021 14:57:25)
 ------------------------------------------------------
 Symbolic Z-matrix:
 Charge =  0 Multiplicity = 1

                         Standard orientation:
 ---------------------------------------------------------------------
 Center     Atomic      Atomic             Coordinates (Angstroms)
 Number     Number       Type             X           Y           Z
 ---------------------------------------------------------------------
      1          6           0        4.224869    1.867850    0.220597
      2          6           0        4.574617    0.807832   -0.622349
      3          6           0        3.803639   -0.357978   -0.654381
      4          6           0        2.684402   -0.430200    0.173497
      5          6           0        2.310067    0.608815    1.024151
      6          6           0        3.095701    1.765139    1.039713
      7          1           0        4.829476    2.769795    0.239083
      8          1           0        5.451010    0.884814   -1.259574
      9          1           0        4.051574   -1.193703   -1.297428
     10          1           0        1.430802    0.502730    1.647895
     11          1           0        2.821689    2.586781    1.695356
     12          7           0        1.860444   -1.659370    0.148304
     13          8           0        0.879152   -1.698221    0.887353
     14          8           0        2.211520   -2.560667   -0.610013
     15          6           0       -2.717740    2.734863   -0.440601
     16          6           0       -3.715868    2.154003    0.348616
     17          6           0       -3.782248    0.765912    0.501412
     18          6           0       -2.830105   -0.014773   -0.152228
     19          6           0       -1.823628    0.534145   -0.945312
     20          6           0       -1.776466    1.924509   -1.083912
     21          1           0       -2.673639    3.814049   -0.553783
     22          1           0       -4.448199    2.780866    0.849394
     23          1           0       -4.544360    0.289927    1.106425
     24          1           0       -1.107567   -0.116755   -1.432142
     25          1           0       -1.000195    2.372857   -1.697454
     26          7           0       -2.890207   -1.485487    0.002015
     27          8           0       -2.039580   -2.151311   -0.584285
     28          8           0       -3.786803   -1.944559    0.706291
 ---------------------------------------------------------------------

 SCF Done:  E(RHF) =  -868.335589767     A.U. after   16 cycles
 E2 =    -0.2601605414D+01 EUMP2 =    -0.87093719518024D+03

 The electronic state is 1-A.
 Alpha  occ. eigenvalues --  -20.60548 -20.60506 -20.59880 -20.59729 -15.85589
 Alpha  occ. eigenvalues --  -15.84859 -11.31265 -11.30669 -11.27866 -11.27850
 Alpha  occ. eigenvalues --  -11.27653 -11.27301 -11.27285 -11.27157 -11.26944
 Alpha  occ. eigenvalues --  -11.26920 -11.26435 -11.26421  -1.59593  -1.58862
 Alpha  occ. eigenvalues --   -1.39143  -1.38403  -1.19466  -1.18893  -1.08799
 Alpha  occ. eigenvalues --   -1.08210  -1.04903  -1.04366  -0.95578  -0.94969
 Alpha  occ. eigenvalues --   -0.86284  -0.85739  -0.82405  -0.81802  -0.77408
 Alpha  occ. eigenvalues --   -0.76764  -0.71805  -0.71131  -0.70923  -0.70553
 Alpha  occ. eigenvalues --   -0.70146  -0.70008  -0.65100  -0.64895  -0.64536
 Alpha  occ. eigenvalues --   -0.64379  -0.62237  -0.61702  -0.55384  -0.54874
 Alpha  occ. eigenvalues --   -0.53237  -0.52990  -0.52670  -0.52466  -0.48558
 Alpha  occ. eigenvalues --   -0.48529  -0.47885  -0.47813  -0.44562  -0.43574
 Alpha  occ. eigenvalues --   -0.37474  -0.36906  -0.36542  -0.35978
 Alpha virt. eigenvalues --    0.05082   0.05827   0.11105   0.11660   0.16538
 Alpha virt. eigenvalues --    0.17214   0.21273   0.21690   0.27170   0.27538
 Alpha virt. eigenvalues --    0.28182   0.28575   0.30731   0.31231   0.32414

 Mulliken charges:
               1
     1  C   -0.172341
     2  C   -0.218873
     3  C   -0.172028
     4  C    0.155896
     5  C   -0.173274
     6  C   -0.219737
     7  H    0.224839
     8  H    0.223601
     9  H    0.276989
    10  H    0.276569
    11  H    0.222259
    12  N    0.485977
    13  O   -0.452343
    14  O   -0.456920
    15  C   -0.173392
    16  C   -0.219179
    17  C   -0.171827
    18  C    0.161663
    19  C   -0.169571
    20  C   -0.221018
    21  H    0.221700
    22  H    0.221121
    23  H    0.275450
    24  H    0.276808
    25  H    0.219909
    26  N    0.488447
    27  O   -0.444661
    28  O   -0.466063
 Sum of Mulliken charges =  -0.00000

 Dipole moment (field-independent basis, Debye):
    X=              3.1856    Y=              9.1111    Z=             -0.4463  Tot=              9.6623
 Quadrupole moment (field-independent basis, Debye-Ang):
   XX=            -86.8383   YY=           -109.1882   ZZ=           -101.5956
   XY=             -5.8211   XZ=             -2.9504   YZ=              1.9748

 Normal termination of Gaussian 16 at Thu May  6 03:31:14 2021.
