 Gaussian 16, Revision A.03,
 Gaussian 16:  EM64L-G16RevA.03 25-Dec-2016

 -------------
 #p 6-31g* mp2
 -------------

 ------------------------------------------------------
 Input file generated by CHIRIPA (05-May-2021 14:57:25)
 ------------------------------------------------------
 Symbolic Z-matrix:
 Charge =  0 Multiplicity = 1

                         Standard orientation:
 ---------------------------------------------------------------------
 Center     Atomic      Atomic             Coordinates (Angstroms)
 Number     Number       Type             X           Y           Z
 ---------------------------------------------------------------------
      1          6           0        3.298292    2.114790    0.940535
      2          6           0        2.820348    1.960595   -0.364959
      3          6           0        2.669833    0.686338   -0.920082
      4          6           0        3.008318   -0.416828   -0.137943
      5          6           0        3.487023   -0.295814    1.165701
      6          6           0        3.629520    0.988080    1.700359
      7          1           0        3.412102    3.108407    1.363818
      8          1           0        2.562328    2.833819   -0.957371
      9          1           0        2.302045    0.538187   -1.928151
     10          1           0        3.735971   -1.185197    1.731777
     11          1           0        4.000931    1.104813    2.714495
     12          7           0        2.853219   -1.770928   -0.714794
     13          8           0        3.158398   -2.726854   -0.005069
     14          8           0        2.429408   -1.850706   -1.865732
     15          6           0       -1.539332    2.130733   -0.573553
     16          6           0       -0.986504    0.963024   -0.037494
     17          6           0       -1.805026   -0.116526    0.307675
     18          6           0       -3.178368    0.006387    0.102465
     19          6           0       -3.759145    1.156540   -0.429639
     20          6           0       -2.921450    2.223600   -0.767573
     21          1           0       -0.896038    2.964503   -0.838879
     22          1           0        0.086525    0.888092    0.114286
     23          1           0       -1.403500   -1.032230    0.724428
     24          1           0       -4.832397    1.201623   -0.569338
     25          1           0       -3.353556    3.129232   -1.183700
     26          7           0       -4.055049   -1.129874    0.464050
     27          8           0       -5.261924   -0.996585    0.273465
     28          8           0       -3.518715   -2.132248    0.931199
 ---------------------------------------------------------------------

 SCF Done:  E(RHF) =  -868.336378503     A.U. after   16 cycles
 E2 =    -0.2602061761D+01 EUMP2 =    -0.87093844026369D+03

 The electronic state is 1-A.
 Alpha  occ. eigenvalues --  -20.61520 -20.61513 -20.60621 -20.60605 -15.86585
 Alpha  occ. eigenvalues --  -15.85668 -11.32222 -11.31107 -11.28831 -11.28771
 Alpha  occ. eigenvalues --  -11.28574 -11.27910 -11.27783 -11.27692 -11.27628
 Alpha  occ. eigenvalues --  -11.27512 -11.26773 -11.26582  -1.60597  -1.59689
 Alpha  occ. eigenvalues --   -1.40138  -1.39240  -1.20448  -1.19285  -1.09756
 Alpha  occ. eigenvalues --   -1.08690  -1.05869  -1.04686  -0.96541  -0.95511
 Alpha  occ. eigenvalues --   -0.87218  -0.86101  -0.83356  -0.82333  -0.78368
 Alpha  occ. eigenvalues --   -0.77356  -0.72782  -0.71948  -0.71887  -0.71463
 Alpha  occ. eigenvalues --   -0.71011  -0.70456  -0.66048  -0.65808  -0.64942
 Alpha  occ. eigenvalues --   -0.64746  -0.63160  -0.62069  -0.56289  -0.55313
 Alpha  occ. eigenvalues --   -0.54309  -0.53898  -0.53029  -0.52586  -0.49567
 Alpha  occ. eigenvalues --   -0.49528  -0.48651  -0.48637  -0.45478  -0.44628
 Alpha  occ. eigenvalues --   -0.38437  -0.37512  -0.37272  -0.36264
 Alpha virt. eigenvalues --    0.04138   0.05166   0.10035   0.11420   0.15545
 Alpha virt. eigenvalues --    0.16635   0.20037   0.21680   0.25726   0.27390
 Alpha virt. eigenvalues --    0.27535   0.28376   0.30079   0.31309   0.32159

 Mulliken charges:
               1
     1  C   -0.170373
     2  C   -0.224722
     3  C   -0.185997
     4  C    0.159509
     5  C   -0.170823
     6  C   -0.217810
     7  H    0.229261
     8  H    0.223577
     9  H    0.279940
    10  H    0.280601
    11  H    0.228575
    12  N    0.487504
    13  O   -0.455795
    14  O   -0.457079
    15  C   -0.175156
    16  C   -0.225974
    17  C   -0.171889
    18  C    0.159506
    19  C   -0.171591
    20  C   -0.217781
    21  H    0.216492
    22  H    0.235738
    23  H    0.278255
    24  H    0.275483
    25  H    0.221808
    26  N    0.487901
    27  O   -0.461201
    28  O   -0.457959
 Sum of Mulliken charges =  -0.00000

 Dipole moment (field-independent basis, Debye):
    X=              3.9291    Y=              8.5587    Z=              0.8639  Tot=              9.4570
 Quadrupole moment (field-independent basis, Debye-Ang):
   XX=           -117.4512   YY=           -107.6274   ZZ=           -102.2355
   XY=             -1.5885   XZ=             13.8325   YZ=             -3.8228

 Normal termination of Gaussian 16 at Thu May  6 19:43:54 2021.
