 Gaussian 16, Revision A.03,
 Gaussian 16:  EM64L-G16RevA.03 25-Dec-2016

 -------------
 #p 6-31g* mp2
 -------------

 ------------------------------------------------------
 Input file generated by CHIRIPA (05-May-2021 14:51:12)
 ------------------------------------------------------
 Symbolic Z-matrix:
 Charge =  0 Multiplicity = 1

                         Standard orientation:
 ---------------------------------------------------------------------
 Center     Atomic      Atomic             Coordinates (Angstroms)
 Number     Number       Type             X           Y           Z
 ---------------------------------------------------------------------
      1          6           0       -3.908823    0.806698    0.001761
      2          6           0       -2.540050    1.269654   -0.498356
      3          6           0       -2.296703    2.760199   -0.259923
      4          1           0       -4.692218    1.392223   -0.498636
      5          1           0       -3.992506    1.025707    1.075273
      6          1           0       -2.458442    1.048579   -1.570309
      7          1           0       -1.759830    0.682827    0.003148
      8          1           0       -2.351158    2.993371    0.808378
      9          1           0       -3.053739    3.361201   -0.774019
     10          1           0       -1.312435    3.069723   -0.624987
     11          6           0       -4.166852   -0.681138   -0.229523
     12          6           0       -5.535625   -1.144094    0.270594
     13          6           0       -5.778972   -2.634640    0.032161
     14          1           0       -4.083170   -0.900147   -1.303035
     15          1           0       -3.383457   -1.266663    0.270874
     16          1           0       -6.315845   -0.557267   -0.230910
     17          1           0       -5.617233   -0.923019    1.342547
     18          1           0       -5.021936   -3.235641    0.546257
     19          1           0       -5.724518   -2.867811   -1.036140
     20          1           0       -6.763240   -2.944163    0.397225
     21          6           0        3.288238   -0.126627    0.246001
     22          6           0        2.567359    1.220185    0.312443
     23          6           0        1.068421    1.075952    0.577351
     24          1           0        2.832473   -0.740750   -0.542717
     25          1           0        3.132107   -0.665210    1.190960
     26          1           0        2.725957    1.756656   -0.631835
     27          1           0        3.025018    1.831246    1.100966
     28          1           0        0.892917    0.563198    1.528604
     29          1           0        0.592157    0.488185   -0.214043
     30          1           0        0.572806    2.050799    0.620925
     31          6           0        4.787437    0.001068   -0.018239
     32          6           0        5.508317   -1.345745   -0.084681
     33          6           0        7.007254   -1.201512   -0.349588
     34          1           0        4.943569    0.539650   -0.963199
     35          1           0        5.243203    0.615191    0.770478
     36          1           0        5.050657   -1.956806   -0.873204
     37          1           0        5.349718   -1.882216    0.859597
     38          1           0        7.483519   -0.613745    0.441805
     39          1           0        7.182758   -0.688758   -1.300842
     40          1           0        7.502869   -2.176359   -0.393163
 ---------------------------------------------------------------------

 SCF Done:  E(RHF) =  -470.732111849     A.U. after   11 cycles
 E2 =    -0.1583342690D+01 EUMP2 =    -0.47231545453934D+03

 The electronic state is 1-A.
 Alpha  occ. eigenvalues --  -11.21602 -11.21588 -11.21564 -11.21440 -11.21404
 Alpha  occ. eigenvalues --  -11.21345 -11.21342 -11.21274 -11.21072 -11.21044
 Alpha  occ. eigenvalues --  -11.21021 -11.20993  -1.08434  -1.08358  -1.03571
 Alpha  occ. eigenvalues --   -1.03428  -0.96053  -0.95860  -0.87027  -0.86928
 Alpha  occ. eigenvalues --   -0.79680  -0.79470  -0.78269  -0.78145  -0.65075
 Alpha  occ. eigenvalues --   -0.64987  -0.61012  -0.60828  -0.59587  -0.59097
 Alpha  occ. eigenvalues --   -0.57660  -0.57477  -0.55299  -0.55183  -0.52857
 Alpha  occ. eigenvalues --   -0.52486  -0.52475  -0.52194  -0.49982  -0.49820
 Alpha  occ. eigenvalues --   -0.48100  -0.47693  -0.46717  -0.46457  -0.45866
 Alpha  occ. eigenvalues --   -0.45721  -0.45680  -0.45480  -0.43804  -0.43660
 Alpha virt. eigenvalues --    0.22201   0.22964   0.23542   0.24953   0.26228
 Alpha virt. eigenvalues --    0.26652   0.27063   0.27254   0.27838   0.29133
 Alpha virt. eigenvalues --    0.30571   0.31278   0.31542   0.31774   0.32431

 Mulliken charges:
               1
     1  C   -0.297515
     2  C   -0.306135
     3  C   -0.477075
     4  H    0.148989
     5  H    0.149174
     6  H    0.150206
     7  H    0.162557
     8  H    0.154507
     9  H    0.154863
    10  H    0.160955
    11  C   -0.298289
    12  C   -0.299547
    13  C   -0.475672
    14  H    0.149183
    15  H    0.149536
    16  H    0.151874
    17  H    0.151852
    18  H    0.155102
    19  H    0.155058
    20  H    0.160117
    21  C   -0.298548
    22  C   -0.300084
    23  C   -0.481629
    24  H    0.149699
    25  H    0.149332
    26  H    0.151705
    27  H    0.151672
    28  H    0.153994
    29  H    0.157351
    30  H    0.166732
    31  C   -0.298229
    32  C   -0.299618
    33  C   -0.475699
    34  H    0.149516
    35  H    0.149643
    36  H    0.151941
    37  H    0.151872
    38  H    0.155172
    39  H    0.155189
    40  H    0.160248
 Sum of Mulliken charges =  -0.00000

 Dipole moment (field-independent basis, Debye):
    X=              0.0263    Y=              0.0008    Z=              0.0088  Tot=              0.0277
 Quadrupole moment (field-independent basis, Debye-Ang):
   XX=            -86.2093   YY=            -85.9406   ZZ=            -82.9780
   XY=             -0.3171   XZ=              0.6802   YZ=             -0.2521

 Normal termination of Gaussian 16 at Thu May  6 00:44:24 2021.
