 Gaussian 16, Revision A.03,
 Gaussian 16:  EM64L-G16RevA.03 25-Dec-2016

 -------------
 #p 6-31g* mp2
 -------------

 ------------------------------------------------------
 Input file generated by CHIRIPA (05-May-2021 14:51:11)
 ------------------------------------------------------
 Symbolic Z-matrix:
 Charge =  0 Multiplicity = 1

                         Standard orientation:
 ---------------------------------------------------------------------
 Center     Atomic      Atomic             Coordinates (Angstroms)
 Number     Number       Type             X           Y           Z
 ---------------------------------------------------------------------
      1          6           0        3.128414    1.054995   -0.387176
      2          6           0        2.648419    1.934444    0.767882
      3          6           0        2.953886    3.416520    0.548941
      4          1           0        4.210411    1.192247   -0.519042
      5          1           0        2.654483    1.394296   -1.318658
      6          1           0        3.122050    1.592708    1.697133
      7          1           0        1.567472    1.794938    0.897138
      8          1           0        2.468295    3.779355   -0.362736
      9          1           0        4.031706    3.575976    0.441804
     10          1           0        2.602238    4.026909    1.386574
     11          6           0        2.830226   -0.429289   -0.182936
     12          6           0        3.310221   -1.308738   -1.337994
     13          6           0        3.004755   -2.790814   -1.119053
     14          1           0        3.304158   -0.768590    0.748546
     15          1           0        1.748229   -0.566541   -0.051070
     16          1           0        4.391168   -1.169232   -1.467250
     17          1           0        2.836590   -0.967002   -2.267245
     18          1           0        1.926935   -2.950270   -1.011916
     19          1           0        3.490345   -3.153649   -0.207376
     20          1           0        3.356402   -3.401203   -1.956686
     21          6           0       -3.551985    0.188983    0.224657
     22          6           0       -4.073933    0.344331   -1.204127
     23          6           0       -5.219400    1.351676   -1.308786
     24          1           0       -4.377992   -0.123702    0.878022
     25          1           0       -3.215402    1.167938    0.593106
     26          1           0       -4.408149   -0.634882   -1.570266
     27          1           0       -3.246545    0.656496   -1.854202
     28          1           0       -4.894938    2.340631   -0.969235
     29          1           0       -6.063142    1.041915   -0.683686
     30          1           0       -5.577248    1.447118   -2.338686
     31          6           0       -2.406656   -0.814688    0.345455
     32          6           0       -1.884708   -0.970037    1.774239
     33          6           0       -0.739241   -1.977383    1.878898
     34          1           0       -2.743238   -1.793644   -0.022993
     35          1           0       -1.580649   -0.502005   -0.307909
     36          1           0       -2.712096   -1.282202    2.424315
     37          1           0       -1.550492    0.009175    2.140378
     38          1           0        0.104501   -1.667621    1.253798
     39          1           0       -1.063703   -2.966336    1.539348
     40          1           0       -0.381393   -2.072823    2.908799
 ---------------------------------------------------------------------

 SCF Done:  E(RHF) =  -470.733319616     A.U. after   11 cycles
 E2 =    -0.1583051935D+01 EUMP2 =    -0.47231637155064D+03

 The electronic state is 1-A.
 Alpha  occ. eigenvalues --  -11.21648 -11.21628 -11.21622 -11.21607 -11.21447
 Alpha  occ. eigenvalues --  -11.21439 -11.21388 -11.21379 -11.21109 -11.21091
 Alpha  occ. eigenvalues --  -11.21061 -11.21015  -1.08478  -1.08447  -1.03562
 Alpha  occ. eigenvalues --   -1.03535  -0.96012  -0.95981  -0.87032  -0.86994
 Alpha  occ. eigenvalues --   -0.79653  -0.79574  -0.78332  -0.78228  -0.65190
 Alpha  occ. eigenvalues --   -0.65010  -0.60995  -0.60904  -0.59388  -0.59345
 Alpha  occ. eigenvalues --   -0.57635  -0.57584  -0.55362  -0.55219  -0.52699
 Alpha  occ. eigenvalues --   -0.52674  -0.52470  -0.52381  -0.50028  -0.49874
 Alpha  occ. eigenvalues --   -0.48034  -0.47857  -0.46776  -0.46584  -0.45986
 Alpha  occ. eigenvalues --   -0.45774  -0.45758  -0.45425  -0.43817  -0.43798
 Alpha virt. eigenvalues --    0.20305   0.23267   0.23651   0.24340   0.25843
 Alpha virt. eigenvalues --    0.26969   0.27067   0.27509   0.28236   0.29269
 Alpha virt. eigenvalues --    0.30806   0.31557   0.31736   0.31795   0.32242

 Mulliken charges:
               1
     1  C   -0.297642
     2  C   -0.299700
     3  C   -0.475734
     4  H    0.150037
     5  H    0.149273
     6  H    0.152354
     7  H    0.151138
     8  H    0.155117
     9  H    0.155427
    10  H    0.160357
    11  C   -0.305718
    12  C   -0.299244
    13  C   -0.476939
    14  H    0.150120
    15  H    0.155919
    16  H    0.152103
    17  H    0.151691
    18  H    0.156655
    19  H    0.155501
    20  H    0.160297
    21  C   -0.298278
    22  C   -0.299635
    23  C   -0.475731
    24  H    0.149969
    25  H    0.149499
    26  H    0.152029
    27  H    0.151667
    28  H    0.155219
    29  H    0.155287
    30  H    0.160314
    31  C   -0.298820
    32  C   -0.299463
    33  C   -0.483629
    34  H    0.149796
    35  H    0.148428
    36  H    0.152101
    37  H    0.151783
    38  H    0.163092
    39  H    0.154871
    40  H    0.160487
 Sum of Mulliken charges =  -0.00000

 Dipole moment (field-independent basis, Debye):
    X=              0.0230    Y=             -0.0048    Z=              0.0025  Tot=              0.0237
 Quadrupole moment (field-independent basis, Debye-Ang):
   XX=            -84.1062   YY=            -85.9048   ZZ=            -84.6142
   XY=              0.8097   XZ=              0.1391   YZ=              0.0124

 Normal termination of Gaussian 16 at Wed May  5 18:16:37 2021.
