 Gaussian 16, Revision A.03,
 Gaussian 16:  EM64L-G16RevA.03 25-Dec-2016

 -------------
 #p 6-31g* mp2
 -------------

 ------------------------------------------------------
 Input file generated by CHIRIPA (05-May-2021 14:57:21)
 ------------------------------------------------------
 Symbolic Z-matrix:
 Charge =  0 Multiplicity = 1

                         Standard orientation:
 ---------------------------------------------------------------------
 Center     Atomic      Atomic             Coordinates (Angstroms)
 Number     Number       Type             X           Y           Z
 ---------------------------------------------------------------------
      1          6           0        1.662145    1.666783   -0.204720
      2          6           0        1.425427    0.462373    0.466011
      3          6           0        2.438971   -0.492624    0.589530
      4          6           0        3.682878   -0.209086    0.027754
      5          6           0        3.949646    0.981541   -0.646436
      6          6           0        2.921279    1.922073   -0.757828
      7          1           0        0.869042    2.403030   -0.295962
      8          1           0        0.448547    0.261412    0.896552
      9          1           0        2.282995   -1.433295    1.103561
     10          1           0        4.933779    1.153424   -1.065192
     11          1           0        3.107978    2.856569   -1.279275
     12          7           0        4.763718   -1.212442    0.152099
     13          8           0        5.850879   -0.938629   -0.351631
     14          8           0        4.503253   -2.253686    0.750936
     15          6           0       -2.039207    2.013058    0.575695
     16          6           0       -2.819801    1.404552    1.564085
     17          6           0       -3.635538    0.312756    1.252475
     18          6           0       -3.646425   -0.146668   -0.063618
     19          6           0       -2.880131    0.438258   -1.070568
     20          6           0       -2.071806    1.528823   -0.736165
     21          1           0       -1.408401    2.860714    0.826614
     22          1           0       -2.796480    1.778486    2.583729
     23          1           0       -4.249934   -0.177162    1.998072
     24          1           0       -2.924421    0.043056   -2.078175
     25          1           0       -1.466644    1.999422   -1.505813
     26          7           0       -4.506086   -1.301852   -0.405572
     27          8           0       -4.497911   -1.687654   -1.572502
     28          8           0       -5.171786   -1.799610    0.499811
 ---------------------------------------------------------------------

 SCF Done:  E(RHF) =  -868.335898794     A.U. after   16 cycles
 E2 =    -0.2602388708D+01 EUMP2 =    -0.87093828750193D+03

 The electronic state is 1-A.
 Alpha  occ. eigenvalues --  -20.61530 -20.61524 -20.61085 -20.61078 -15.86591
 Alpha  occ. eigenvalues --  -15.86138 -11.32228 -11.31629 -11.28799 -11.28788
 Alpha  occ. eigenvalues --  -11.28700 -11.28189 -11.28140 -11.28067 -11.27957
 Alpha  occ. eigenvalues --  -11.27908 -11.27311 -11.27167  -1.60599  -1.60156
 Alpha  occ. eigenvalues --   -1.40144  -1.39706  -1.20451  -1.19807  -1.09839
 Alpha  occ. eigenvalues --   -1.09206  -1.05864  -1.05206  -0.96611  -0.96021
 Alpha  occ. eigenvalues --   -0.87275  -0.86611  -0.83399  -0.82842  -0.78378
 Alpha  occ. eigenvalues --   -0.77838  -0.72808  -0.72357  -0.71927  -0.71742
 Alpha  occ. eigenvalues --   -0.71479  -0.70904  -0.66097  -0.65872  -0.65458
 Alpha  occ. eigenvalues --   -0.65208  -0.63175  -0.62548  -0.56493  -0.55783
 Alpha  occ. eigenvalues --   -0.54271  -0.53944  -0.53538  -0.53213  -0.49585
 Alpha  occ. eigenvalues --   -0.49541  -0.49123  -0.49103  -0.45488  -0.45082
 Alpha  occ. eigenvalues --   -0.38500  -0.37926  -0.37397  -0.36763
 Alpha virt. eigenvalues --    0.04101   0.04644   0.09985   0.10944   0.15459
 Alpha virt. eigenvalues --    0.16069   0.18668   0.22024   0.25066   0.26525
 Alpha virt. eigenvalues --    0.27024   0.29509   0.29737   0.30640   0.32148

 Mulliken charges:
               1
     1  C   -0.175016
     2  C   -0.220901
     3  C   -0.171215
     4  C    0.159885
     5  C   -0.171081
     6  C   -0.218157
     7  H    0.212209
     8  H    0.230459
     9  H    0.277991
    10  H    0.276850
    11  H    0.222937
    12  N    0.487812
    13  O   -0.459396
    14  O   -0.458350
    15  C   -0.183264
    16  C   -0.219727
    17  C   -0.170777
    18  C    0.159228
    19  C   -0.169651
    20  C   -0.218628
    21  H    0.223746
    22  H    0.228007
    23  H    0.279801
    24  H    0.280185
    25  H    0.223183
    26  N    0.487888
    27  O   -0.456835
    28  O   -0.457181
 Sum of Mulliken charges =  -0.00000

 Dipole moment (field-independent basis, Debye):
    X=             -1.0176    Y=              7.3436    Z=              0.7762  Tot=              7.4543
 Quadrupole moment (field-independent basis, Debye-Ang):
   XX=           -152.1066   YY=           -107.1238   ZZ=            -99.6443
   XY=              0.7693   XZ=             -9.8403   YZ=             -2.2545

 Normal termination of Gaussian 16 at Thu May  6 03:16:09 2021.
