 Gaussian 16, Revision A.03,
 Gaussian 16:  EM64L-G16RevA.03 25-Dec-2016

 -------------
 #p 6-31g* mp2
 -------------

 ------------------------------------------------------
 Input file generated by CHIRIPA (05-May-2021 14:55:23)
 ------------------------------------------------------
 Symbolic Z-matrix:
 Charge =  0 Multiplicity = 1

                         Standard orientation:
 ---------------------------------------------------------------------
 Center     Atomic      Atomic             Coordinates (Angstroms)
 Number     Number       Type             X           Y           Z
 ---------------------------------------------------------------------
      1          6           0       -5.212490   -2.069216    0.099349
      2          6           0       -3.838810   -2.129700   -0.157296
      3          6           0       -3.080136   -0.958483   -0.242228
      4          6           0       -3.730469    0.261674   -0.064533
      5          6           0       -5.097442    0.354714    0.192408
      6          6           0       -5.836322   -0.829388    0.273076
      7          1           0       -5.794157   -2.984050    0.163671
      8          1           0       -3.351671   -3.091168   -0.292640
      9          1           0       -2.015216   -0.976384   -0.439820
     10          1           0       -5.554986    1.327885    0.322836
     11          1           0       -6.902986   -0.779384    0.472504
     12          7           0       -2.937773    1.508409   -0.152190
     13          8           0       -3.534408    2.570932    0.008150
     14          8           0       -1.734833    1.399470   -0.379576
     15          6           0        5.652266    0.201528    0.131169
     16          6           0        6.733166   -0.839206   -0.162961
     17          6           0        8.148315   -0.277051   -0.024649
     18          1           0        5.777923    1.054026   -0.550301
     19          1           0        5.795268    0.590997    1.148646
     20          1           0        6.587335   -1.227601   -1.179080
     21          1           0        6.604805   -1.689411    0.519162
     22          1           0        8.318087    0.093347    0.991512
     23          1           0        8.300517    0.557781   -0.716379
     24          1           0        8.905271   -1.037836   -0.239320
     25          6           0        4.232188   -0.345392   -0.002948
     26          6           0        3.151288    0.695342    0.291182
     27          6           0        1.736140    0.133186    0.152871
     28          1           0        4.089186   -0.734861   -1.020426
     29          1           0        4.106533   -1.197890    0.678523
     30          1           0        3.279650    1.545546   -0.390940
     31          1           0        3.297120    1.083737    1.307302
     32          1           0        1.583938   -0.701646    0.844601
     33          1           0        1.566368   -0.237212   -0.863290
     34          1           0        0.979184    0.893972    0.367542
 ---------------------------------------------------------------------

 SCF Done:  E(RHF) =  -669.536055821     A.U. after   15 cycles
 E2 =    -0.2090688170D+01 EUMP2 =    -0.67162674399090D+03

 The electronic state is 1-A.
 Alpha  occ. eigenvalues --  -20.60853 -20.60844 -15.85894 -11.31218 -11.27790
 Alpha  occ. eigenvalues --  -11.27770 -11.27531 -11.26799 -11.26785 -11.21304
 Alpha  occ. eigenvalues --  -11.20990 -11.20926 -11.20866 -11.20815 -11.20136
 Alpha  occ. eigenvalues --   -1.59920  -1.39474  -1.19391  -1.08796  -1.07964
 Alpha  occ. eigenvalues --   -1.04787  -1.03009  -0.95643  -0.95442  -0.86467
 Alpha  occ. eigenvalues --   -0.86188  -0.82469  -0.79092  -0.77780  -0.77512
 Alpha  occ. eigenvalues --   -0.72122  -0.71236  -0.70500  -0.65048  -0.64791
 Alpha  occ. eigenvalues --   -0.64603  -0.62132  -0.60418  -0.58808  -0.57039
 Alpha  occ. eigenvalues --   -0.55295  -0.54759  -0.53122  -0.52880  -0.52079
 Alpha  occ. eigenvalues --   -0.51882  -0.49426  -0.48873  -0.48862  -0.47398
 Alpha  occ. eigenvalues --   -0.46147  -0.45316  -0.45246  -0.44890  -0.43218
 Alpha  occ. eigenvalues --   -0.37374  -0.36390
 Alpha virt. eigenvalues --    0.04994   0.11264   0.16476   0.21262   0.23302
 Alpha virt. eigenvalues --    0.24782   0.26682   0.27083   0.27681   0.27986
 Alpha virt. eigenvalues --    0.29043   0.30742   0.31771   0.31918   0.32591

 Mulliken charges:
               1
     1  C   -0.170607
     2  C   -0.218854
     3  C   -0.171704
     4  C    0.157639
     5  C   -0.170807
     6  C   -0.218701
     7  H    0.225698
     8  H    0.223812
     9  H    0.278336
    10  H    0.275583
    11  H    0.223498
    12  N    0.492471
    13  O   -0.459743
    14  O   -0.464329
    15  C   -0.297879
    16  C   -0.299137
    17  C   -0.475448
    18  H    0.150061
    19  H    0.149126
    20  H    0.151086
    21  H    0.150614
    22  H    0.154942
    23  H    0.155307
    24  H    0.158957
    25  C   -0.297532
    26  C   -0.299608
    27  C   -0.483670
    28  H    0.147754
    29  H    0.146682
    30  H    0.153979
    31  H    0.150645
    32  H    0.144623
    33  H    0.150265
    34  H    0.186943
 Sum of Mulliken charges =  -0.00000

 Dipole moment (field-independent basis, Debye):
    X=             -2.9942    Y=             -4.2825    Z=              0.3016  Tot=              5.2341
 Quadrupole moment (field-independent basis, Debye-Ang):
   XX=            -72.6092   YY=            -96.0274   ZZ=            -94.6293
   XY=             13.3681   XZ=             -1.9603   YZ=              0.6609

 Normal termination of Gaussian 16 at Thu May  6 01:30:44 2021.
