 Gaussian 16, Revision A.03,
 Gaussian 16:  EM64L-G16RevA.03 25-Dec-2016

 -------------
 #p 6-31g* mp2
 -------------

 ------------------------------------------------------
 Input file generated by CHIRIPA (05-May-2021 14:55:18)
 ------------------------------------------------------
 Symbolic Z-matrix:
 Charge =  0 Multiplicity = 1

                         Standard orientation:
 ---------------------------------------------------------------------
 Center     Atomic      Atomic             Coordinates (Angstroms)
 Number     Number       Type             X           Y           Z
 ---------------------------------------------------------------------
      1          6           0        1.661967    1.243334    0.811266
      2          6           0        1.742454   -0.118559    1.119959
      3          6           0        2.860540   -0.867555    0.741227
      4          6           0        3.884393   -0.219670    0.051836
      5          6           0        3.833578    1.135660   -0.270328
      6          6           0        2.705945    1.865001    0.118330
      7          1           0        0.789703    1.817538    1.109330
      8          1           0        0.933194   -0.603990    1.658010
      9          1           0        2.948771   -1.923261    0.967319
     10          1           0        4.656163    1.591783   -0.807657
     11          1           0        2.646155    2.922520   -0.122756
     12          7           0        5.073113   -1.002194   -0.354365
     13          8           0        5.961727   -0.407954   -0.960897
     14          8           0        5.093710   -2.194959   -0.058521
     15          6           0       -4.139633    0.461949    0.202273
     16          6           0       -3.153627    1.127269   -0.758521
     17          6           0       -1.995611    1.814941   -0.034709
     18          1           0       -4.535111    1.218513    0.893758
     19          1           0       -3.602194   -0.273109    0.817288
     20          1           0       -3.693030    1.859865   -1.372494
     21          1           0       -2.760595    0.369069   -1.447922
     22          1           0       -1.432203    1.092212    0.564319
     23          1           0       -2.369936    2.591479    0.640176
     24          1           0       -1.302904    2.283910   -0.740459
     25          6           0       -5.302868   -0.229756   -0.506356
     26          6           0       -6.288875   -0.895077    0.454437
     27          6           0       -7.446890   -1.582748   -0.269374
     28          1           0       -5.840308    0.505301   -1.121372
     29          1           0       -4.907391   -0.986321   -1.197842
     30          1           0       -6.681907   -0.136877    1.143838
     31          1           0       -5.749472   -1.627674    1.068410
     32          1           0       -7.072566   -2.359288   -0.944259
     33          1           0       -8.010299   -0.860020   -0.868403
     34          1           0       -8.139598   -2.051719    0.436376
 ---------------------------------------------------------------------

 SCF Done:  E(RHF) =  -669.535088542     A.U. after   15 cycles
 E2 =    -0.2091296197D+01 EUMP2 =    -0.67162638473919D+03

 The electronic state is 1-A.
 Alpha  occ. eigenvalues --  -20.60718 -20.60713 -15.85773 -11.31119 -11.27708
 Alpha  occ. eigenvalues --  -11.27701 -11.27361 -11.26700 -11.26680 -11.22454
 Alpha  occ. eigenvalues --  -11.22263 -11.22118 -11.22082 -11.21933 -11.21458
 Alpha  occ. eigenvalues --   -1.59795  -1.39349  -1.19296  -1.09108  -1.08685
 Alpha  occ. eigenvalues --   -1.04703  -1.04242  -0.96729  -0.95520  -0.87757
 Alpha  occ. eigenvalues --   -0.86098  -0.82364  -0.80325  -0.78886  -0.77417
 Alpha  occ. eigenvalues --   -0.71991  -0.71119  -0.70403  -0.65736  -0.64947
 Alpha  occ. eigenvalues --   -0.64714  -0.62060  -0.61632  -0.60102  -0.58306
 Alpha  occ. eigenvalues --   -0.56099  -0.55174  -0.53395  -0.53136  -0.52989
 Alpha  occ. eigenvalues --   -0.52793  -0.50641  -0.48750  -0.48747  -0.48623
 Alpha  occ. eigenvalues --   -0.47324  -0.46437  -0.46335  -0.44759  -0.44480
 Alpha  occ. eigenvalues --   -0.37240  -0.36315
 Alpha virt. eigenvalues --    0.05118   0.11288   0.16584   0.20573   0.22304
 Alpha virt. eigenvalues --    0.23790   0.25587   0.26266   0.26784   0.27317
 Alpha virt. eigenvalues --    0.28909   0.29925   0.30693   0.31119   0.31833

 Mulliken charges:
               1
     1  C   -0.171084
     2  C   -0.221247
     3  C   -0.170798
     4  C    0.157931
     5  C   -0.170645
     6  C   -0.221139
     7  H    0.234200
     8  H    0.222360
     9  H    0.275239
    10  H    0.275315
    11  H    0.223166
    12  N    0.488142
    13  O   -0.460669
    14  O   -0.460770
    15  C   -0.298671
    16  C   -0.300193
    17  C   -0.479908
    18  H    0.150346
    19  H    0.147488
    20  H    0.155304
    21  H    0.155775
    22  H    0.147068
    23  H    0.156622
    24  H    0.161458
    25  C   -0.298983
    26  C   -0.300023
    27  C   -0.476102
    28  H    0.150954
    29  H    0.151155
    30  H    0.152296
    31  H    0.151819
    32  H    0.156123
    33  H    0.155936
    34  H    0.161534
 Sum of Mulliken charges =  -0.00000

 Dipole moment (field-independent basis, Debye):
    X=             -4.4118    Y=              2.7730    Z=              1.3677  Tot=              5.3874
 Quadrupole moment (field-independent basis, Debye-Ang):
   XX=           -126.9968   YY=            -92.3300   ZZ=            -94.6152
   XY=             12.6769   XZ=              4.2338   YZ=             -2.3448

 Normal termination of Gaussian 16 at Thu May  6 15:41:40 2021.
