 Gaussian 16, Revision A.03,
 Gaussian 16:  EM64L-G16RevA.03 25-Dec-2016

 -------------
 #p 6-31g* mp2
 -------------

 ------------------------------------------------------
 Input file generated by CHIRIPA (05-May-2021 14:57:25)
 ------------------------------------------------------
 Symbolic Z-matrix:
 Charge =  0 Multiplicity = 1

                         Standard orientation:
 ---------------------------------------------------------------------
 Center     Atomic      Atomic             Coordinates (Angstroms)
 Number     Number       Type             X           Y           Z
 ---------------------------------------------------------------------
      1          6           0        1.980555    0.285212    1.605940
      2          6           0        2.490195   -1.005622    1.431203
      3          6           0        3.588495   -1.228215    0.595297
      4          6           0        4.155165   -0.132109   -0.053338
      5          6           0        3.670288    1.165796    0.100381
      6          6           0        2.571186    1.364898    0.941144
      7          1           0        1.127058    0.449004    2.257178
      8          1           0        2.033519   -1.846006    1.946224
      9          1           0        4.003240   -2.217112    0.442042
     10          1           0        4.146763    1.983662   -0.426386
     11          1           0        2.177510    2.368470    1.074962
     12          7           0        5.318310   -0.355323   -0.940845
     13          8           0        5.799617    0.627123   -1.501006
     14          8           0        5.726651   -1.508499   -1.059507
     15          6           0       -1.921418    1.464886    0.472985
     16          6           0       -2.943909    2.020542   -0.303083
     17          6           0       -4.079894    1.270957   -0.622784
     18          6           0       -4.160882   -0.037085   -0.147645
     19          6           0       -3.158963   -0.618840    0.627604
     20          6           0       -2.032014    0.149288    0.935037
     21          1           0       -1.042468    2.054383    0.716572
     22          1           0       -2.860720    3.042001   -0.663286
     23          1           0       -4.886307    1.676297   -1.221796
     24          1           0       -3.270349   -1.639732    0.972263
     25          1           0       -1.239489   -0.284845    1.537929
     26          7           0       -5.358715   -0.840451   -0.479604
     27          8           0       -5.406038   -1.990598   -0.048840
     28          8           0       -6.227573   -0.304770   -1.164272
 ---------------------------------------------------------------------

 SCF Done:  E(RHF) =  -868.336092301     A.U. after   16 cycles
 E2 =    -0.2600513593D+01 EUMP2 =    -0.87093660589376D+03

 The electronic state is 1-A.
 Alpha  occ. eigenvalues --  -20.61395 -20.61388 -20.61240 -20.61233 -15.86455
 Alpha  occ. eigenvalues --  -15.86299 -11.32025 -11.31793 -11.28621 -11.28585
 Alpha  occ. eigenvalues --  -11.28537 -11.28415 -11.28356 -11.28245 -11.27771
 Alpha  occ. eigenvalues --  -11.27702 -11.27539 -11.27415  -1.60465  -1.60311
 Alpha  occ. eigenvalues --   -1.40012  -1.39861  -1.20232  -1.19995  -1.09628
 Alpha  occ. eigenvalues --   -1.09381  -1.05656  -1.05424  -0.96422  -0.96186
 Alpha  occ. eigenvalues --   -0.87069  -0.86836  -0.83235  -0.83021  -0.78217
 Alpha  occ. eigenvalues --   -0.78034  -0.72672  -0.72518  -0.71788  -0.71635
 Alpha  occ. eigenvalues --   -0.71491  -0.71101  -0.65901  -0.65732  -0.65656
 Alpha  occ. eigenvalues --   -0.65426  -0.62993  -0.62779  -0.56275  -0.55982
 Alpha  occ. eigenvalues --   -0.53993  -0.53766  -0.53725  -0.53513  -0.49448
 Alpha  occ. eigenvalues --   -0.49411  -0.49285  -0.49260  -0.45371  -0.45238
 Alpha  occ. eigenvalues --   -0.38310  -0.37956  -0.37240  -0.37009
 Alpha virt. eigenvalues --    0.04274   0.04521   0.10306   0.10624   0.15577
 Alpha virt. eigenvalues --    0.15972   0.17713   0.22301   0.24089   0.25358
 Alpha virt. eigenvalues --    0.27784   0.29078   0.30119   0.30708   0.33152

 Mulliken charges:
               1
     1  C   -0.174462
     2  C   -0.217749
     3  C   -0.169102
     4  C    0.160010
     5  C   -0.169388
     6  C   -0.219414
     7  H    0.218761
     8  H    0.224426
     9  H    0.279135
    10  H    0.278011
    11  H    0.220218
    12  N    0.487916
    13  O   -0.458438
    14  O   -0.457514
    15  C   -0.168804
    16  C   -0.218051
    17  C   -0.169725
    18  C    0.159384
    19  C   -0.170181
    20  C   -0.216824
    21  H    0.217752
    22  H    0.225104
    23  H    0.277946
    24  H    0.276416
    25  H    0.214397
    26  N    0.487979
    27  O   -0.459429
    28  O   -0.458374
 Sum of Mulliken charges =  -0.00000

 Dipole moment (field-independent basis, Debye):
    X=              0.2223    Y=              3.5341    Z=              4.1040  Tot=              5.4205
 Quadrupole moment (field-independent basis, Debye-Ang):
   XX=           -172.6721   YY=            -97.5508   ZZ=           -105.5638
   XY=             -9.9127   XZ=              8.8679   YZ=             -4.5686

 Normal termination of Gaussian 16 at Thu May  6 09:52:07 2021.
