 Gaussian 16, Revision A.03,
 Gaussian 16:  EM64L-G16RevA.03 25-Dec-2016

 -------------
 #p 6-31g* mp2
 -------------

 ------------------------------------------------------
 Input file generated by CHIRIPA (05-May-2021 14:57:22)
 ------------------------------------------------------
 Symbolic Z-matrix:
 Charge =  0 Multiplicity = 1

                         Standard orientation:
 ---------------------------------------------------------------------
 Center     Atomic      Atomic             Coordinates (Angstroms)
 Number     Number       Type             X           Y           Z
 ---------------------------------------------------------------------
      1          6           0        4.663469    0.797289    1.066037
      2          6           0        3.663348    0.270740    1.890066
      3          6           0        2.578428   -0.417433    1.338780
      4          6           0        2.525142   -0.561194   -0.046782
      5          6           0        3.505856   -0.048053   -0.894234
      6          6           0        4.581676    0.636495   -0.321038
      7          1           0        5.502726    1.330470    1.502800
      8          1           0        3.724261    0.394094    2.967618
      9          1           0        1.790287   -0.835192    1.953376
     10          1           0        3.417647   -0.187041   -1.964897
     11          1           0        5.356929    1.044359   -0.963436
     12          7           0        1.381403   -1.287813   -0.642002
     13          8           0        1.357665   -1.400940   -1.865634
     14          8           0        0.530335   -1.730452    0.126368
     15          6           0       -1.417625    2.395752   -0.982402
     16          6           0       -1.381008    1.157913   -1.632735
     17          6           0       -2.095187    0.068163   -1.125839
     18          6           0       -2.838938    0.252503    0.038697
     19          6           0       -2.895405    1.473224    0.709473
     20          6           0       -2.173375    2.549186    0.184569
     21          1           0       -0.859785    3.236940   -1.383166
     22          1           0       -0.794936    1.035843   -2.539191
     23          1           0       -2.084472   -0.901221   -1.609157
     24          1           0       -3.488616    1.564241    1.611269
     25          1           0       -2.203660    3.509347    0.691739
     26          7           0       -3.599163   -0.893868    0.584857
     27          8           0       -4.246822   -0.705572    1.612340
     28          8           0       -3.532972   -1.958983   -0.024885
 ---------------------------------------------------------------------

 SCF Done:  E(RHF) =  -868.338947286     A.U. after   16 cycles
 E2 =    -0.2601170180D+01 EUMP2 =    -0.87094011746543D+03

 The electronic state is 1-A.
 Alpha  occ. eigenvalues --  -20.61366 -20.61292 -20.59774 -20.59708 -15.86325
 Alpha  occ. eigenvalues --  -15.84798 -11.31606 -11.30168 -11.28191 -11.28126
 Alpha  occ. eigenvalues --  -11.27890 -11.27175 -11.27131 -11.26906 -11.26678
 Alpha  occ. eigenvalues --  -11.26650 -11.25939 -11.25720  -1.60379  -1.58814
 Alpha  occ. eigenvalues --   -1.39937  -1.38365  -1.19770  -1.18405  -1.09184
 Alpha  occ. eigenvalues --   -1.07818  -1.05158  -1.03805  -0.96035  -0.94633
 Alpha  occ. eigenvalues --   -0.86559  -0.85209  -0.82871  -0.81458  -0.77931
 Alpha  occ. eigenvalues --   -0.76468  -0.72563  -0.71698  -0.71029  -0.70876
 Alpha  occ. eigenvalues --   -0.70119  -0.69551  -0.65425  -0.65159  -0.64063
 Alpha  occ. eigenvalues --   -0.63815  -0.62503  -0.61119  -0.55664  -0.54389
 Alpha  occ. eigenvalues --   -0.53499  -0.53245  -0.52168  -0.51893  -0.49345
 Alpha  occ. eigenvalues --   -0.49297  -0.47802  -0.47758  -0.45363  -0.43766
 Alpha  occ. eigenvalues --   -0.37757  -0.36761  -0.36439  -0.35377
 Alpha virt. eigenvalues --    0.04550   0.06073   0.10896   0.12258   0.16091
 Alpha virt. eigenvalues --    0.17477   0.21053   0.22309   0.26972   0.27868
 Alpha virt. eigenvalues --    0.28340   0.29208   0.30643   0.31719   0.32247

 Mulliken charges:
               1
     1  C   -0.170726
     2  C   -0.218996
     3  C   -0.169977
     4  C    0.159267
     5  C   -0.172742
     6  C   -0.218996
     7  H    0.226645
     8  H    0.225322
     9  H    0.278807
    10  H    0.273745
    11  H    0.223682
    12  N    0.489063
    13  O   -0.468708
    14  O   -0.453086
    15  C   -0.172389
    16  C   -0.230209
    17  C   -0.156743
    18  C    0.157861
    19  C   -0.172853
    20  C   -0.221108
    21  H    0.219841
    22  H    0.228488
    23  H    0.287486
    24  H    0.271751
    25  H    0.217588
    26  N    0.488730
    27  O   -0.467808
    28  O   -0.453935
 Sum of Mulliken charges =  -0.00000

 Dipole moment (field-independent basis, Debye):
    X=              6.8770    Y=              6.2325    Z=              0.1695  Tot=              9.2826
 Quadrupole moment (field-independent basis, Debye-Ang):
   XX=           -100.0270   YY=           -105.6132   ZZ=            -98.6396
   XY=             -6.5076   XZ=              8.1064   YZ=              0.1092

 Normal termination of Gaussian 16 at Fri May  7 06:22:44 2021.
