 Gaussian 16, Revision A.03,
 Gaussian 16:  EM64L-G16RevA.03 25-Dec-2016

 -------------
 #p 6-31g* mp2
 -------------

 ------------------------------------------------------
 Input file generated by CHIRIPA (05-May-2021 14:55:23)
 ------------------------------------------------------
 Symbolic Z-matrix:
 Charge =  0 Multiplicity = 1

                         Standard orientation:
 ---------------------------------------------------------------------
 Center     Atomic      Atomic             Coordinates (Angstroms)
 Number     Number       Type             X           Y           Z
 ---------------------------------------------------------------------
      1          6           0       -0.813351   -1.673552    0.623904
      2          6           0       -0.744421   -0.649692   -0.326612
      3          6           0       -1.892772    0.059888   -0.690390
      4          6           0       -3.098923   -0.282289   -0.080962
      5          6           0       -3.199873   -1.297220    0.869308
      6          6           0       -2.038697   -1.993484    1.217783
      7          1           0        0.083697   -2.219599    0.900552
      8          1           0        0.205840   -0.399062   -0.789466
      9          1           0       -1.867884    0.857085   -1.423382
     10          1           0       -4.161456   -1.524236    1.313424
     11          1           0       -2.095214   -2.788150    1.956267
     12          7           0       -4.321420    0.461863   -0.457978
     13          8           0       -5.371954    0.141134    0.093518
     14          8           0       -4.205930    1.351768   -1.297840
     15          6           0        3.641251    1.175908    0.406788
     16          6           0        2.318374    1.896717    0.145220
     17          6           0        2.198244    3.210631    0.917872
     18          1           0        3.738095    0.979975    1.483438
     19          1           0        4.472933    1.840170    0.133919
     20          1           0        1.489416    1.230782    0.417200
     21          1           0        2.224581    2.090786   -0.930956
     22          1           0        3.005344    3.896156    0.639942
     23          1           0        2.266002    3.031266    1.995758
     24          1           0        1.245069    3.709268    0.716181
     25          6           0        3.776199   -0.139276   -0.358594
     26          6           0        5.099075   -0.860085   -0.097027
     27          6           0        5.219206   -2.173999   -0.869679
     28          1           0        2.944517   -0.803537   -0.085726
     29          1           0        3.679355    0.056658   -1.435245
     30          1           0        5.192870   -1.054154    0.979150
     31          1           0        5.928035   -0.194150   -0.369006
     32          1           0        5.151447   -1.994634   -1.947564
     33          1           0        4.412105   -2.859524   -0.591748
     34          1           0        6.172381   -2.672635   -0.667987
 ---------------------------------------------------------------------

 SCF Done:  E(RHF) =  -669.535328175     A.U. after   15 cycles
 E2 =    -0.2092138302D+01 EUMP2 =    -0.67162746647716D+03

 The electronic state is 1-A.
 Alpha  occ. eigenvalues --  -20.60753 -20.60748 -15.85806 -11.31176 -11.27747
 Alpha  occ. eigenvalues --  -11.27730 -11.27490 -11.26766 -11.26693 -11.22436
 Alpha  occ. eigenvalues --  -11.22382 -11.22376 -11.22172 -11.21825 -11.21615
 Alpha  occ. eigenvalues --   -1.59828  -1.39382  -1.19348  -1.09286  -1.08743
 Alpha  occ. eigenvalues --   -1.04750  -1.04287  -0.96726  -0.95578  -0.87738
 Alpha  occ. eigenvalues --   -0.86151  -0.82410  -0.80376  -0.79149  -0.77442
 Alpha  occ. eigenvalues --   -0.72024  -0.71151  -0.70459  -0.65952  -0.64996
 Alpha  occ. eigenvalues --   -0.64729  -0.62125  -0.61654  -0.60091  -0.58349
 Alpha  occ. eigenvalues --   -0.56015  -0.55254  -0.53403  -0.53165  -0.53070
 Alpha  occ. eigenvalues --   -0.52836  -0.50664  -0.48803  -0.48779  -0.48656
 Alpha  occ. eigenvalues --   -0.47407  -0.46619  -0.46573  -0.44786  -0.44566
 Alpha  occ. eigenvalues --   -0.37325  -0.36325
 Alpha virt. eigenvalues --    0.05076   0.11180   0.16520   0.19488   0.22603
 Alpha virt. eigenvalues --    0.23554   0.24990   0.25653   0.27160   0.27874
 Alpha virt. eigenvalues --    0.29769   0.30513   0.30768   0.31390   0.31897

 Mulliken charges:
               1
     1  C   -0.173635
     2  C   -0.220827
     3  C   -0.172901
     4  C    0.158762
     5  C   -0.170912
     6  C   -0.218325
     7  H    0.225265
     8  H    0.231661
     9  H    0.275984
    10  H    0.275582
    11  H    0.223302
    12  N    0.488053
    13  O   -0.460487
    14  O   -0.460358
    15  C   -0.297760
    16  C   -0.308004
    17  C   -0.475539
    18  H    0.151269
    19  H    0.153458
    20  H    0.151765
    21  H    0.150502
    22  H    0.157301
    23  H    0.156798
    24  H    0.163977
    25  C   -0.299527
    26  C   -0.300205
    27  C   -0.475759
    28  H    0.138585
    29  H    0.151059
    30  H    0.153077
    31  H    0.155762
    32  H    0.156860
    33  H    0.151760
    34  H    0.163460
 Sum of Mulliken charges =  -0.00000

 Dipole moment (field-independent basis, Debye):
    X=              4.4706    Y=             -2.5367    Z=              1.3496  Tot=              5.3144
 Quadrupole moment (field-independent basis, Debye-Ang):
   XX=           -119.5348   YY=            -92.6622   ZZ=            -93.0214
   XY=              9.2509   XZ=             -6.6716   YZ=             -3.0459

 Normal termination of Gaussian 16 at Thu May  6 14:17:35 2021.
