 Gaussian 16, Revision A.03,
 Gaussian 16:  EM64L-G16RevA.03 25-Dec-2016

 -------------
 #p 6-31g* mp2
 -------------

 ------------------------------------------------------
 Input file generated by CHIRIPA (05-May-2021 14:57:25)
 ------------------------------------------------------
 Symbolic Z-matrix:
 Charge =  0 Multiplicity = 1

                         Standard orientation:
 ---------------------------------------------------------------------
 Center     Atomic      Atomic             Coordinates (Angstroms)
 Number     Number       Type             X           Y           Z
 ---------------------------------------------------------------------
      1          6           0       -2.939972    1.050078    2.280133
      2          6           0       -3.222769    1.656275    1.051690
      3          6           0       -3.032104    0.958776   -0.144843
      4          6           0       -2.555142   -0.349283   -0.075707
      5          6           0       -2.264268   -0.980672    1.132609
      6          6           0       -2.462466   -0.264144    2.316608
      7          1           0       -3.091012    1.599303    3.204760
      8          1           0       -3.593718    2.676793    1.020330
      9          1           0       -3.242990    1.403878   -1.109638
     10          1           0       -1.895667   -1.999274    1.131910
     11          1           0       -2.242000   -0.737460    3.269189
     12          7           0       -2.349306   -1.097767   -1.335788
     13          8           0       -1.928107   -2.249071   -1.247896
     14          8           0       -2.613069   -0.518951   -2.387472
     15          6           0        3.720044   -1.763111    0.931305
     16          6           0        4.307798   -0.496555    1.014383
     17          6           0        3.690073    0.612622    0.428984
     18          6           0        2.479728    0.418216   -0.234762
     19          6           0        1.869145   -0.830984   -0.334650
     20          6           0        2.504736   -1.925996    0.258241
     21          1           0        4.206847   -2.619245    1.388967
     22          1           0        5.251577   -0.367086    1.536460
     23          1           0        4.123042    1.604354    0.478198
     24          1           0        0.927857   -0.928743   -0.861754
     25          1           0        2.045968   -2.908445    0.192139
     26          7           0        1.816314    1.584955   -0.858463
     27          8           0        0.750406    1.387256   -1.437595
     28          8           0        2.374799    2.675051   -0.756380
 ---------------------------------------------------------------------

 SCF Done:  E(RHF) =  -868.339263034     A.U. after   16 cycles
 E2 =    -0.2600455194D+01 EUMP2 =    -0.87093971822749D+03

 The electronic state is 1-A.
 Alpha  occ. eigenvalues --  -20.60748 -20.60652 -20.60644 -20.60628 -15.85714
 Alpha  occ. eigenvalues --  -15.85683 -11.30977 -11.30914 -11.27586 -11.27573
 Alpha  occ. eigenvalues --  -11.27463 -11.27387 -11.27309 -11.27220 -11.26597
 Alpha  occ. eigenvalues --  -11.26537 -11.26495 -11.26400  -1.59753  -1.59713
 Alpha  occ. eigenvalues --   -1.39314  -1.39268  -1.19156  -1.19080  -1.08573
 Alpha  occ. eigenvalues --   -1.08515  -1.04537  -1.04465  -0.95414  -0.95374
 Alpha  occ. eigenvalues --   -0.85948  -0.85877  -0.82235  -0.82219  -0.77320
 Alpha  occ. eigenvalues --   -0.77251  -0.71948  -0.71923  -0.71076  -0.71006
 Alpha  occ. eigenvalues --   -0.70253  -0.70215  -0.64807  -0.64749  -0.64532
 Alpha  occ. eigenvalues --   -0.64488  -0.61880  -0.61810  -0.55069  -0.54998
 Alpha  occ. eigenvalues --   -0.52904  -0.52785  -0.52613  -0.52571  -0.48737
 Alpha  occ. eigenvalues --   -0.48679  -0.48663  -0.48653  -0.44742  -0.44684
 Alpha  occ. eigenvalues --   -0.37163  -0.37053  -0.36200  -0.35978
 Alpha virt. eigenvalues --    0.05203   0.05280   0.11363   0.11711   0.16695
 Alpha virt. eigenvalues --    0.16781   0.21401   0.21845   0.27051   0.27731
 Alpha virt. eigenvalues --    0.28279   0.28756   0.31091   0.31288   0.32442

 Mulliken charges:
               1
     1  C   -0.170466
     2  C   -0.218092
     3  C   -0.160070
     4  C    0.159774
     5  C   -0.175177
     6  C   -0.218524
     7  H    0.224830
     8  H    0.225271
     9  H    0.280258
    10  H    0.268642
    11  H    0.220415
    12  N    0.488452
    13  O   -0.472914
    14  O   -0.449096
    15  C   -0.171287
    16  C   -0.219330
    17  C   -0.171508
    18  C    0.158271
    19  C   -0.173892
    20  C   -0.222649
    21  H    0.224616
    22  H    0.221970
    23  H    0.274081
    24  H    0.282818
    25  H    0.228265
    26  N    0.488224
    27  O   -0.460119
    28  O   -0.462762
 Sum of Mulliken charges =  -0.00000

 Dipole moment (field-independent basis, Debye):
    X=              1.4277    Y=             -1.2664    Z=              6.4448  Tot=              6.7214
 Quadrupole moment (field-independent basis, Debye-Ang):
   XX=            -87.2220   YY=           -106.1011   ZZ=           -105.7956
   XY=            -15.6104   XZ=             -3.8091   YZ=             -1.1891

 Normal termination of Gaussian 16 at Fri May  7 06:34:39 2021.
