 Gaussian 16, Revision A.03,
 Gaussian 16:  EM64L-G16RevA.03 25-Dec-2016

 -------------
 #p 6-31g* mp2
 -------------

 ------------------------------------------------------
 Input file generated by CHIRIPA (05-May-2021 14:55:23)
 ------------------------------------------------------
 Symbolic Z-matrix:
 Charge =  0 Multiplicity = 1

                         Standard orientation:
 ---------------------------------------------------------------------
 Center     Atomic      Atomic             Coordinates (Angstroms)
 Number     Number       Type             X           Y           Z
 ---------------------------------------------------------------------
      1          6           0        2.131387    2.201148   -0.320835
      2          6           0        1.613465    0.952503   -0.680230
      3          6           0        2.402791   -0.197518   -0.585551
      4          6           0        3.711664   -0.061777   -0.125424
      5          6           0        4.256384    1.168215    0.240211
      6          6           0        3.448871    2.304836    0.137430
      7          1           0        1.511156    3.089307   -0.397530
      8          1           0        0.590639    0.868978   -1.036452
      9          1           0        2.027159   -1.176586   -0.857111
     10          1           0        5.279661    1.219869    0.591855
     11          1           0        3.853750    3.273249    0.417240
     12          7           0        4.556915   -1.272160   -0.020904
     13          8           0        5.706932   -1.125885    0.387386
     14          8           0        4.053400   -2.344213   -0.349250
     15          6           0       -3.910200   -0.553763    0.228791
     16          6           0       -2.738004    0.328866    0.658800
     17          6           0       -1.419697   -0.440642    0.746645
     18          1           0       -4.015581   -1.384498    0.939931
     19          1           0       -3.682016   -1.004616   -0.746944
     20          1           0       -2.968922    0.779013    1.632792
     21          1           0       -2.635522    1.157702   -0.053340
     22          1           0       -1.162634   -0.876525   -0.224193
     23          1           0       -1.497928   -1.257367    1.471519
     24          1           0       -0.595214    0.209428    1.055671
     25          6           0       -5.235032    0.201229    0.136395
     26          6           0       -6.407229   -0.681400   -0.293614
     27          6           0       -7.725535    0.088108   -0.381459
     28          1           0       -5.463217    0.652082    1.112130
     29          1           0       -5.129652    1.031963   -0.574745
     30          1           0       -6.509710   -1.510237    0.418525
     31          1           0       -6.176310   -1.131547   -1.267606
     32          1           0       -7.647305    0.904833   -1.106333
     33          1           0       -7.982599    0.523991    0.589379
     34          1           0       -8.550019   -0.561962   -0.690485
 ---------------------------------------------------------------------

 SCF Done:  E(RHF) =  -669.534587663     A.U. after   15 cycles
 E2 =    -0.2091935340D+01 EUMP2 =    -0.67162652300311D+03

 The electronic state is 1-A.
 Alpha  occ. eigenvalues --  -20.60729 -20.60724 -15.85781 -11.31149 -11.27706
 Alpha  occ. eigenvalues --  -11.27689 -11.27446 -11.26738 -11.26660 -11.22348
 Alpha  occ. eigenvalues --  -11.21977 -11.21945 -11.21835 -11.21827 -11.21393
 Alpha  occ. eigenvalues --   -1.59804  -1.39357  -1.19318  -1.08975  -1.08715
 Alpha  occ. eigenvalues --   -1.04728  -1.04085  -0.96542  -0.95548  -0.87574
 Alpha  occ. eigenvalues --   -0.86108  -0.82381  -0.80162  -0.78762  -0.77423
 Alpha  occ. eigenvalues --   -0.71999  -0.71126  -0.70423  -0.65629  -0.64966
 Alpha  occ. eigenvalues --   -0.64743  -0.62162  -0.61428  -0.59897  -0.58139
 Alpha  occ. eigenvalues --   -0.55849  -0.55205  -0.53484  -0.53006  -0.52904
 Alpha  occ. eigenvalues --   -0.52613  -0.50462  -0.48756  -0.48754  -0.48467
 Alpha  occ. eigenvalues --   -0.47198  -0.46308  -0.46221  -0.44762  -0.44329
 Alpha  occ. eigenvalues --   -0.37298  -0.36267
 Alpha virt. eigenvalues --    0.05099   0.11268   0.16559   0.20235   0.22609
 Alpha virt. eigenvalues --    0.23859   0.25754   0.26456   0.26972   0.28151
 Alpha virt. eigenvalues --    0.28934   0.30233   0.31117   0.31257   0.32135

 Mulliken charges:
               1
     1  C   -0.173760
     2  C   -0.218837
     3  C   -0.172210
     4  C    0.158684
     5  C   -0.171388
     6  C   -0.218170
     7  H    0.225436
     8  H    0.230627
     9  H    0.275808
    10  H    0.275390
    11  H    0.223194
    12  N    0.488102
    13  O   -0.460625
    14  O   -0.460285
    15  C   -0.298482
    16  C   -0.300666
    17  C   -0.483922
    18  H    0.152725
    19  H    0.149522
    20  H    0.155223
    21  H    0.145934
    22  H    0.147098
    23  H    0.162795
    24  H    0.165389
    25  C   -0.298510
    26  C   -0.300095
    27  C   -0.475963
    28  H    0.150398
    29  H    0.148593
    30  H    0.153310
    31  H    0.152411
    32  H    0.154963
    33  H    0.155651
    34  H    0.161663
 Sum of Mulliken charges =  -0.00000

 Dipole moment (field-independent basis, Debye):
    X=             -3.1096    Y=              4.2281    Z=             -0.3049  Tot=              5.2573
 Quadrupole moment (field-independent basis, Debye-Ang):
   XX=           -114.8803   YY=            -94.3213   ZZ=            -93.8494
   XY=             19.1604   XZ=              0.0296   YZ=              0.3550

 Normal termination of Gaussian 16 at Wed May  5 20:43:01 2021.
