 Gaussian 16, Revision A.03,
 Gaussian 16:  EM64L-G16RevA.03 25-Dec-2016

 -------------
 #p 6-31g* mp2
 -------------

 ------------------------------------------------------
 Input file generated by CHIRIPA (05-May-2021 14:53:15)
 ------------------------------------------------------
 Symbolic Z-matrix:
 Charge =  0 Multiplicity = 1

                         Standard orientation:
 ---------------------------------------------------------------------
 Center     Atomic      Atomic             Coordinates (Angstroms)
 Number     Number       Type             X           Y           Z
 ---------------------------------------------------------------------
      1          6           0        3.591325    0.822419    0.248257
      2          6           0        4.463031    1.862069   -0.456898
      3          6           0        4.031931    3.297643   -0.155116
      4          1           0        2.544974    0.964020   -0.055130
      5          1           0        3.628816    0.997276    1.332422
      6          1           0        4.425006    1.684446   -1.539312
      7          1           0        5.507455    1.717854   -0.151944
      8          1           0        4.087136    3.498584    0.919676
      9          1           0        2.998537    3.464986   -0.475575
     10          1           0        4.668495    4.024475   -0.669276
     11          6           0        4.009881   -0.617490   -0.043633
     12          6           0        3.138175   -1.657140    0.661521
     13          6           0        3.569275   -3.092714    0.359739
     14          1           0        3.972389   -0.792348   -1.127799
     15          1           0        5.056232   -0.759091    0.259754
     16          1           0        2.093751   -1.512925    0.356568
     17          1           0        3.176199   -1.479517    1.743935
     18          1           0        4.602669   -3.260057    0.680199
     19          1           0        3.514070   -3.293655   -0.715052
     20          1           0        2.932710   -3.819546    0.873900
     21          6           0       -1.326748   -1.936870   -0.549425
     22          6           0       -2.687066   -2.226589   -0.400704
     23          6           0       -3.606100   -1.205728   -0.140382
     24          6           0       -3.128009    0.099460   -0.034542
     25          6           0       -1.778907    0.419969   -0.177678
     26          6           0       -0.877802   -0.616843   -0.437634
     27          1           0       -0.619782   -2.736095   -0.751508
     28          1           0       -3.038571   -3.250816   -0.487009
     29          1           0       -4.664698   -1.401912   -0.020800
     30          1           0       -1.458520    1.450701   -0.086244
     31          1           0        0.178065   -0.388897   -0.552667
     32          7           0       -4.091460    1.188642    0.240856
     33          8           0       -3.644924    2.330299    0.329542
     34          8           0       -5.274905    0.880065    0.362812
 ---------------------------------------------------------------------

 SCF Done:  E(RHF) =  -669.535294375     A.U. after   15 cycles
 E2 =    -0.2091750763D+01 EUMP2 =    -0.67162704513843D+03

 The electronic state is 1-A.
 Alpha  occ. eigenvalues --  -20.60746 -20.60741 -15.85799 -11.31167 -11.27738
 Alpha  occ. eigenvalues --  -11.27732 -11.27479 -11.26752 -11.26726 -11.22646
 Alpha  occ. eigenvalues --  -11.22298 -11.22249 -11.22205 -11.22015 -11.21553
 Alpha  occ. eigenvalues --   -1.59821  -1.39375  -1.19340  -1.09293  -1.08735
 Alpha  occ. eigenvalues --   -1.04745  -1.04328  -0.96762  -0.95569  -0.87775
 Alpha  occ. eigenvalues --   -0.86149  -0.82402  -0.80405  -0.79100  -0.77447
 Alpha  occ. eigenvalues --   -0.72018  -0.71144  -0.70448  -0.66005  -0.64993
 Alpha  occ. eigenvalues --   -0.64721  -0.62129  -0.61692  -0.60138  -0.58370
 Alpha  occ. eigenvalues --   -0.56051  -0.55241  -0.53448  -0.53178  -0.53070
 Alpha  occ. eigenvalues --   -0.52854  -0.50710  -0.48802  -0.48773  -0.48683
 Alpha  occ. eigenvalues --   -0.47446  -0.46616  -0.46534  -0.44780  -0.44594
 Alpha  occ. eigenvalues --   -0.37317  -0.36342
 Alpha virt. eigenvalues --    0.05087   0.11232   0.16576   0.18663   0.22771
 Alpha virt. eigenvalues --    0.23309   0.24553   0.26279   0.26671   0.28142
 Alpha virt. eigenvalues --    0.29372   0.30716   0.30982   0.31229   0.31658

 Mulliken charges:
               1
     1  C   -0.299859
     2  C   -0.300357
     3  C   -0.476120
     4  H    0.141786
     5  H    0.153783
     6  H    0.152497
     7  H    0.154490
     8  H    0.157209
     9  H    0.154888
    10  H    0.163127
    11  C   -0.299275
    12  C   -0.303253
    13  C   -0.476839
    14  H    0.149171
    15  H    0.154199
    16  H    0.142645
    17  H    0.157578
    18  H    0.160212
    19  H    0.154095
    20  H    0.160242
    21  C   -0.172789
    22  C   -0.218504
    23  C   -0.171093
    24  C    0.158718
    25  C   -0.172142
    26  C   -0.224493
    27  H    0.226433
    28  H    0.223376
    29  H    0.275574
    30  H    0.275494
    31  H    0.232073
    32  N    0.488020
    33  O   -0.460375
    34  O   -0.460509
 Sum of Mulliken charges =  -0.00000

 Dipole moment (field-independent basis, Debye):
    X=              3.6197    Y=             -3.8043    Z=             -0.9117  Tot=              5.3297
 Quadrupole moment (field-independent basis, Debye-Ang):
   XX=           -112.0099   YY=            -94.5363   ZZ=            -94.8871
   XY=             15.6468   XZ=              3.6276   YZ=             -0.1718

 Normal termination of Gaussian 16 at Thu May  6 07:28:49 2021.
