 Gaussian 16, Revision A.03,
 Gaussian 16:  EM64L-G16RevA.03 25-Dec-2016

 -------------
 #p 6-31g* mp2
 -------------

 ------------------------------------------------------
 Input file generated by CHIRIPA (05-May-2021 14:57:25)
 ------------------------------------------------------
 Symbolic Z-matrix:
 Charge =  0 Multiplicity = 1

                         Standard orientation:
 ---------------------------------------------------------------------
 Center     Atomic      Atomic             Coordinates (Angstroms)
 Number     Number       Type             X           Y           Z
 ---------------------------------------------------------------------
      1          6           0        1.277725    2.394352    0.203897
      2          6           0        1.196875    1.314644    1.089457
      3          6           0        2.092512    0.245814    0.989543
      4          6           0        3.060854    0.289595   -0.012299
      5          6           0        3.166953    1.351145   -0.909598
      6          6           0        2.260773    2.409130   -0.791050
      7          1           0        0.577878    3.220433    0.288750
      8          1           0        0.434453    1.300480    1.863121
      9          1           0        2.052460   -0.602580    1.661883
     10          1           0        3.937784    1.336946   -1.670542
     11          1           0        2.325925    3.246333   -1.480174
     12          7           0        4.014605   -0.836187   -0.127937
     13          8           0        4.858588   -0.773708   -1.019243
     14          8           0        3.900113   -1.759739    0.674921
     15          6           0       -4.410842    1.542742   -0.156755
     16          6           0       -4.506802    0.524859   -1.111336
     17          6           0       -3.676791   -0.597758   -1.038098
     18          6           0       -2.757955   -0.670219    0.007742
     19          6           0       -2.638383    0.327411    0.974038
     20          6           0       -3.478582    1.440950    0.881055
     21          1           0       -5.059570    2.411292   -0.221317
     22          1           0       -5.229882    0.601235   -1.918409
     23          1           0       -3.729935   -1.400339   -1.763670
     24          1           0       -1.907837    0.223055    1.767026
     25          1           0       -3.401841    2.229924    1.623803
     26          7           0       -1.873868   -1.853877    0.095727
     27          8           0       -1.072598   -1.893890    1.026857
     28          8           0       -1.998930   -2.719203   -0.768106
 ---------------------------------------------------------------------

 SCF Done:  E(RHF) =  -868.336845534     A.U. after   16 cycles
 E2 =    -0.2600979615D+01 EUMP2 =    -0.87093782514891D+03

 The electronic state is 1-A.
 Alpha  occ. eigenvalues --  -20.61269 -20.61241 -20.60236 -20.60200 -15.86310
 Alpha  occ. eigenvalues --  -15.85281 -11.31792 -11.30749 -11.28466 -11.28319
 Alpha  occ. eigenvalues --  -11.28116 -11.27464 -11.27420 -11.27353 -11.27303
 Alpha  occ. eigenvalues --  -11.27269 -11.26486 -11.26467  -1.60313  -1.59293
 Alpha  occ. eigenvalues --   -1.39871  -1.38842  -1.19972  -1.18984  -1.09334
 Alpha  occ. eigenvalues --   -1.08383  -1.05408  -1.04404  -0.96158  -0.95178
 Alpha  occ. eigenvalues --   -0.86796  -0.85818  -0.83000  -0.82010  -0.78046
 Alpha  occ. eigenvalues --   -0.77005  -0.72532  -0.71632  -0.71503  -0.71090
 Alpha  occ. eigenvalues --   -0.70614  -0.70122  -0.65630  -0.65436  -0.64648
 Alpha  occ. eigenvalues --   -0.64467  -0.62773  -0.61715  -0.55883  -0.54982
 Alpha  occ. eigenvalues --   -0.53716  -0.53523  -0.52725  -0.52493  -0.49291
 Alpha  occ. eigenvalues --   -0.49269  -0.48279  -0.48237  -0.45254  -0.44222
 Alpha  occ. eigenvalues --   -0.37943  -0.37172  -0.36867  -0.35961
 Alpha virt. eigenvalues --    0.04493   0.05548   0.10508   0.11731   0.15966
 Alpha virt. eigenvalues --    0.16943   0.19521   0.22024   0.25158   0.27122
 Alpha virt. eigenvalues --    0.28499   0.29122   0.30143   0.31069   0.32641

 Mulliken charges:
               1
     1  C   -0.170741
     2  C   -0.219280
     3  C   -0.162018
     4  C    0.156671
     5  C   -0.170286
     6  C   -0.219666
     7  H    0.219514
     8  H    0.213913
     9  H    0.285612
    10  H    0.274924
    11  H    0.220775
    12  N    0.488313
    13  O   -0.463224
    14  O   -0.455265
    15  C   -0.170881
    16  C   -0.218166
    17  C   -0.169800
    18  C    0.161032
    19  C   -0.171825
    20  C   -0.220986
    21  H    0.226736
    22  H    0.225762
    23  H    0.278377
    24  H    0.269495
    25  H    0.220775
    26  N    0.489177
    27  O   -0.464166
    28  O   -0.454774
 Sum of Mulliken charges =  -0.00000

 Dipole moment (field-independent basis, Debye):
    X=             -6.5578    Y=              7.8200    Z=             -0.0055  Tot=             10.2057
 Quadrupole moment (field-independent basis, Debye-Ang):
   XX=           -107.0188   YY=           -107.7184   ZZ=            -99.1057
   XY=              3.5040   XZ=              2.8507   YZ=             -0.0095

 Normal termination of Gaussian 16 at Thu May  6 19:42:57 2021.
