 Gaussian 16, Revision A.03,
 Gaussian 16:  EM64L-G16RevA.03 25-Dec-2016

 -------------
 #p 6-31g* mp2
 -------------

 ------------------------------------------------------
 Input file generated by CHIRIPA (05-May-2021 14:55:19)
 ------------------------------------------------------
 Symbolic Z-matrix:
 Charge =  0 Multiplicity = 1

                         Standard orientation:
 ---------------------------------------------------------------------
 Center     Atomic      Atomic             Coordinates (Angstroms)
 Number     Number       Type             X           Y           Z
 ---------------------------------------------------------------------
      1          6           0       -1.865398    0.957105    0.864712
      2          6           0       -2.282625   -0.295242    1.327388
      3          6           0       -3.496780   -0.841403    0.900675
      4          6           0       -4.272281   -0.104593    0.006807
      5          6           0       -3.883918    1.145607   -0.472216
      6          6           0       -2.665964    1.672272   -0.032033
      7          1           0       -0.920737    1.373803    1.201424
      8          1           0       -1.662941   -0.852895    2.023850
      9          1           0       -3.843900   -1.808761    1.242939
     10          1           0       -4.523211    1.677849   -1.166075
     11          1           0       -2.344468    2.645088   -0.393022
     12          7           0       -5.559663   -0.672469   -0.452065
     13          8           0       -6.224677   -0.003368   -1.239909
     14          8           0       -5.879323   -1.775918   -0.015195
     15          6           0        5.906151   -0.004154    0.177521
     16          6           0        6.894283   -0.760735   -0.710828
     17          6           0        8.308870   -0.788506   -0.131203
     18          1           0        6.265234    1.024097    0.321414
     19          1           0        5.886717   -0.470527    1.172265
     20          1           0        6.910818   -0.293921   -1.704019
     21          1           0        6.532707   -1.787248   -0.852780
     22          1           0        8.313498   -1.273123    0.850493
     23          1           0        8.693756    0.228688   -0.005583
     24          1           0        8.998852   -1.334326   -0.782251
     25          6           0        4.487717    0.032314   -0.388555
     26          6           0        3.499585    0.788896    0.499795
     27          6           0        2.084998    0.816666   -0.079831
     28          1           0        4.507150    0.498688   -1.383298
     29          1           0        4.128634   -0.995937   -0.532447
     30          1           0        3.861161    1.815408    0.641746
     31          1           0        3.483050    0.322083    1.492985
     32          1           0        1.700110   -0.200527   -0.205450
     33          1           0        2.080370    1.301284   -1.061526
     34          1           0        1.395016    1.362487    0.571217
 ---------------------------------------------------------------------

 SCF Done:  E(RHF) =  -669.535383443     A.U. after   15 cycles
 E2 =    -0.2090743817D+01 EUMP2 =    -0.67162612725987D+03

 The electronic state is 1-A.
 Alpha  occ. eigenvalues --  -20.60719 -20.60713 -15.85773 -11.31125 -11.27699
 Alpha  occ. eigenvalues --  -11.27695 -11.27408 -11.26705 -11.26694 -11.22431
 Alpha  occ. eigenvalues --  -11.22155 -11.22035 -11.22022 -11.21891 -11.21431
 Alpha  occ. eigenvalues --   -1.59795  -1.39349  -1.19298  -1.09049  -1.08691
 Alpha  occ. eigenvalues --   -1.04701  -1.04186  -0.96653  -0.95528  -0.87673
 Alpha  occ. eigenvalues --   -0.86097  -0.82366  -0.80252  -0.78825  -0.77414
 Alpha  occ. eigenvalues --   -0.71990  -0.71118  -0.70424  -0.65673  -0.64949
 Alpha  occ. eigenvalues --   -0.64708  -0.62051  -0.61573  -0.60091  -0.58256
 Alpha  occ. eigenvalues --   -0.55924  -0.55254  -0.53337  -0.53056  -0.52996
 Alpha  occ. eigenvalues --   -0.52793  -0.50573  -0.48750  -0.48746  -0.48563
 Alpha  occ. eigenvalues --   -0.47267  -0.46376  -0.46277  -0.44757  -0.44436
 Alpha  occ. eigenvalues --   -0.37259  -0.36309
 Alpha virt. eigenvalues --    0.05112   0.11343   0.16566   0.20221   0.22432
 Alpha virt. eigenvalues --    0.23811   0.26024   0.26076   0.26911   0.27357
 Alpha virt. eigenvalues --    0.28386   0.30271   0.30798   0.31463   0.32582

 Mulliken charges:
               1
     1  C   -0.170911
     2  C   -0.220649
     3  C   -0.170948
     4  C    0.158341
     5  C   -0.170906
     6  C   -0.220251
     7  H    0.230732
     8  H    0.223273
     9  H    0.275282
    10  H    0.275359
    11  H    0.223360
    12  N    0.488055
    13  O   -0.460617
    14  O   -0.460675
    15  C   -0.298683
    16  C   -0.300121
    17  C   -0.476014
    18  H    0.150275
    19  H    0.149811
    20  H    0.152725
    21  H    0.152694
    22  H    0.155496
    23  H    0.155563
    24  H    0.161659
    25  C   -0.299267
    26  C   -0.299347
    27  C   -0.478007
    28  H    0.151089
    29  H    0.150882
    30  H    0.153414
    31  H    0.151626
    32  H    0.158636
    33  H    0.159515
    34  H    0.148612
 Sum of Mulliken charges =  -0.00000

 Dipole moment (field-independent basis, Debye):
    X=              4.7497    Y=              1.9753    Z=              1.5635  Tot=              5.3765
 Quadrupole moment (field-independent basis, Debye-Ang):
   XX=           -134.5820   YY=            -91.4171   ZZ=            -93.6042
   XY=             -9.5793   XZ=             -6.9253   YZ=             -3.2899

 Normal termination of Gaussian 16 at Wed May  5 17:20:55 2021.
