 Gaussian 16, Revision A.03,
 Gaussian 16:  EM64L-G16RevA.03 25-Dec-2016

 -------------
 #p 6-31g* mp2
 -------------

 ------------------------------------------------------
 Input file generated by CHIRIPA (05-May-2021 14:53:15)
 ------------------------------------------------------
 Symbolic Z-matrix:
 Charge =  0 Multiplicity = 1

                         Standard orientation:
 ---------------------------------------------------------------------
 Center     Atomic      Atomic             Coordinates (Angstroms)
 Number     Number       Type             X           Y           Z
 ---------------------------------------------------------------------
      1          6           0        3.785246   -0.161151    0.143591
      2          6           0        5.268533   -0.411037   -0.131002
      3          6           0        5.646828   -1.889309   -0.034058
      4          1           0        3.535114   -0.540277    1.143912
      5          1           0        3.184485   -0.741886   -0.570012
      6          1           0        5.866333    0.171075    0.582018
      7          1           0        5.515206   -0.031099   -1.130710
      8          1           0        5.075681   -2.481297   -0.756514
      9          1           0        5.428804   -2.277974    0.965945
     10          1           0        6.711539   -2.045191   -0.233934
     11          6           0        3.391665    1.311987    0.050387
     12          6           0        1.908378    1.561872    0.324979
     13          6           0        1.530083    3.040145    0.228035
     14          1           0        3.992425    1.892722    0.763989
     15          1           0        3.641797    1.691113   -0.949935
     16          1           0        1.661705    1.181935    1.324687
     17          1           0        1.310577    0.979760   -0.388040
     18          1           0        1.748107    3.428810   -0.771968
     19          1           0        2.101229    3.632133    0.950491
     20          1           0        0.465371    3.196026    0.427912
     21          6           0       -4.045700    1.746380   -0.102698
     22          6           0       -2.711277    1.691869   -0.518469
     23          6           0       -2.013174    0.480635   -0.507744
     24          6           0       -2.683387   -0.661839   -0.073169
     25          6           0       -4.012356   -0.639804    0.347126
     26          6           0       -4.690842    0.582423    0.328014
     27          1           0       -4.580384    2.691566   -0.114287
     28          1           0       -2.207712    2.594223   -0.853468
     29          1           0       -0.979622    0.409954   -0.824278
     30          1           0       -4.487590   -1.556084    0.675763
     31          1           0       -5.727122    0.621771    0.651466
     32          7           0       -1.954721   -1.949936   -0.057375
     33          8           0       -2.567758   -2.942301    0.329966
     34          8           0       -0.784351   -1.942792   -0.432637
 ---------------------------------------------------------------------

 SCF Done:  E(RHF) =  -669.535604059     A.U. after   15 cycles
 E2 =    -0.2091710851D+01 EUMP2 =    -0.67162731491002D+03

 The electronic state is 1-A.
 Alpha  occ. eigenvalues --  -20.60765 -20.60760 -15.85816 -11.31166 -11.27750
 Alpha  occ. eigenvalues --  -11.27719 -11.27491 -11.26761 -11.26745 -11.21814
 Alpha  occ. eigenvalues --  -11.21530 -11.21353 -11.21295 -11.21019 -11.20670
 Alpha  occ. eigenvalues --   -1.59838  -1.39392  -1.19346  -1.08744  -1.08325
 Alpha  occ. eigenvalues --   -1.04749  -1.03495  -0.95939  -0.95580  -0.86956
 Alpha  occ. eigenvalues --   -0.86148  -0.82412  -0.79582  -0.78074  -0.77451
 Alpha  occ. eigenvalues --   -0.72037  -0.71160  -0.70464  -0.65004  -0.64987
 Alpha  occ. eigenvalues --   -0.64731  -0.62146  -0.60871  -0.59344  -0.57530
 Alpha  occ. eigenvalues --   -0.55276  -0.55190  -0.53080  -0.52882  -0.52664
 Alpha  occ. eigenvalues --   -0.52334  -0.49863  -0.48795  -0.48791  -0.47869
 Alpha  occ. eigenvalues --   -0.46601  -0.45618  -0.45505  -0.44796  -0.43718
 Alpha  occ. eigenvalues --   -0.37330  -0.36345
 Alpha virt. eigenvalues --    0.05054   0.11282   0.16498   0.19940   0.23135
 Alpha virt. eigenvalues --    0.24087   0.25655   0.26634   0.27175   0.28359
 Alpha virt. eigenvalues --    0.29462   0.29794   0.31500   0.31723   0.32752

 Mulliken charges:
               1
     1  C   -0.300105
     2  C   -0.299904
     3  C   -0.475870
     4  H    0.152124
     5  H    0.158400
     6  H    0.149920
     7  H    0.150443
     8  H    0.158676
     9  H    0.156283
    10  H    0.158540
    11  C   -0.297799
    12  C   -0.304700
    13  C   -0.478407
    14  H    0.149125
    15  H    0.148457
    16  H    0.156964
    17  H    0.152163
    18  H    0.154433
    19  H    0.159062
    20  H    0.152294
    21  C   -0.170564
    22  C   -0.223537
    23  C   -0.175564
    24  C    0.157130
    25  C   -0.170154
    26  C   -0.218948
    27  H    0.225673
    28  H    0.225356
    29  H    0.286104
    30  H    0.275562
    31  H    0.223378
    32  N    0.487179
    33  O   -0.460382
    34  O   -0.461333
 Sum of Mulliken charges =  -0.00000

 Dipole moment (field-independent basis, Debye):
    X=             -2.5021    Y=              4.4265    Z=             -0.0230  Tot=              5.0847
 Quadrupole moment (field-independent basis, Debye-Ang):
   XX=            -77.8862   YY=           -101.5070   ZZ=            -93.9123
   XY=             -8.2364   XZ=             -1.0874   YZ=             -1.0266

 Normal termination of Gaussian 16 at Wed May  5 20:16:52 2021.
