 Gaussian 16, Revision A.03,
 Gaussian 16:  EM64L-G16RevA.03 25-Dec-2016

 -------------
 #p 6-31g* mp2
 -------------

 ------------------------------------------------------
 Input file generated by CHIRIPA (05-May-2021 14:55:25)
 ------------------------------------------------------
 Symbolic Z-matrix:
 Charge =  0 Multiplicity = 1

                         Standard orientation:
 ---------------------------------------------------------------------
 Center     Atomic      Atomic             Coordinates (Angstroms)
 Number     Number       Type             X           Y           Z
 ---------------------------------------------------------------------
      1          6           0       -3.650248   -2.455674   -0.201226
      2          6           0       -4.784365   -1.686702   -0.482261
      3          6           0       -4.730743   -0.291326   -0.414439
      4          6           0       -3.521233    0.304746   -0.060780
      5          6           0       -2.374109   -0.434000    0.224965
      6          6           0       -2.450854   -1.827976    0.150869
      7          1           0       -3.700883   -3.539092   -0.256349
      8          1           0       -5.717173   -2.171469   -0.755967
      9          1           0       -5.593583    0.328164   -0.626939
     10          1           0       -1.458395    0.077813    0.495024
     11          1           0       -1.568495   -2.422636    0.369656
     12          7           0       -3.452227    1.781226    0.014341
     13          8           0       -2.374697    2.282243    0.328265
     14          8           0       -4.476976    2.409518   -0.242127
     15          6           0        5.227617   -0.362113    0.024496
     16          6           0        6.247244    0.663804   -0.471329
     17          6           0        7.654754    0.081601   -0.604557
     18          1           0        5.556318   -0.756407    0.995801
     19          1           0        5.208741   -1.214496   -0.668671
     20          1           0        6.263192    1.514631    0.221821
     21          1           0        5.915980    1.055843   -1.441476
     22          1           0        7.660592   -0.754174   -1.311697
     23          1           0        8.009778   -0.292780    0.361051
     24          1           0        8.367594    0.832021   -0.960350
     25          6           0        3.815854    0.204919    0.162797
     26          6           0        2.796229   -0.820999    0.658622
     27          6           0        1.388718   -0.238796    0.791850
     28          1           0        3.834731    1.057302    0.855964
     29          1           0        3.487154    0.599213   -0.808508
     30          1           0        3.127492   -1.213037    1.628769
     31          1           0        2.780280   -1.671825   -0.034528
     32          1           0        1.033694    0.135586   -0.173758
     33          1           0        1.382879    0.596979    1.498990
     34          1           0        0.675878   -0.989215    1.147643
 ---------------------------------------------------------------------

 SCF Done:  E(RHF) =  -669.535235465     A.U. after   15 cycles
 E2 =    -0.2091544199D+01 EUMP2 =    -0.67162677966403D+03

 The electronic state is 1-A.
 Alpha  occ. eigenvalues --  -20.60682 -20.60676 -15.85731 -11.31060 -11.27662
 Alpha  occ. eigenvalues --  -11.27557 -11.27413 -11.26676 -11.26648 -11.22076
 Alpha  occ. eigenvalues --  -11.21759 -11.21709 -11.21634 -11.21553 -11.21162
 Alpha  occ. eigenvalues --   -1.59757  -1.39310  -1.19249  -1.08694  -1.08656
 Alpha  occ. eigenvalues --   -1.04655  -1.03848  -0.96327  -0.95487  -0.87365
 Alpha  occ. eigenvalues --   -0.86048  -0.82326  -0.79934  -0.78473  -0.77361
 Alpha  occ. eigenvalues --   -0.71953  -0.71080  -0.70368  -0.65318  -0.64907
 Alpha  occ. eigenvalues --   -0.64664  -0.62082  -0.61219  -0.59679  -0.57907
 Alpha  occ. eigenvalues --   -0.55588  -0.55169  -0.53124  -0.52989  -0.52825
 Alpha  occ. eigenvalues --   -0.52551  -0.50228  -0.48710  -0.48705  -0.48223
 Alpha  occ. eigenvalues --   -0.46917  -0.46021  -0.45924  -0.44722  -0.44100
 Alpha  occ. eigenvalues --   -0.37245  -0.36251
 Alpha virt. eigenvalues --    0.05152   0.11386   0.16639   0.20520   0.22691
 Alpha virt. eigenvalues --    0.23871   0.25945   0.26446   0.26857   0.27965
 Alpha virt. eigenvalues --    0.29004   0.29397   0.31162   0.31636   0.32331

 Mulliken charges:
               1
     1  C   -0.170507
     2  C   -0.219321
     3  C   -0.170111
     4  C    0.158459
     5  C   -0.181411
     6  C   -0.224837
     7  H    0.225104
     8  H    0.222957
     9  H    0.275168
    10  H    0.293774
    11  H    0.224002
    12  N    0.487346
    13  O   -0.460457
    14  O   -0.460949
    15  C   -0.298702
    16  C   -0.300059
    17  C   -0.475883
    18  H    0.149720
    19  H    0.148877
    20  H    0.153356
    21  H    0.153008
    22  H    0.154830
    23  H    0.155156
    24  H    0.161247
    25  C   -0.299504
    26  C   -0.299706
    27  C   -0.486364
    28  H    0.152908
    29  H    0.152208
    30  H    0.153383
    31  H    0.150398
    32  H    0.160149
    33  H    0.166906
    34  H    0.148855
 Sum of Mulliken charges =  -0.00000

 Dipole moment (field-independent basis, Debye):
    X=             -0.0353    Y=             -5.1028    Z=             -0.2591  Tot=              5.1095
 Quadrupole moment (field-independent basis, Debye-Ang):
   XX=            -89.2205   YY=            -98.6803   ZZ=            -94.2919
   XY=             18.6564   XZ=              2.8265   YZ=              0.4646

 Normal termination of Gaussian 16 at Thu May  6 09:35:34 2021.
