 Gaussian 16, Revision A.03,
 Gaussian 16:  EM64L-G16RevA.03 25-Dec-2016

 -------------
 #p 6-31g* mp2
 -------------

 ------------------------------------------------------
 Input file generated by CHIRIPA (05-May-2021 14:53:13)
 ------------------------------------------------------
 Symbolic Z-matrix:
 Charge =  0 Multiplicity = 1

                         Standard orientation:
 ---------------------------------------------------------------------
 Center     Atomic      Atomic             Coordinates (Angstroms)
 Number     Number       Type             X           Y           Z
 ---------------------------------------------------------------------
      1          6           0        2.572229   -0.451790   -0.099042
      2          6           0        3.649710   -1.217332    0.669700
      3          6           0        3.481867   -2.733840    0.570571
      4          1           0        1.583493   -0.738549    0.284516
      5          1           0        2.598412   -0.756311   -1.154493
      6          1           0        3.622418   -0.910437    1.723117
      7          1           0        4.636004   -0.928574    0.284397
      8          1           0        3.530672   -3.059395   -0.473571
      9          1           0        2.511326   -3.041156    0.973323
     10          1           0        4.262638   -3.261412    1.127279
     11          6           0        2.726555    1.065406   -0.009444
     12          6           0        1.649074    1.830948   -0.778186
     13          6           0        1.816917    3.347456   -0.679057
     14          1           0        2.700372    1.369927    1.046007
     15          1           0        3.715290    1.352165   -0.393002
     16          1           0        0.662780    1.542190   -0.392883
     17          1           0        1.676366    1.524053   -1.831603
     18          1           0        2.787457    3.654772   -1.081809
     19          1           0        1.768112    3.673011    0.365085
     20          1           0        1.036145    3.875028   -1.235766
     21          6           0       -2.184817    0.851429    2.314415
     22          6           0       -2.131505    1.640603    1.160776
     23          6           0       -2.067584    1.046848   -0.103311
     24          6           0       -2.058722   -0.345179   -0.177275
     25          6           0       -2.110834   -1.158580    0.953633
     26          6           0       -2.174330   -0.543185    2.207351
     27          1           0       -2.234307    1.321077    3.292361
     28          1           0       -2.139502    2.723914    1.240898
     29          1           0       -2.025425    1.633865   -1.012736
     30          1           0       -2.101315   -2.236002    0.841888
     31          1           0       -2.215641   -1.158577    3.101572
     32          7           0       -1.991277   -0.985216   -1.510018
     33          8           0       -1.984774   -2.213683   -1.548268
     34          8           0       -1.946192   -0.246290   -2.491136
 ---------------------------------------------------------------------

 SCF Done:  E(RHF) =  -669.535120047     A.U. after   15 cycles
 E2 =    -0.2093485254D+01 EUMP2 =    -0.67162860530048D+03

 The electronic state is 1-A.
 Alpha  occ. eigenvalues --  -20.60810 -20.60803 -15.85866 -11.31283 -11.27870
 Alpha  occ. eigenvalues --  -11.27840 -11.27603 -11.26877 -11.26865 -11.21521
 Alpha  occ. eigenvalues --  -11.21471 -11.21335 -11.21231 -11.21224 -11.20945
 Alpha  occ. eigenvalues --   -1.59882  -1.39435  -1.19474  -1.08844  -1.08357
 Alpha  occ. eigenvalues --   -1.04885  -1.03487  -0.95952  -0.95674  -0.86966
 Alpha  occ. eigenvalues --   -0.86266  -0.82502  -0.79550  -0.78170  -0.77537
 Alpha  occ. eigenvalues --   -0.72083  -0.71206  -0.70566  -0.65120  -0.65002
 Alpha  occ. eigenvalues --   -0.64859  -0.62225  -0.60900  -0.59327  -0.57559
 Alpha  occ. eigenvalues --   -0.55366  -0.55243  -0.53266  -0.52955  -0.52646
 Alpha  occ. eigenvalues --   -0.52369  -0.49888  -0.48847  -0.48834  -0.47868
 Alpha  occ. eigenvalues --   -0.46582  -0.45701  -0.45610  -0.44820  -0.43735
 Alpha  occ. eigenvalues --   -0.37430  -0.36399
 Alpha virt. eigenvalues --    0.04976   0.11120   0.16440   0.21129   0.22921
 Alpha virt. eigenvalues --    0.24206   0.26585   0.26934   0.27349   0.27897
 Alpha virt. eigenvalues --    0.28770   0.30728   0.31453   0.31559   0.32043

 Mulliken charges:
               1
     1  C   -0.300031
     2  C   -0.299559
     3  C   -0.475196
     4  H    0.147997
     5  H    0.154993
     6  H    0.148872
     7  H    0.152145
     8  H    0.158928
     9  H    0.153611
    10  H    0.158943
    11  C   -0.296695
    12  C   -0.308926
    13  C   -0.475649
    14  H    0.145815
    15  H    0.149710
    16  H    0.155499
    17  H    0.158821
    18  H    0.157578
    19  H    0.150669
    20  H    0.156584
    21  C   -0.170928
    22  C   -0.217164
    23  C   -0.175066
    24  C    0.162744
    25  C   -0.172111
    26  C   -0.218505
    27  H    0.226156
    28  H    0.224885
    29  H    0.277532
    30  H    0.276251
    31  H    0.223962
    32  N    0.488499
    33  O   -0.460234
    34  O   -0.460132
 Sum of Mulliken charges =  -0.00000

 Dipole moment (field-independent basis, Debye):
    X=             -0.3160    Y=              2.1813    Z=              4.6246  Tot=              5.1230
 Quadrupole moment (field-independent basis, Debye-Ang):
   XX=            -94.2256   YY=            -93.8714   ZZ=            -95.2174
   XY=             -4.6804   XZ=            -10.5870   YZ=             -4.1674

 Normal termination of Gaussian 16 at Wed May  5 21:47:37 2021.
