 Gaussian 16, Revision A.03,
 Gaussian 16:  EM64L-G16RevA.03 25-Dec-2016

 -------------
 #p 6-31g* mp2
 -------------

 ------------------------------------------------------
 Input file generated by CHIRIPA (05-May-2021 14:53:11)
 ------------------------------------------------------
 Symbolic Z-matrix:
 Charge =  0 Multiplicity = 1

                         Standard orientation:
 ---------------------------------------------------------------------
 Center     Atomic      Atomic             Coordinates (Angstroms)
 Number     Number       Type             X           Y           Z
 ---------------------------------------------------------------------
      1          6           0        4.439003   -0.498263   -0.414266
      2          6           0        4.314372   -1.835605    0.316465
      3          6           0        5.300713   -2.884529   -0.198010
      4          1           0        4.278371   -0.658645   -1.489170
      5          1           0        5.465722   -0.122567   -0.304291
      6          1           0        3.287820   -2.207993    0.206311
      7          1           0        4.475129   -1.671989    1.389779
      8          1           0        6.331657   -2.537872   -0.073172
      9          1           0        5.137601   -3.076922   -1.263364
     10          1           0        5.194347   -3.832727    0.338150
     11          6           0        3.459495    0.560585    0.088859
     12          6           0        3.584125    1.897927   -0.641872
     13          6           0        2.597784    2.946851   -0.127397
     14          1           0        2.432775    0.184889   -0.021116
     15          1           0        3.620126    0.720967    1.163763
     16          1           0        3.423368    1.734311   -1.715186
     17          1           0        4.610677    2.270316   -0.531718
     18          1           0        2.760896    3.139244    0.937957
     19          1           0        1.566840    2.600194   -0.252235
     20          1           0        2.704150    3.895049   -0.663557
     21          6           0       -5.089759   -1.060029   -1.002325
     22          6           0       -4.846388   -1.304078    0.353305
     23          6           0       -3.738874   -0.735486    0.989437
     24          6           0       -2.891572    0.075781    0.236302
     25          6           0       -3.107216    0.337822   -1.115779
     26          6           0       -4.220928   -0.241301   -1.731255
     27          1           0       -5.952510   -1.505815   -1.488465
     28          1           0       -5.519438   -1.939501    0.921887
     29          1           0       -3.526789   -0.907756    2.037655
     30          1           0       -2.418418    0.975580   -1.656370
     31          1           0       -4.407452   -0.050022   -2.784187
     32          7           0       -1.715815    0.683299    0.898813
     33          8           0       -0.984428    1.394364    0.213180
     34          8           0       -1.547909    0.436900    2.091177
 ---------------------------------------------------------------------

 SCF Done:  E(RHF) =  -669.536214984     A.U. after   15 cycles
 E2 =    -0.2090944962D+01 EUMP2 =    -0.67162715994543D+03

 The electronic state is 1-A.
 Alpha  occ. eigenvalues --  -20.60985 -20.60980 -15.86023 -11.31327 -11.27888
 Alpha  occ. eigenvalues --  -11.27883 -11.27622 -11.26891 -11.26882 -11.20912
 Alpha  occ. eigenvalues --  -11.20556 -11.20545 -11.20444 -11.20219 -11.19472
 Alpha  occ. eigenvalues --   -1.60043  -1.39601  -1.19493  -1.08899  -1.07470
 Alpha  occ. eigenvalues --   -1.04887  -1.02544  -0.95744  -0.94974  -0.86288
 Alpha  occ. eigenvalues --   -0.85985  -0.82580  -0.78643  -0.77634  -0.77228
 Alpha  occ. eigenvalues --   -0.72246  -0.71357  -0.70601  -0.65150  -0.64890
 Alpha  occ. eigenvalues --   -0.64109  -0.62234  -0.59944  -0.58401  -0.56576
 Alpha  occ. eigenvalues --   -0.55391  -0.54250  -0.53220  -0.52979  -0.51700
 Alpha  occ. eigenvalues --   -0.51375  -0.49107  -0.48992  -0.48787  -0.46918
 Alpha  occ. eigenvalues --   -0.45681  -0.45050  -0.44777  -0.44618  -0.42808
 Alpha  occ. eigenvalues --   -0.37471  -0.36488
 Alpha virt. eigenvalues --    0.04892   0.11168   0.16389   0.21291   0.23757
 Alpha virt. eigenvalues --    0.25338   0.27224   0.27560   0.28110   0.28479
 Alpha virt. eigenvalues --    0.29089   0.30863   0.32217   0.32500   0.32645

 Mulliken charges:
               1
     1  C   -0.297689
     2  C   -0.298621
     3  C   -0.475069
     4  H    0.146178
     5  H    0.146989
     6  H    0.151244
     7  H    0.152551
     8  H    0.154224
     9  H    0.153128
    10  H    0.158043
    11  C   -0.298575
    12  C   -0.298316
    13  C   -0.485801
    14  H    0.157161
    15  H    0.150410
    16  H    0.146236
    17  H    0.146237
    18  H    0.153612
    19  H    0.183013
    20  H    0.151047
    21  C   -0.170547
    22  C   -0.218600
    23  C   -0.170377
    24  C    0.157281
    25  C   -0.170823
    26  C   -0.218527
    27  H    0.226122
    28  H    0.223953
    29  H    0.276018
    30  H    0.275580
    31  H    0.223935
    32  N    0.493743
    33  O   -0.465665
    34  O   -0.458095
 Sum of Mulliken charges =  -0.00000

 Dipole moment (field-independent basis, Debye):
    X=             -4.5136    Y=             -2.1443    Z=             -2.2412  Tot=              5.4766
 Quadrupole moment (field-independent basis, Debye-Ang):
   XX=            -72.2377   YY=            -96.0201   ZZ=            -91.9468
   XY=              7.4248   XZ=              5.6319   YZ=             -2.7824

 Normal termination of Gaussian 16 at Thu May  6 05:39:46 2021.
