 Gaussian 16, Revision A.03,
 Gaussian 16:  EM64L-G16RevA.03 25-Dec-2016

 -------------
 #p 6-31g* mp2
 -------------

 ------------------------------------------------------
 Input file generated by CHIRIPA (05-May-2021 14:53:13)
 ------------------------------------------------------
 Symbolic Z-matrix:
 Charge =  0 Multiplicity = 1

                         Standard orientation:
 ---------------------------------------------------------------------
 Center     Atomic      Atomic             Coordinates (Angstroms)
 Number     Number       Type             X           Y           Z
 ---------------------------------------------------------------------
      1          6           0        3.503442   -0.101868    0.592348
      2          6           0        3.019853   -1.414692    1.209292
      3          6           0        1.691856   -1.264946    1.952121
      4          1           0        3.607925    0.651753    1.384865
      5          1           0        2.736415    0.275091   -0.098279
      6          1           0        3.788160   -1.789772    1.897504
      7          1           0        2.916693   -2.165330    0.415242
      8          1           0        0.908104   -0.913815    1.273121
      9          1           0        1.784523   -0.536123    2.763805
     10          1           0        1.364736   -2.215343    2.385245
     11          6           0        4.829857   -0.235444   -0.153648
     12          6           0        5.313446    1.077380   -0.770592
     13          6           0        6.641443    0.927634   -1.513421
     14          1           0        5.596884   -0.612403    0.536980
     15          1           0        4.725374   -0.989065   -0.946165
     16          1           0        5.416606    1.828018    0.023459
     17          1           0        4.545139    1.452460   -1.458804
     18          1           0        6.548776    0.198812   -2.325105
     19          1           0        7.425195    0.576503   -0.834421
     20          1           0        6.968563    1.878032   -1.946545
     21          6           0       -3.297568    2.541621    0.574761
     22          6           0       -2.135135    1.780007    0.733558
     23          6           0       -2.100255    0.443818    0.323764
     24          6           0       -3.251098   -0.101214   -0.243500
     25          6           0       -4.424412    0.631714   -0.415089
     26          6           0       -4.436489    1.966058    0.001954
     27          1           0       -3.315806    3.578889    0.895915
     28          1           0       -1.249145    2.224369    1.178090
     29          1           0       -1.213710   -0.168641    0.434897
     30          1           0       -5.291913    0.161059   -0.861570
     31          1           0       -5.340650    2.555144   -0.122606
     32          7           0       -3.226243   -1.514801   -0.681168
     33          8           0       -4.253392   -1.971595   -1.178101
     34          8           0       -2.180084   -2.139210   -0.518992
 ---------------------------------------------------------------------

 SCF Done:  E(RHF) =  -669.535529539     A.U. after   15 cycles
 E2 =    -0.2090985102D+01 EUMP2 =    -0.67162651464127D+03

 The electronic state is 1-A.
 Alpha  occ. eigenvalues --  -20.60748 -20.60743 -15.85800 -11.31158 -11.27731
 Alpha  occ. eigenvalues --  -11.27715 -11.27475 -11.26749 -11.26731 -11.21737
 Alpha  occ. eigenvalues --  -11.21712 -11.21588 -11.21483 -11.21342 -11.21161
 Alpha  occ. eigenvalues --   -1.59823  -1.39377  -1.19333  -1.08731  -1.08579
 Alpha  occ. eigenvalues --   -1.04736  -1.03675  -0.96140  -0.95566  -0.87160
 Alpha  occ. eigenvalues --   -0.86135  -0.82397  -0.79742  -0.78401  -0.77445
 Alpha  occ. eigenvalues --   -0.72021  -0.71146  -0.70454  -0.65210  -0.64986
 Alpha  occ. eigenvalues --   -0.64743  -0.62122  -0.61048  -0.59489  -0.57746
 Alpha  occ. eigenvalues --   -0.55478  -0.55207  -0.53067  -0.52894  -0.52799
 Alpha  occ. eigenvalues --   -0.52522  -0.50078  -0.48778  -0.48776  -0.48061
 Alpha  occ. eigenvalues --   -0.46763  -0.45943  -0.45858  -0.44784  -0.43923
 Alpha  occ. eigenvalues --   -0.37317  -0.36338
 Alpha virt. eigenvalues --    0.05089   0.11313   0.16582   0.20193   0.22823
 Alpha virt. eigenvalues --    0.23838   0.25449   0.26806   0.27537   0.27846
 Alpha virt. eigenvalues --    0.29158   0.30426   0.31484   0.31672   0.31907

 Mulliken charges:
               1
     1  C   -0.298364
     2  C   -0.299702
     3  C   -0.479769
     4  H    0.147037
     5  H    0.146667
     6  H    0.153052
     7  H    0.158403
     8  H    0.150751
     9  H    0.151597
    10  H    0.168489
    11  C   -0.298587
    12  C   -0.299714
    13  C   -0.475844
    14  H    0.150215
    15  H    0.152336
    16  H    0.150590
    17  H    0.151463
    18  H    0.156473
    19  H    0.155514
    20  H    0.160045
    21  C   -0.170595
    22  C   -0.223171
    23  C   -0.181279
    24  C    0.158046
    25  C   -0.169823
    26  C   -0.219148
    27  H    0.225555
    28  H    0.224177
    29  H    0.291548
    30  H    0.275556
    31  H    0.223354
    32  N    0.486258
    33  O   -0.460421
    34  O   -0.460710
 Sum of Mulliken charges =  -0.00000

 Dipole moment (field-independent basis, Debye):
    X=             -0.0018    Y=              4.8853    Z=              1.5439  Tot=              5.1234
 Quadrupole moment (field-independent basis, Debye-Ang):
   XX=            -90.1161   YY=            -96.1220   ZZ=            -95.4386
   XY=            -17.0856   XZ=             -2.4334   YZ=             -1.3521

 Normal termination of Gaussian 16 at Thu May  6 17:03:45 2021.
