 Gaussian 16, Revision A.03,
 Gaussian 16:  EM64L-G16RevA.03 25-Dec-2016

 -------------
 #p 6-31g* mp2
 -------------

 ------------------------------------------------------
 Input file generated by CHIRIPA (05-May-2021 14:51:08)
 ------------------------------------------------------
 Symbolic Z-matrix:
 Charge =  0 Multiplicity = 1

                         Standard orientation:
 ---------------------------------------------------------------------
 Center     Atomic      Atomic             Coordinates (Angstroms)
 Number     Number       Type             X           Y           Z
 ---------------------------------------------------------------------
      1          6           0        2.682507    1.157986    0.356015
      2          6           0        2.224729    2.383290   -0.435853
      3          6           0        1.301379    3.297111    0.370467
      4          1           0        1.800577    0.591876    0.685656
      5          1           0        3.198790    1.490783    1.267110
      6          1           0        1.710677    2.048287   -1.345875
      7          1           0        3.107857    2.946446   -0.763810
      8          1           0        1.808218    3.659481    1.270690
      9          1           0        0.403099    2.756219    0.685319
     10          1           0        0.986176    4.166656   -0.214682
     11          6           0        3.606179    0.234816   -0.436649
     12          6           0        4.063957   -0.990487    0.355219
     13          6           0        4.987307   -1.904308   -0.451100
     14          1           0        3.089896   -0.097980   -1.347743
     15          1           0        4.488109    0.800926   -0.766290
     16          1           0        3.180829   -1.553643    0.683177
     17          1           0        4.578009   -0.655484    1.265241
     18          1           0        5.885587   -1.363417   -0.765952
     19          1           0        4.480468   -2.266679   -1.351324
     20          1           0        5.302510   -2.773853    0.134048
     21          6           0       -2.526521   -0.864410    0.456851
     22          6           0       -1.529633   -1.765131   -0.273152
     23          6           0       -0.298940   -2.092398    0.573065
     24          1           0       -2.023028    0.067020    0.749900
     25          1           0       -2.840775   -1.356136    1.387895
     26          1           0       -1.218407   -1.272465   -1.203224
     27          1           0       -2.035609   -2.694445   -0.564666
     28          1           0       -0.590698   -2.606214    1.494733
     29          1           0        0.231147   -1.176156    0.852546
     30          1           0        0.400418   -2.737320    0.031923
     31          6           0       -3.762165   -0.528392   -0.376217
     32          6           0       -4.759053    0.372328    0.353785
     33          6           0       -5.989746    0.699595   -0.492432
     34          1           0       -3.447911   -0.036666   -1.307262
     35          1           0       -4.265658   -1.459823   -0.669266
     36          1           0       -4.253077    1.301643    0.645300
     37          1           0       -5.070279   -0.120337    1.283858
     38          1           0       -6.519833   -0.216647   -0.771912
     39          1           0       -5.697989    1.213412   -1.414098
     40          1           0       -6.689104    1.344517    0.048710
 ---------------------------------------------------------------------

 SCF Done:  E(RHF) =  -470.733284969     A.U. after   11 cycles
 E2 =    -0.1583234001D+01 EUMP2 =    -0.47231651896980D+03

 The electronic state is 1-A.
 Alpha  occ. eigenvalues --  -11.21679 -11.21629 -11.21626 -11.21540 -11.21463
 Alpha  occ. eigenvalues --  -11.21398 -11.21395 -11.21333 -11.21151 -11.21117
 Alpha  occ. eigenvalues --  -11.21090 -11.21038  -1.08488  -1.08421  -1.03585
 Alpha  occ. eigenvalues --   -1.03523  -0.96043  -0.95972  -0.87056  -0.86993
 Alpha  occ. eigenvalues --   -0.79653  -0.79584  -0.78317  -0.78216  -0.65213
 Alpha  occ. eigenvalues --   -0.64979  -0.60989  -0.60918  -0.59410  -0.59334
 Alpha  occ. eigenvalues --   -0.57676  -0.57563  -0.55457  -0.55150  -0.52740
 Alpha  occ. eigenvalues --   -0.52666  -0.52491  -0.52373  -0.50053  -0.49866
 Alpha  occ. eigenvalues --   -0.48001  -0.47887  -0.46778  -0.46604  -0.45943
 Alpha  occ. eigenvalues --   -0.45786  -0.45743  -0.45433  -0.43834  -0.43776
 Alpha virt. eigenvalues --    0.20185   0.22964   0.23866   0.24593   0.25607
 Alpha virt. eigenvalues --    0.26667   0.26946   0.27338   0.28134   0.29491
 Alpha virt. eigenvalues --    0.30138   0.31636   0.31720   0.31809   0.32203

 Mulliken charges:
               1
     1  C   -0.306214
     2  C   -0.299203
     3  C   -0.475763
     4  H    0.156427
     5  H    0.149783
     6  H    0.151551
     7  H    0.152244
     8  H    0.155611
     9  H    0.154107
    10  H    0.160385
    11  C   -0.297458
    12  C   -0.303219
    13  C   -0.475651
    14  H    0.149338
    15  H    0.149539
    16  H    0.156455
    17  H    0.151560
    18  H    0.154967
    19  H    0.154875
    20  H    0.160204
    21  C   -0.298587
    22  C   -0.299593
    23  C   -0.484131
    24  H    0.149083
    25  H    0.149964
    26  H    0.151697
    27  H    0.152435
    28  H    0.156115
    29  H    0.161939
    30  H    0.160863
    31  C   -0.298359
    32  C   -0.299752
    33  C   -0.475749
    34  H    0.149628
    35  H    0.149831
    36  H    0.152173
    37  H    0.152019
    38  H    0.155188
    39  H    0.155268
    40  H    0.160428
 Sum of Mulliken charges =  -0.00000

 Dipole moment (field-independent basis, Debye):
    X=             -0.0240    Y=             -0.0133    Z=              0.0107  Tot=              0.0295
 Quadrupole moment (field-independent basis, Debye-Ang):
   XX=            -85.2449   YY=            -84.4826   ZZ=            -84.9845
   XY=              1.6871   XZ=             -0.0344   YZ=             -0.3375

 Normal termination of Gaussian 16 at Wed May  5 22:55:59 2021.
