 Gaussian 16, Revision A.03,
 Gaussian 16:  EM64L-G16RevA.03 25-Dec-2016

 -------------
 #p 6-31g* mp2
 -------------

 ------------------------------------------------------
 Input file generated by CHIRIPA (05-May-2021 14:55:24)
 ------------------------------------------------------
 Symbolic Z-matrix:
 Charge =  0 Multiplicity = 1

                         Standard orientation:
 ---------------------------------------------------------------------
 Center     Atomic      Atomic             Coordinates (Angstroms)
 Number     Number       Type             X           Y           Z
 ---------------------------------------------------------------------
      1          6           0        2.393098   -2.290227   -0.900264
      2          6           0        1.376515   -1.349125   -0.706856
      3          6           0        1.685893   -0.032082   -0.354393
      4          6           0        3.028527    0.310988   -0.202982
      5          6           0        4.063896   -0.603776   -0.388747
      6          6           0        3.731186   -1.915209   -0.740873
      7          1           0        2.143703   -3.311159   -1.173935
      8          1           0        0.336463   -1.637541   -0.829958
      9          1           0        0.918760    0.716675   -0.198546
     10          1           0        5.091447   -0.286477   -0.258827
     11          1           0        4.522761   -2.643965   -0.890435
     12          7           0        3.368403    1.702313    0.169977
     13          8           0        4.559053    1.979406    0.297285
     14          8           0        2.437711    2.489396    0.327931
     15          6           0       -4.485056   -0.210133    0.007502
     16          6           0       -5.023218    1.042235   -0.685275
     17          6           0       -6.384826    0.815187   -1.342745
     18          1           0       -4.408062   -1.023360   -0.727127
     19          1           0       -5.208611   -0.541012    0.765383
     20          1           0       -4.298228    1.371452   -1.440670
     21          1           0       -5.098758    1.852630    0.051047
     22          1           0       -7.126142    0.508890   -0.597606
     23          1           0       -6.321064    0.024979   -2.097798
     24          1           0       -6.750793    1.723217   -1.832041
     25          6           0       -3.124575    0.001030    0.669491
     26          6           0       -2.586412   -1.251338    1.362268
     27          6           0       -1.224804   -1.024290    2.019738
     28          1           0       -2.401019    0.331909   -0.088389
     29          1           0       -3.201568    0.814257    1.404120
     30          1           0       -2.510872   -2.061732    0.625945
     31          1           0       -3.311402   -1.580555    2.117662
     32          1           0       -1.288568   -0.234081    2.774791
     33          1           0       -0.483488   -0.717992    1.274598
     34          1           0       -0.858837   -1.932320    2.509033
 ---------------------------------------------------------------------

 SCF Done:  E(RHF) =  -669.533883189     A.U. after   15 cycles
 E2 =    -0.2093017068D+01 EUMP2 =    -0.67162690025706D+03

 The electronic state is 1-A.
 Alpha  occ. eigenvalues --  -20.60763 -20.60758 -15.85817 -11.31202 -11.27764
 Alpha  occ. eigenvalues --  -11.27760 -11.27507 -11.26791 -11.26773 -11.22213
 Alpha  occ. eigenvalues --  -11.21943 -11.21900 -11.21793 -11.21548 -11.21316
 Alpha  occ. eigenvalues --   -1.59838  -1.39391  -1.19382  -1.08912  -1.08765
 Alpha  occ. eigenvalues --   -1.04813  -1.03970  -0.96420  -0.95600  -0.87435
 Alpha  occ. eigenvalues --   -0.86181  -0.82453  -0.80041  -0.78711  -0.77486
 Alpha  occ. eigenvalues --   -0.72036  -0.71161  -0.70491  -0.65597  -0.65035
 Alpha  occ. eigenvalues --   -0.64790  -0.62295  -0.61261  -0.59780  -0.58018
 Alpha  occ. eigenvalues --   -0.55762  -0.55263  -0.53250  -0.53051  -0.52876
 Alpha  occ. eigenvalues --   -0.52730  -0.50341  -0.48796  -0.48790  -0.48338
 Alpha  occ. eigenvalues --   -0.47091  -0.46240  -0.46178  -0.44791  -0.44227
 Alpha  occ. eigenvalues --   -0.37356  -0.36310
 Alpha virt. eigenvalues --    0.05023   0.11239   0.16402   0.19277   0.22844
 Alpha virt. eigenvalues --    0.23877   0.25453   0.26357   0.27710   0.28096
 Alpha virt. eigenvalues --    0.29397   0.29917   0.31310   0.31522   0.32249

 Mulliken charges:
               1
     1  C   -0.172272
     2  C   -0.216839
     3  C   -0.170987
     4  C    0.157037
     5  C   -0.171299
     6  C   -0.218424
     7  H    0.225752
     8  H    0.226003
     9  H    0.276994
    10  H    0.275694
    11  H    0.223555
    12  N    0.488160
    13  O   -0.460421
    14  O   -0.460130
    15  C   -0.298260
    16  C   -0.300175
    17  C   -0.476000
    18  H    0.147607
    19  H    0.151430
    20  H    0.152209
    21  H    0.154429
    22  H    0.155765
    23  H    0.154501
    24  H    0.162068
    25  C   -0.297961
    26  C   -0.301774
    27  C   -0.480491
    28  H    0.142302
    29  H    0.155354
    30  H    0.145147
    31  H    0.155928
    32  H    0.161639
    33  H    0.152192
    34  H    0.161266
 Sum of Mulliken charges =  -0.00000

 Dipole moment (field-independent basis, Debye):
    X=             -1.2606    Y=             -4.8601    Z=             -1.2489  Tot=              5.1740
 Quadrupole moment (field-independent basis, Debye-Ang):
   XX=            -97.4304   YY=            -98.0839   ZZ=            -94.4133
   XY=            -17.0947   XZ=             -4.9602   YZ=              0.9288

 Normal termination of Gaussian 16 at Wed May  5 20:45:31 2021.
