 Gaussian 16, Revision A.03,
 Gaussian 16:  EM64L-G16RevA.03 25-Dec-2016

 -------------
 #p 6-31g* mp2
 -------------

 ------------------------------------------------------
 Input file generated by CHIRIPA (05-May-2021 14:51:08)
 ------------------------------------------------------
 Symbolic Z-matrix:
 Charge =  0 Multiplicity = 1

                         Standard orientation:
 ---------------------------------------------------------------------
 Center     Atomic      Atomic             Coordinates (Angstroms)
 Number     Number       Type             X           Y           Z
 ---------------------------------------------------------------------
      1          6           0       -4.217569   -0.273299    0.312050
      2          6           0       -5.051453   -0.061568   -0.951989
      3          6           0       -6.489604   -0.558447   -0.801560
      4          1           0       -4.213061   -1.342167    0.565909
      5          1           0       -4.699734    0.245465    1.152167
      6          1           0       -4.567124   -0.579424   -1.789763
      7          1           0       -5.053818    1.006896   -1.202977
      8          1           0       -6.994884   -0.033946    0.015869
      9          1           0       -6.505424   -1.629279   -0.574250
     10          1           0       -7.067822   -0.397319   -1.716744
     11          6           0       -2.777505    0.218396    0.177224
     12          6           0       -1.943621    0.006666    1.441263
     13          6           0       -0.505470    0.503545    1.290834
     14          1           0       -2.295340   -0.300367   -0.662893
     15          1           0       -2.782013    1.287265   -0.076636
     16          1           0       -1.941256   -1.061798    1.692251
     17          1           0       -2.427950    0.524522    2.279037
     18          1           0       -0.489650    1.574377    1.063524
     19          1           0       -0.000190   -0.020956    0.473405
     20          1           0        0.072748    0.342417    2.206018
     21          6           0        3.531393   -0.628503    0.145247
     22          6           0        3.940769   -1.824639   -0.714786
     23          6           0        4.004039   -3.129672    0.079368
     24          1           0        4.243651   -0.520490    0.974684
     25          1           0        2.551309   -0.830467    0.599165
     26          1           0        4.919160   -1.619900   -1.168052
     27          1           0        3.227563   -1.929702   -1.542381
     28          1           0        3.028339   -3.360872    0.518865
     29          1           0        4.729547   -3.049310    0.895322
     30          1           0        4.298575   -3.971661   -0.554796
     31          6           0        3.463681    0.683406   -0.634521
     32          6           0        3.054304    1.879541    0.225512
     33          6           0        2.991035    3.184574   -0.568642
     34          1           0        4.443765    0.885369   -1.088438
     35          1           0        2.751423    0.575391   -1.463957
     36          1           0        3.767511    1.984604    1.053108
     37          1           0        2.075914    1.674802    0.678778
     38          1           0        2.265526    3.104212   -1.384595
     39          1           0        3.966735    3.415774   -1.008139
     40          1           0        2.696499    4.026563    0.065522
 ---------------------------------------------------------------------

 SCF Done:  E(RHF) =  -470.732932944     A.U. after   11 cycles
 E2 =    -0.1583299860D+01 EUMP2 =    -0.47231623280401D+03

 The electronic state is 1-A.
 Alpha  occ. eigenvalues --  -11.21681 -11.21641 -11.21557 -11.21467 -11.21404
 Alpha  occ. eigenvalues --  -11.21404 -11.21309 -11.21250 -11.21198 -11.21102
 Alpha  occ. eigenvalues --  -11.21045 -11.20976  -1.08497  -1.08339  -1.03608
 Alpha  occ. eigenvalues --   -1.03440  -0.96063  -0.95904  -0.87096  -0.86913
 Alpha  occ. eigenvalues --   -0.79721  -0.79476  -0.78323  -0.78121  -0.65138
 Alpha  occ. eigenvalues --   -0.64973  -0.61011  -0.60846  -0.59428  -0.59267
 Alpha  occ. eigenvalues --   -0.57662  -0.57513  -0.55428  -0.55118  -0.52800
 Alpha  occ. eigenvalues --   -0.52589  -0.52488  -0.52323  -0.50031  -0.49821
 Alpha  occ. eigenvalues --   -0.48060  -0.47785  -0.46741  -0.46489  -0.45940
 Alpha  occ. eigenvalues --   -0.45769  -0.45681  -0.45451  -0.43817  -0.43692
 Alpha virt. eigenvalues --    0.21219   0.22970   0.24103   0.24559   0.25796
 Alpha virt. eigenvalues --    0.26479   0.27159   0.27554   0.27796   0.29515
 Alpha virt. eigenvalues --    0.30476   0.31576   0.31666   0.31906   0.32288

 Mulliken charges:
               1
     1  C   -0.298365
     2  C   -0.299677
     3  C   -0.475748
     4  H    0.149772
     5  H    0.149724
     6  H    0.151937
     7  H    0.152045
     8  H    0.155269
     9  H    0.155245
    10  H    0.160401
    11  C   -0.298604
    12  C   -0.300821
    13  C   -0.480195
    14  H    0.149375
    15  H    0.149882
    16  H    0.152173
    17  H    0.152442
    18  H    0.156048
    19  H    0.157615
    20  H    0.161920
    21  C   -0.302942
    22  C   -0.299366
    23  C   -0.475574
    24  H    0.149322
    25  H    0.153887
    26  H    0.151893
    27  H    0.151218
    28  H    0.154805
    29  H    0.155187
    30  H    0.160017
    31  C   -0.297196
    32  C   -0.310759
    33  C   -0.475251
    34  H    0.149026
    35  H    0.148547
    36  H    0.150665
    37  H    0.167425
    38  H    0.154606
    39  H    0.154663
    40  H    0.159393
 Sum of Mulliken charges =  -0.00000

 Dipole moment (field-independent basis, Debye):
    X=             -0.0739    Y=              0.0004    Z=              0.0362  Tot=              0.0823
 Quadrupole moment (field-independent basis, Debye-Ang):
   XX=            -85.0840   YY=            -85.1516   ZZ=            -84.8212
   XY=             -0.3898   XZ=              0.0875   YZ=              0.8276

 Normal termination of Gaussian 16 at Wed May  5 21:18:59 2021.
