 Gaussian 16, Revision A.03,
 Gaussian 16:  EM64L-G16RevA.03 25-Dec-2016

 -------------
 #p 6-31g* mp2
 -------------

 ------------------------------------------------------
 Input file generated by CHIRIPA (05-May-2021 14:57:20)
 ------------------------------------------------------
 Symbolic Z-matrix:
 Charge =  0 Multiplicity = 1

                         Standard orientation:
 ---------------------------------------------------------------------
 Center     Atomic      Atomic             Coordinates (Angstroms)
 Number     Number       Type             X           Y           Z
 ---------------------------------------------------------------------
      1          6           0       -3.013711   -2.349062    0.086409
      2          6           0       -2.440155   -1.459391    1.000761
      3          6           0       -2.736258   -0.094222    0.944341
      4          6           0       -3.614002    0.348895   -0.043840
      5          6           0       -4.201472   -0.512601   -0.969038
      6          6           0       -3.890993   -1.873666   -0.893845
      7          1           0       -2.778107   -3.407964    0.137529
      8          1           0       -1.758505   -1.825767    1.763105
      9          1           0       -2.306366    0.616506    1.639666
     10          1           0       -4.877381   -0.117625   -1.717743
     11          1           0       -4.337906   -2.562292   -1.605256
     12          7           0       -3.935083    1.791966   -0.113507
     13          8           0       -4.711411    2.157232   -0.993582
     14          8           0       -3.404338    2.530455    0.713283
     15          6           0        1.570043   -1.482279    0.754462
     16          6           0        2.197172   -1.748223   -0.467219
     17          6           0        3.301120   -0.994855   -0.877446
     18          6           0        3.753571    0.021505   -0.037452
     19          6           0        3.150164    0.310701    1.185477
     20          6           0        2.047697   -0.455477    1.575463
     21          1           0        0.713045   -2.072488    1.065275
     22          1           0        1.828388   -2.545034   -1.106855
     23          1           0        3.805521   -1.179360   -1.818166
     24          1           0        3.540638    1.111502    1.801647
     25          1           0        1.562640   -0.246700    2.524767
     26          7           0        4.921486    0.825841   -0.461028
     27          8           0        5.300803    1.715769    0.297118
     28          8           0        5.435466    0.551123   -1.543151
 ---------------------------------------------------------------------

 SCF Done:  E(RHF) =  -868.336228134     A.U. after   16 cycles
 E2 =    -0.2600213187D+01 EUMP2 =    -0.87093644132123D+03

 The electronic state is 1-A.
 Alpha  occ. eigenvalues --  -20.61314 -20.61306 -20.60970 -20.60964 -15.86376
 Alpha  occ. eigenvalues --  -15.86029 -11.31920 -11.31512 -11.28582 -11.28492
 Alpha  occ. eigenvalues --  -11.28360 -11.28100 -11.28097 -11.27973 -11.27709
 Alpha  occ. eigenvalues --  -11.27531 -11.27200 -11.27174  -1.60384  -1.60042
 Alpha  occ. eigenvalues --   -1.39933  -1.39592  -1.20133  -1.19713  -1.09504
 Alpha  occ. eigenvalues --   -1.09109  -1.05576  -1.05134  -0.96298  -0.95920
 Alpha  occ. eigenvalues --   -0.86976  -0.86544  -0.83140  -0.82742  -0.78147
 Alpha  occ. eigenvalues --   -0.77749  -0.72592  -0.72247  -0.71709  -0.71365
 Alpha  occ. eigenvalues --   -0.71254  -0.70908  -0.65795  -0.65625  -0.65379
 Alpha  occ. eigenvalues --   -0.65156  -0.62926  -0.62478  -0.56114  -0.55733
 Alpha  occ. eigenvalues --   -0.53873  -0.53663  -0.53436  -0.53245  -0.49364
 Alpha  occ. eigenvalues --   -0.49333  -0.49016  -0.48991  -0.45298  -0.44971
 Alpha  occ. eigenvalues --   -0.38150  -0.37765  -0.37107  -0.36724
 Alpha virt. eigenvalues --    0.04397   0.04802   0.10357   0.10911   0.15753
 Alpha virt. eigenvalues --    0.16310   0.18585   0.21953   0.25102   0.26500
 Alpha virt. eigenvalues --    0.27736   0.28879   0.29929   0.31066   0.32271

 Mulliken charges:
               1
     1  C   -0.172264
     2  C   -0.220759
     3  C   -0.167757
     4  C    0.159213
     5  C   -0.169019
     6  C   -0.218261
     7  H    0.224579
     8  H    0.214628
     9  H    0.275590
    10  H    0.278599
    11  H    0.225921
    12  N    0.488156
    13  O   -0.457795
    14  O   -0.458942
    15  C   -0.168161
    16  C   -0.218178
    17  C   -0.169863
    18  C    0.159189
    19  C   -0.169008
    20  C   -0.219297
    21  H    0.216308
    22  H    0.222215
    23  H    0.276814
    24  H    0.277893
    25  H    0.220315
    26  N    0.488053
    27  O   -0.458647
    28  O   -0.459520
 Sum of Mulliken charges =  -0.00000

 Dipole moment (field-independent basis, Debye):
    X=             -3.0574    Y=             -7.7365    Z=              1.5746  Tot=              8.4664
 Quadrupole moment (field-independent basis, Debye-Ang):
   XX=           -142.0145   YY=           -108.2225   ZZ=            -98.9126
   XY=              8.5309   XZ=              7.5211   YZ=              4.1408

 Normal termination of Gaussian 16 at Wed May  5 17:42:19 2021.
